 Entering Gaussian System, Link 0=g09
 Input=/scratch/mverot/1-2-ethanediol-redundant-opt/1-2-ethanediol-redundant-opt.com
 Output=/scratch/mverot/1-2-ethanediol-redundant-opt/1-2-ethanediol-redundant-opt.log
 Initial command:
 /opt/g09/l1.exe "/scratch/mverot/1-2-ethanediol-redundant-opt/Gau-1492668.inp" -scrdir="/scratch/mverot/1-2-ethanediol-redundant-opt/"
 Entering Link 1 = /opt/g09/l1.exe PID=   1492670.
  
 Copyright (c) 1988,1990,1992,1993,1995,1998,2003,2009,2013,
            Gaussian, Inc.  All Rights Reserved.
  
 This is part of the Gaussian(R) 09 program.  It is based on
 the Gaussian(R) 03 system (copyright 2003, Gaussian, Inc.),
 the Gaussian(R) 98 system (copyright 1998, Gaussian, Inc.),
 the Gaussian(R) 94 system (copyright 1995, Gaussian, Inc.),
 the Gaussian 92(TM) system (copyright 1992, Gaussian, Inc.),
 the Gaussian 90(TM) system (copyright 1990, Gaussian, Inc.),
 the Gaussian 88(TM) system (copyright 1988, Gaussian, Inc.),
 the Gaussian 86(TM) system (copyright 1986, Carnegie Mellon
 University), and the Gaussian 82(TM) system (copyright 1983,
 Carnegie Mellon University). Gaussian is a federally registered
 trademark of Gaussian, Inc.
  
 This software contains proprietary and confidential information,
 including trade secrets, belonging to Gaussian, Inc.
  
 This software is provided under written license and may be
 used, copied, transmitted, or stored only in accord with that
 written license.
  
 The following legend is applicable only to US Government
 contracts under FAR:
  
                    RESTRICTED RIGHTS LEGEND
  
 Use, reproduction and disclosure by the US Government is
 subject to restrictions as set forth in subparagraphs (a)
 and (c) of the Commercial Computer Software - Restricted
 Rights clause in FAR 52.227-19.
  
 Gaussian, Inc.
 340 Quinnipiac St., Bldg. 40, Wallingford CT 06492
  
  
 ---------------------------------------------------------------
 Warning -- This program may not be used in any manner that
 competes with the business of Gaussian, Inc. or will provide
 assistance to any competitor of Gaussian, Inc.  The licensee
 of this program is prohibited from giving any competitor of
 Gaussian, Inc. access to this program.  By using this program,
 the user acknowledges that Gaussian, Inc. is engaged in the
 business of creating and licensing software in the field of
 computational chemistry and represents and warrants to the
 licensee that it is not a competitor of Gaussian, Inc. and that
 it will not use this program in any manner prohibited above.
 ---------------------------------------------------------------
  

 Cite this work as:
 Gaussian 09, Revision D.01,
 M. J. Frisch, G. W. Trucks, H. B. Schlegel, G. E. Scuseria, 
 M. A. Robb, J. R. Cheeseman, G. Scalmani, V. Barone, B. Mennucci, 
 G. A. Petersson, H. Nakatsuji, M. Caricato, X. Li, H. P. Hratchian, 
 A. F. Izmaylov, J. Bloino, G. Zheng, J. L. Sonnenberg, M. Hada, 
 M. Ehara, K. Toyota, R. Fukuda, J. Hasegawa, M. Ishida, T. Nakajima, 
 Y. Honda, O. Kitao, H. Nakai, T. Vreven, J. A. Montgomery, Jr., 
 J. E. Peralta, F. Ogliaro, M. Bearpark, J. J. Heyd, E. Brothers, 
 K. N. Kudin, V. N. Staroverov, T. Keith, R. Kobayashi, J. Normand, 
 K. Raghavachari, A. Rendell, J. C. Burant, S. S. Iyengar, J. Tomasi, 
 M. Cossi, N. Rega, J. M. Millam, M. Klene, J. E. Knox, J. B. Cross, 
 V. Bakken, C. Adamo, J. Jaramillo, R. Gomperts, R. E. Stratmann, 
 O. Yazyev, A. J. Austin, R. Cammi, C. Pomelli, J. W. Ochterski, 
 R. L. Martin, K. Morokuma, V. G. Zakrzewski, G. A. Voth, 
 P. Salvador, J. J. Dannenberg, S. Dapprich, A. D. Daniels, 
 O. Farkas, J. B. Foresman, J. V. Ortiz, J. Cioslowski, 
 and D. J. Fox, Gaussian, Inc., Wallingford CT, 2013.
 
 ******************************************
 Gaussian 09:  AM64L-G09RevD.01 24-Apr-2013
                18-Apr-2022 
 ******************************************
 %chk=1-2-ethanediol-opt
 ----------------------------
 # hf/6-31G* Opt=modredundant
 ----------------------------
 1/18=120,19=15,38=1/1,3;
 2/9=110,12=2,17=6,18=5,40=1/2;
 3/5=1,6=6,7=1,11=9,16=1,25=1,30=1,71=1/1,2,3;
 4//1;
 5/5=2,38=5/2;
 6/7=2,8=2,9=2,10=2,28=1/1;
 7//1,2,3,16;
 1/18=20,19=15/3(2);
 2/9=110/2;
 99//99;
 2/9=110/2;
 3/5=1,6=6,7=1,11=9,16=1,25=1,30=1,71=1/1,2,3;
 4/5=5,16=3,69=1/1;
 5/5=2,38=5/2;
 7//1,2,3,16;
 1/18=20,19=15/3(-5);
 2/9=110/2;
 6/7=2,8=2,9=2,10=2,19=2,28=1/1;
 99/9=1/99;
 -------------------------
 Optimisation de geometrie
 -------------------------
 Symbolic Z-matrix:
 Charge =  0 Multiplicity = 1
 C                     1.0379    2.1554    1.623 
 O                     1.6569    2.075     2.9094 
 C                     1.3393    0.836     0.929 
 O                     2.7356    0.6333    0.8072 
 H                     1.4617    2.9816    1.0336 
 H                    -0.0497    2.3075    1.709 
 H                     1.6972    2.965     3.2882 
 H                     0.9208    0.8398   -0.083 
 H                     0.8609    0.0177    1.4923 
 H                     3.0927    0.8053    1.6951 
 
 The following ModRedundant input section has been read:
 D       2       1       3       4 S  36 10.000                                
 

 GradGradGradGradGradGradGradGradGradGradGradGradGradGradGradGradGradGrad
 Berny optimization.
 Initialization pass.
                           ----------------------------
                           !    Initial Parameters    !
                           ! (Angstroms and Degrees)  !
 --------------------------                            --------------------------
 ! Name  Definition              Value          Derivative Info.                !
 --------------------------------------------------------------------------------
 ! R1    R(1,2)                  1.4298         estimate D2E/DX2                !
 ! R2    R(1,3)                  1.521          estimate D2E/DX2                !
 ! R3    R(1,5)                  1.0998         estimate D2E/DX2                !
 ! R4    R(1,6)                  1.1015         estimate D2E/DX2                !
 ! R5    R(2,7)                  0.9681         estimate D2E/DX2                !
 ! R6    R(3,4)                  1.4162         estimate D2E/DX2                !
 ! R7    R(3,8)                  1.0951         estimate D2E/DX2                !
 ! R8    R(3,9)                  1.1026         estimate D2E/DX2                !
 ! R9    R(4,10)                 0.9724         estimate D2E/DX2                !
 ! A1    A(2,1,3)              106.0187         estimate D2E/DX2                !
 ! A2    A(2,1,5)              110.9508         estimate D2E/DX2                !
 ! A3    A(2,1,6)              111.405          estimate D2E/DX2                !
 ! A4    A(3,1,5)              109.3158         estimate D2E/DX2                !
 ! A5    A(3,1,6)              110.5522         estimate D2E/DX2                !
 ! A6    A(5,1,6)              108.5765         estimate D2E/DX2                !
 ! A7    A(1,2,7)              108.5636         estimate D2E/DX2                !
 ! A8    A(1,3,4)              111.026          estimate D2E/DX2                !
 ! A9    A(1,3,8)              110.0549         estimate D2E/DX2                !
 ! A10   A(1,3,9)              108.9477         estimate D2E/DX2                !
 ! A11   A(4,3,8)              107.3256         estimate D2E/DX2                !
 ! A12   A(4,3,9)              111.4381         estimate D2E/DX2                !
 ! A13   A(8,3,9)              107.9908         estimate D2E/DX2                !
 ! A14   A(3,4,10)             104.9658         estimate D2E/DX2                !
 ! D1    D(3,1,2,7)            164.9577         estimate D2E/DX2                !
 ! D2    D(5,1,2,7)             46.3753         estimate D2E/DX2                !
 ! D3    D(6,1,2,7)            -74.7213         estimate D2E/DX2                !
 ! D4    D(2,1,3,4)            -59.4136         Scan                            !
 ! D5    D(2,1,3,8)           -178.0964         estimate D2E/DX2                !
 ! D6    D(2,1,3,9)             63.6768         estimate D2E/DX2                !
 ! D7    D(5,1,3,4)             60.2449         estimate D2E/DX2                !
 ! D8    D(5,1,3,8)            -58.4379         estimate D2E/DX2                !
 ! D9    D(5,1,3,9)           -176.6647         estimate D2E/DX2                !
 ! D10   D(6,1,3,4)            179.7124         estimate D2E/DX2                !
 ! D11   D(6,1,3,8)             61.0297         estimate D2E/DX2                !
 ! D12   D(6,1,3,9)            -57.1972         estimate D2E/DX2                !
 ! D13   D(1,3,4,10)            49.1359         estimate D2E/DX2                !
 ! D14   D(8,3,4,10)           169.4508         estimate D2E/DX2                !
 ! D15   D(9,3,4,10)           -72.5093         estimate D2E/DX2                !
 --------------------------------------------------------------------------------
 Trust Radius=3.00D-01 FncErr=1.00D-07 GrdErr=1.00D-07
 Number of optimizations in scan=  37
 Number of steps in this run=     48 maximum allowed number of steps=    100.
 GradGradGradGradGradGradGradGradGradGradGradGradGradGradGradGradGradGrad

                          Input orientation:                          
 ---------------------------------------------------------------------
 Center     Atomic      Atomic             Coordinates (Angstroms)
 Number     Number       Type             X           Y           Z
 ---------------------------------------------------------------------
      1          6           0        1.037900    2.155400    1.623000
      2          8           0        1.656900    2.075000    2.909400
      3          6           0        1.339300    0.836000    0.929000
      4          8           0        2.735600    0.633300    0.807200
      5          1           0        1.461700    2.981600    1.033600
      6          1           0       -0.049700    2.307500    1.709000
      7          1           0        1.697200    2.965000    3.288200
      8          1           0        0.920800    0.839800   -0.083000
      9          1           0        0.860900    0.017700    1.492300
     10          1           0        3.092700    0.805300    1.695100
 ---------------------------------------------------------------------
                    Distance matrix (angstroms):
                    1          2          3          4          5
     1  C    0.000000
     2  O    1.429843   0.000000
     3  C    1.520952   2.357536   0.000000
     4  O    2.421674   2.767912   1.416184   0.000000
     5  H    1.099821   2.092523   2.151632   2.681155   0.000000
     6  H    1.101546   2.099405   2.168648   3.372549   1.787430
     7  H    1.965457   0.968098   3.197899   3.559559   2.266927
     8  H    2.157534   3.319943   1.095126   2.031895   2.475212
     9  H    2.148993   2.621883   1.102628   2.088738   3.058769
    10  H    2.459710   2.268961   1.913704   0.972353   2.798933
                    6          7          8          9         10
     6  H    0.000000
     7  H    2.444962   0.000000
     8  H    2.511429   4.060081   0.000000
     9  H    2.473729   3.551230   1.777922   0.000000
    10  H    3.483027   3.024846   2.807130   2.375368   0.000000
 Stoichiometry    C2H6O2
 Framework group  C1[X(C2H6O2)]
 Deg. of freedom    24
 Full point group                 C1      NOp   1
 Largest Abelian subgroup         C1      NOp   1
 Largest concise Abelian subgroup C1      NOp   1
                         Standard orientation:                         
 ---------------------------------------------------------------------
 Center     Atomic      Atomic             Coordinates (Angstroms)
 Number     Number       Type             X           Y           Z
 ---------------------------------------------------------------------
      1          6           0        0.684527    0.611474   -0.262380
      2          8           0        1.316614   -0.576038    0.222113
      3          6           0       -0.741473    0.573046    0.265198
      4          8           0       -1.420502   -0.583538   -0.189564
      5          1           0        0.665344    0.626165   -1.361935
      6          1           0        1.203588    1.516259    0.091657
      7          1           0        2.135630   -0.714104   -0.275245
      8          1           0       -1.299628    1.442666   -0.097466
      9          1           0       -0.717100    0.619137    1.366593
     10          1           0       -0.815056   -1.320637   -0.000906
 ---------------------------------------------------------------------
 Rotational constants (GHZ):     15.1386151      5.7121834      4.6692489
 Standard basis: 6-31G(d) (6D, 7F)
 There are    72 symmetry adapted cartesian basis functions of A   symmetry.
 There are    72 symmetry adapted basis functions of A   symmetry.
    72 basis functions,   136 primitive gaussians,    72 cartesian basis functions
    17 alpha electrons       17 beta electrons
       nuclear repulsion energy       133.4367965253 Hartrees.
 NAtoms=   10 NActive=   10 NUniq=   10 SFac= 1.00D+00 NAtFMM=   60 NAOKFM=F Big=F
 Integral buffers will be    131072 words long.
 Raffenetti 1 integral format.
 Two-electron integral symmetry is turned on.
 One-electron integrals computed using PRISM.
 NBasis=    72 RedAO= T EigKep=  5.24D-03  NBF=    72
 NBsUse=    72 1.00D-06 EigRej= -1.00D+00 NBFU=    72
 ExpMin= 1.61D-01 ExpMax= 5.48D+03 ExpMxC= 8.25D+02 IAcc=1 IRadAn=         1 AccDes= 0.00D+00
 Harris functional with IExCor=  205 and IRadAn=       1 diagonalized for initial guess.
 HarFok:  IExCor=  205 AccDes= 0.00D+00 IRadAn=         1 IDoV= 1 UseB2=F ITyADJ=14
 ICtDFT=  3500011 ScaDFX=  1.000000  1.000000  1.000000  1.000000
 FoFCou: FMM=F IPFlag=           0 FMFlag=      100000 FMFlg1=           0
         NFxFlg=           0 DoJE=T BraDBF=F KetDBF=T FulRan=T
         wScrn=  0.000000 ICntrl=     500 IOpCl=  0 I1Cent=   200000004 NGrid=           0
         NMat0=    1 NMatS0=      1 NMatT0=    0 NMatD0=    1 NMtDS0=    0 NMtDT0=    0
 Petite list used in FoFCou.
 Keep R1 ints in memory in canonical form, NReq=4344741.
 Requested convergence on RMS density matrix=1.00D-08 within 128 cycles.
 Requested convergence on MAX density matrix=1.00D-06.
 Requested convergence on             energy=1.00D-06.
 No special actions if energy rises.
 SCF Done:  E(RHF) =  -228.923211536     A.U. after   12 cycles
            NFock= 12  Conv=0.46D-08     -V/T= 2.0027

 **********************************************************************

            Population analysis using the SCF density.

 **********************************************************************

 Orbital symmetries:
       Occupied  (A) (A) (A) (A) (A) (A) (A) (A) (A) (A) (A) (A)
                 (A) (A) (A) (A) (A)
       Virtual   (A) (A) (A) (A) (A) (A) (A) (A) (A) (A) (A) (A)
                 (A) (A) (A) (A) (A) (A) (A) (A) (A) (A) (A) (A)
                 (A) (A) (A) (A) (A) (A) (A) (A) (A) (A) (A) (A)
                 (A) (A) (A) (A) (A) (A) (A) (A) (A) (A) (A) (A)
                 (A) (A) (A) (A) (A) (A) (A)
 The electronic state is 1-A.
 Alpha  occ. eigenvalues --  -20.57653 -20.55137 -11.28480 -11.27402  -1.37406
 Alpha  occ. eigenvalues --   -1.33978  -0.99818  -0.83599  -0.72262  -0.66478
 Alpha  occ. eigenvalues --   -0.64725  -0.59913  -0.56612  -0.53121  -0.49174
 Alpha  occ. eigenvalues --   -0.45787  -0.43310
 Alpha virt. eigenvalues --    0.20862   0.26347   0.27591   0.30838   0.31238
 Alpha virt. eigenvalues --    0.33333   0.38351   0.41243   0.41474   0.75244
 Alpha virt. eigenvalues --    0.79575   0.80197   0.81067   0.90737   0.90865
 Alpha virt. eigenvalues --    1.06260   1.08648   1.10362   1.12468   1.14649
 Alpha virt. eigenvalues --    1.17780   1.19397   1.22176   1.27453   1.28459
 Alpha virt. eigenvalues --    1.32067   1.42327   1.52188   1.55453   1.68171
 Alpha virt. eigenvalues --    1.70244   1.85049   1.88031   1.98028   2.00984
 Alpha virt. eigenvalues --    2.05945   2.16127   2.24667   2.33658   2.39989
 Alpha virt. eigenvalues --    2.45169   2.45816   2.63987   2.67042   2.71970
 Alpha virt. eigenvalues --    2.75572   2.83138   2.87245   3.00732   3.16623
 Alpha virt. eigenvalues --    3.22285   4.11832   4.20631   4.63689   4.84644
          Condensed to atoms (all electrons):
               1          2          3          4          5          6
     1  C    4.869029   0.200712   0.355401  -0.044598   0.389871   0.384360
     2  O    0.200712   8.414735  -0.059712  -0.002071  -0.037063  -0.036432
     3  C    0.355401  -0.059712   4.784325   0.223844  -0.036631  -0.042135
     4  O   -0.044598  -0.002071   0.223844   8.383188   0.000450   0.003141
     5  H    0.389871  -0.037063  -0.036631   0.000450   0.568474  -0.039667
     6  H    0.384360  -0.036432  -0.042135   0.003141  -0.039667   0.582255
     7  H   -0.021764   0.259611   0.005564  -0.000030  -0.005151  -0.001314
     8  H   -0.042418   0.002731   0.400850  -0.035229  -0.002537   0.001313
     9  H   -0.048236  -0.000527   0.391957  -0.038748   0.005221  -0.000979
    10  H   -0.012413   0.016275  -0.032105   0.259932  -0.000096   0.000518
               7          8          9         10
     1  C   -0.021764  -0.042418  -0.048236  -0.012413
     2  O    0.259611   0.002731  -0.000527   0.016275
     3  C    0.005564   0.400850   0.391957  -0.032105
     4  O   -0.000030  -0.035229  -0.038748   0.259932
     5  H   -0.005151  -0.002537   0.005221  -0.000096
     6  H   -0.001314   0.001313  -0.000979   0.000518
     7  H    0.317149  -0.000158  -0.000242  -0.000616
     8  H   -0.000158   0.539732  -0.035329   0.005416
     9  H   -0.000242  -0.035329   0.574270  -0.001688
    10  H   -0.000616   0.005416  -0.001688   0.308285
 Mulliken charges:
               1
     1  C   -0.029943
     2  O   -0.758259
     3  C    0.008641
     4  O   -0.749880
     5  H    0.157129
     6  H    0.148940
     7  H    0.446950
     8  H    0.165629
     9  H    0.154302
    10  H    0.456491
 Sum of Mulliken charges =   0.00000
 Mulliken charges with hydrogens summed into heavy atoms:
               1
     1  C    0.276126
     2  O   -0.311309
     3  C    0.328572
     4  O   -0.293388
 Electronic spatial extent (au):  <R**2>=            296.5565
 Charge=              0.0000 electrons
 Dipole moment (field-independent basis, Debye):
    X=              2.5677    Y=              1.1004    Z=             -0.6368  Tot=              2.8652
 Quadrupole moment (field-independent basis, Debye-Ang):
   XX=            -25.5456   YY=            -22.4757   ZZ=            -25.3164
   XY=             -1.5961   XZ=             -3.4549   YZ=              0.3956
 Traceless Quadrupole moment (field-independent basis, Debye-Ang):
   XX=             -1.0997   YY=              1.9702   ZZ=             -0.8705
   XY=             -1.5961   XZ=             -3.4549   YZ=              0.3956
 Octapole moment (field-independent basis, Debye-Ang**2):
  XXX=             21.4723  YYY=             -7.8155  ZZZ=             -0.3461  XYY=             -0.4619
  XXY=             -0.8652  XXZ=             -3.2884  XZZ=              0.6884  YZZ=             -1.0322
  YYZ=             -0.4902  XYZ=              2.2953
 Hexadecapole moment (field-independent basis, Debye-Ang**3):
 XXXX=           -193.0855 YYYY=            -86.6805 ZZZZ=            -44.6432 XXXY=            -17.4731
 XXXZ=             -8.8578 YYYX=              1.5579 YYYZ=              0.3806 ZZZX=             -0.9375
 ZZZY=              0.1736 XXYY=            -47.0536 XXZZ=            -44.2461 YYZZ=            -23.9211
 XXYZ=              2.1375 YYXZ=             -0.1248 ZZXY=             -0.6063
 N-N= 1.334367965253D+02 E-N=-8.063367343369D+02  KE= 2.283137976040D+02
 Calling FoFJK, ICntrl=      2127 FMM=F ISym2X=0 I1Cent= 0 IOpClX= 0 NMat=1 NMatS=1 NMatT=0.
 ***** Axes restored to original set *****
 -------------------------------------------------------------------
 Center     Atomic                   Forces (Hartrees/Bohr)
 Number     Number              X              Y              Z
 -------------------------------------------------------------------
      1        6           0.002830509    0.000348596    0.003170858
      2        8          -0.007293571    0.025725167   -0.005992499
      3        6           0.001595359   -0.005174046   -0.004598606
      4        8          -0.008692524    0.007764087    0.026658985
      5        1          -0.003023204   -0.006631656    0.006643879
      6        1           0.010336531   -0.001530282    0.000824088
      7        1          -0.000413356   -0.021666876   -0.006958730
      8        1           0.003627222   -0.000141338    0.007966243
      9        1           0.006321943    0.006949057   -0.005185733
     10        1          -0.005288908   -0.005642708   -0.022528484
 -------------------------------------------------------------------
 Cartesian Forces:  Max     0.026658985 RMS     0.010247581

 GradGradGradGradGradGradGradGradGradGradGradGradGradGradGradGradGradGrad
 Berny optimization.
 FormGI is forming the generalized inverse of G from B-inverse, IUseBI=4.
 Internal  Forces:  Max     0.023512296 RMS     0.007272140
 Search for a local minimum.
 Step number   1 out of a maximum of   48 on scan point     1 out of    37
 All quantities printed in internal units (Hartrees-Bohrs-Radians)
 Mixed Optimization -- RFO/linear search
 Second derivative matrix not updated -- first step.
 ITU=  0
     Eigenvalues ---    0.01297   0.01478   0.01970   0.05341   0.05960
     Eigenvalues ---    0.06016   0.10836   0.11481   0.13237   0.13767
     Eigenvalues ---    0.16000   0.16000   0.21965   0.22036   0.30275
     Eigenvalues ---    0.33393   0.33512   0.33702   0.34227   0.41012
     Eigenvalues ---    0.43040   0.52899   0.537671000.000001000.00000
     Eigenvalues --- 1000.000001000.000001000.000001000.000001000.00000
     Eigenvalues --- 1000.000001000.000001000.000001000.000001000.00000
     Eigenvalues --- 1000.000001000.000001000.00000
 RFO step:  Lambda=-4.86258292D-03 EMin= 1.29701872D-02
 Linear search not attempted -- first point.
 Iteration  1 RMS(Cart)=  0.02068376 RMS(Int)=  0.00044848
 Iteration  2 RMS(Cart)=  0.00047810 RMS(Int)=  0.00004647
 Iteration  3 RMS(Cart)=  0.00000037 RMS(Int)=  0.00004647
 Iteration  1 RMS(Cart)=  0.00000267 RMS(Int)=  0.00000268
 Iteration  2 RMS(Cart)=  0.00000168 RMS(Int)=  0.00000297
 Iteration  3 RMS(Cart)=  0.00000106 RMS(Int)=  0.00000341
 Iteration  4 RMS(Cart)=  0.00000066 RMS(Int)=  0.00000374
 Variable       Old X    -DE/DX   Delta X   Delta X   Delta X     New X
                                 (Linear)    (Quad)   (Total)
    R1        2.70201  -0.01522   0.00000  -0.03667  -0.03667   2.66534
    R2        2.87418  -0.00480   0.00000  -0.01559  -0.01559   2.85859
    R3        2.07836  -0.00971   0.00000  -0.02839  -0.02839   2.04997
    R4        2.08162  -0.01035   0.00000  -0.03045  -0.03045   2.05117
    R5        1.82944  -0.02266   0.00000  -0.04176  -0.04176   1.78767
    R6        2.67620  -0.01444   0.00000  -0.03318  -0.03318   2.64301
    R7        2.06949  -0.00875   0.00000  -0.02520  -0.02520   2.04429
    R8        2.08366  -0.01055   0.00000  -0.03114  -0.03114   2.05253
    R9        1.83748  -0.02351   0.00000  -0.04404  -0.04404   1.79344
    A1        1.85037   0.00309   0.00000   0.01281   0.01282   1.86319
    A2        1.93646  -0.00189   0.00000  -0.01258  -0.01271   1.92375
    A3        1.94438  -0.00202   0.00000  -0.01671  -0.01673   1.92765
    A4        1.90792   0.00078   0.00000   0.01162   0.01162   1.91954
    A5        1.92950  -0.00035   0.00000   0.00100   0.00103   1.93053
    A6        1.89502   0.00044   0.00000   0.00435   0.00421   1.89922
    A7        1.89479   0.00385   0.00000   0.02332   0.02332   1.91811
    A8        1.93777   0.00003   0.00000  -0.00133  -0.00132   1.93645
    A9        1.92082  -0.00009   0.00000   0.00237   0.00235   1.92317
   A10        1.90150   0.00143   0.00000   0.00985   0.00982   1.91132
   A11        1.87319   0.00002   0.00000   0.00004   0.00005   1.87323
   A12        1.94496  -0.00150   0.00000  -0.01563  -0.01563   1.92933
   A13        1.88480   0.00009   0.00000   0.00478   0.00472   1.88951
   A14        1.83200   0.00685   0.00000   0.04156   0.04156   1.87356
    D1        2.87906   0.00072   0.00000   0.01949   0.01947   2.89853
    D2        0.80940  -0.00104   0.00000   0.00472   0.00486   0.81426
    D3       -1.30413   0.00109   0.00000   0.01928   0.01915  -1.28498
    D4       -1.03696   0.00001   0.00000   0.00000  -0.00000  -1.03697
    D5       -3.10837   0.00002   0.00000  -0.00073  -0.00074  -3.10910
    D6        1.11137  -0.00089   0.00000  -0.01383  -0.01387   1.09750
    D7        1.05147  -0.00006   0.00000  -0.00149  -0.00146   1.05002
    D8       -1.01993  -0.00005   0.00000  -0.00222  -0.00219  -1.02212
    D9       -3.08338  -0.00096   0.00000  -0.01531  -0.01532  -3.09870
   D10        3.13657   0.00075   0.00000   0.01179   0.01181  -3.13480
   D11        1.06517   0.00077   0.00000   0.01105   0.01108   1.07625
   D12       -0.99828  -0.00014   0.00000  -0.00204  -0.00205  -1.00033
   D13        0.85758   0.00076   0.00000   0.02314   0.02315   0.88073
   D14        2.95747   0.00067   0.00000   0.02528   0.02528   2.98275
   D15       -1.26553  -0.00004   0.00000   0.02231   0.02230  -1.24323
         Item               Value     Threshold  Converged?
 Maximum Force            0.023512     0.000450     NO 
 RMS     Force            0.007370     0.000300     NO 
 Maximum Displacement     0.050473     0.001800     NO 
 RMS     Displacement     0.020670     0.001200     NO 
 Predicted change in Energy=-2.470675D-03
 GradGradGradGradGradGradGradGradGradGradGradGradGradGradGradGradGradGrad

                          Input orientation:                          
 ---------------------------------------------------------------------
 Center     Atomic      Atomic             Coordinates (Angstroms)
 Number     Number       Type             X           Y           Z
 ---------------------------------------------------------------------
      1          6           0        1.042135    2.155770    1.620876
      2          8           0        1.645108    2.093544    2.894410
      3          6           0        1.338421    0.841258    0.933461
      4          8           0        2.717195    0.638012    0.815907
      5          1           0        1.460316    2.976357    1.047690
      6          1           0       -0.028878    2.304693    1.715306
      7          1           0        1.674967    2.957281    3.279087
      8          1           0        0.926375    0.841807   -0.066783
      9          1           0        0.879566    0.029287    1.490127
     10          1           0        3.098096    0.778591    1.673719
 ---------------------------------------------------------------------
                    Distance matrix (angstroms):
                    1          2          3          4          5
     1  C    0.000000
     2  O    1.410439   0.000000
     3  C    1.512702   2.346828   0.000000
     4  O    2.399457   2.754655   1.398623   0.000000
     5  H    1.084795   2.055209   2.141624   2.664832   0.000000
     6  H    1.085432   2.058422   2.149984   3.335815   1.764807
     7  H    1.947449   0.945997   3.176913   3.540128   2.241779
     8  H    2.141984   3.294251   1.081790   2.006916   2.466464
     9  H    2.136693   2.611364   1.086151   2.049878   3.036156
    10  H    2.475155   2.308758   1.910070   0.949047   2.811479
                    6          7          8          9         10
     6  H    0.000000
     7  H    2.402992   0.000000
     8  H    2.495673   4.028705   0.000000
     9  H    2.460376   3.522242   1.756801   0.000000
    10  H    3.479754   3.057645   2.783831   2.348838   0.000000
 Stoichiometry    C2H6O2
 Framework group  C1[X(C2H6O2)]
 Deg. of freedom    24
 Full point group                 C1      NOp   1
 Largest Abelian subgroup         C1      NOp   1
 Largest concise Abelian subgroup C1      NOp   1
                         Standard orientation:                         
 ---------------------------------------------------------------------
 Center     Atomic      Atomic             Coordinates (Angstroms)
 Number     Number       Type             X           Y           Z
 ---------------------------------------------------------------------
      1          6           0        0.680552    0.600735   -0.258983
      2          8           0        1.314130   -0.566226    0.216535
      3          6           0       -0.739606    0.568582    0.261001
      4          8           0       -1.410700   -0.573561   -0.187654
      5          1           0        0.678007    0.610549   -1.343731
      6          1           0        1.198199    1.485504    0.097933
      7          1           0        2.126515   -0.703732   -0.248258
      8          1           0       -1.288938    1.427741   -0.100039
      9          1           0       -0.729296    0.602819    1.346563
     10          1           0       -0.857606   -1.320489    0.004378
 ---------------------------------------------------------------------
 Rotational constants (GHZ):     15.5957882      5.7665544      4.7299808
 Standard basis: 6-31G(d) (6D, 7F)
 There are    72 symmetry adapted cartesian basis functions of A   symmetry.
 There are    72 symmetry adapted basis functions of A   symmetry.
    72 basis functions,   136 primitive gaussians,    72 cartesian basis functions
    17 alpha electrons       17 beta electrons
       nuclear repulsion energy       134.7841391034 Hartrees.
 NAtoms=   10 NActive=   10 NUniq=   10 SFac= 1.00D+00 NAtFMM=   60 NAOKFM=F Big=F
 Integral buffers will be    131072 words long.
 Raffenetti 1 integral format.
 Two-electron integral symmetry is turned on.
 One-electron integrals computed using PRISM.
 NBasis=    72 RedAO= T EigKep=  4.99D-03  NBF=    72
 NBsUse=    72 1.00D-06 EigRej= -1.00D+00 NBFU=    72
 Initial guess from the checkpoint file:  "1-2-ethanediol-opt.chk"
 B after Tr=     0.000000    0.000000   -0.000000
         Rot=    0.999999    0.000306    0.000849    0.000455 Ang=   0.12 deg.
 ExpMin= 1.61D-01 ExpMax= 5.48D+03 ExpMxC= 8.25D+02 IAcc=1 IRadAn=         1 AccDes= 0.00D+00
 Harris functional with IExCor=  205 and IRadAn=       1 diagonalized for initial guess.
 HarFok:  IExCor=  205 AccDes= 0.00D+00 IRadAn=         1 IDoV= 1 UseB2=F ITyADJ=14
 ICtDFT=  3500011 ScaDFX=  1.000000  1.000000  1.000000  1.000000
 FoFCou: FMM=F IPFlag=           0 FMFlag=      100000 FMFlg1=           0
         NFxFlg=           0 DoJE=T BraDBF=F KetDBF=T FulRan=T
         wScrn=  0.000000 ICntrl=     500 IOpCl=  0 I1Cent=   200000004 NGrid=           0
         NMat0=    1 NMatS0=      1 NMatT0=    0 NMatD0=    1 NMtDS0=    0 NMtDT0=    0
 Petite list used in FoFCou.
 Keep R1 ints in memory in canonical form, NReq=4344811.
 Requested convergence on RMS density matrix=1.00D-08 within 128 cycles.
 Requested convergence on MAX density matrix=1.00D-06.
 Requested convergence on             energy=1.00D-06.
 No special actions if energy rises.
 SCF Done:  E(RHF) =  -228.925613259     A.U. after   10 cycles
            NFock= 10  Conv=0.88D-08     -V/T= 2.0015
 Calling FoFJK, ICntrl=      2127 FMM=F ISym2X=0 I1Cent= 0 IOpClX= 0 NMat=1 NMatS=1 NMatT=0.
 ***** Axes restored to original set *****
 -------------------------------------------------------------------
 Center     Atomic                   Forces (Hartrees/Bohr)
 Number     Number              X              Y              Z
 -------------------------------------------------------------------
      1        6           0.000495190    0.000151644    0.003615127
      2        8           0.000103238   -0.000344929   -0.001149676
      3        6           0.003142506   -0.000393412    0.000083484
      4        8          -0.000528813    0.000915455   -0.000454991
      5        1           0.000134265    0.000174344   -0.001752058
      6        1          -0.001609098    0.000200014   -0.000994186
      7        1          -0.000087859    0.000095610    0.000708291
      8        1          -0.000397104    0.000020430   -0.000592917
      9        1          -0.001423164   -0.000151762    0.000736805
     10        1           0.000170840   -0.000667394   -0.000199879
 -------------------------------------------------------------------
 Cartesian Forces:  Max     0.003615127 RMS     0.001110861

 GradGradGradGradGradGradGradGradGradGradGradGradGradGradGradGradGradGrad
 Berny optimization.
 Using GEDIIS/GDIIS optimizer.
 FormGI is forming the generalized inverse of G from B-inverse, IUseBI=4.
 Internal  Forces:  Max     0.001528674 RMS     0.000671005
 Search for a local minimum.
 Step number   2 out of a maximum of   48 on scan point     1 out of    37
 All quantities printed in internal units (Hartrees-Bohrs-Radians)
 Mixed Optimization -- En-DIIS/RFO-DIIS
 Update second derivatives using D2CorX and points    1    2
 DE= -2.40D-03 DEPred=-2.47D-03 R= 9.72D-01
 TightC=F SS=  1.41D+00  RLast= 1.27D-01 DXNew= 5.0454D-01 3.8248D-01
 Trust test= 9.72D-01 RLast= 1.27D-01 DXMaxT set to 3.82D-01
 ITU=  1  0
 Use linear search instead of GDIIS.
     Eigenvalues ---    0.01294   0.01468   0.01959   0.05331   0.05908
     Eigenvalues ---    0.05997   0.11119   0.11575   0.13321   0.13799
     Eigenvalues ---    0.15698   0.16017   0.21943   0.22122   0.30352
     Eigenvalues ---    0.33427   0.33626   0.34078   0.35390   0.40714
     Eigenvalues ---    0.42827   0.52496   0.539381000.000001000.00000
     Eigenvalues --- 1000.000001000.000001000.000001000.000001000.00000
     Eigenvalues --- 1000.000001000.000001000.000001000.000001000.00000
     Eigenvalues --- 1000.000001000.000001000.00000
 RFO step:  Lambda=-1.36360610D-04 EMin= 1.29373464D-02
 Quartic linear search produced a step of -0.02881.
 Iteration  1 RMS(Cart)=  0.00997397 RMS(Int)=  0.00010984
 Iteration  2 RMS(Cart)=  0.00009155 RMS(Int)=  0.00002118
 Iteration  3 RMS(Cart)=  0.00000001 RMS(Int)=  0.00002118
 Iteration  1 RMS(Cart)=  0.00000039 RMS(Int)=  0.00000040
 Variable       Old X    -DE/DX   Delta X   Delta X   Delta X     New X
                                 (Linear)    (Quad)   (Total)
    R1        2.66534  -0.00038   0.00106  -0.00298  -0.00193   2.66341
    R2        2.85859   0.00062   0.00045   0.00111   0.00155   2.86015
    R3        2.04997   0.00111   0.00082   0.00157   0.00239   2.05236
    R4        2.05117   0.00153   0.00088   0.00269   0.00357   2.05474
    R5        1.78767   0.00037   0.00120  -0.00168  -0.00048   1.78719
    R6        2.64301  -0.00033   0.00096  -0.00264  -0.00168   2.64134
    R7        2.04429   0.00070   0.00073   0.00054   0.00127   2.04556
    R8        2.05253   0.00109   0.00090   0.00140   0.00229   2.05482
    R9        1.79344  -0.00021   0.00127  -0.00287  -0.00161   1.79183
    A1        1.86319  -0.00041  -0.00037   0.00015  -0.00020   1.86299
    A2        1.92375   0.00100   0.00037   0.00748   0.00784   1.93159
    A3        1.92765   0.00078   0.00048   0.00894   0.00942   1.93707
    A4        1.91954  -0.00097  -0.00033  -0.00937  -0.00973   1.90981
    A5        1.93053  -0.00043  -0.00003  -0.00440  -0.00446   1.92607
    A6        1.89922   0.00003  -0.00012  -0.00274  -0.00295   1.89627
    A7        1.91811   0.00090  -0.00067   0.00681   0.00614   1.92425
    A8        1.93645   0.00119   0.00004   0.00629   0.00633   1.94278
    A9        1.92317  -0.00047  -0.00007  -0.00472  -0.00480   1.91837
   A10        1.91132  -0.00103  -0.00028  -0.00536  -0.00568   1.90564
   A11        1.87323  -0.00048  -0.00000  -0.00200  -0.00199   1.87124
   A12        1.92933   0.00060   0.00045   0.00789   0.00835   1.93768
   A13        1.88951   0.00018  -0.00014  -0.00224  -0.00241   1.88711
   A14        1.87356   0.00065  -0.00120   0.00639   0.00519   1.87875
    D1        2.89853   0.00002  -0.00056   0.01410   0.01354   2.91206
    D2        0.81426   0.00089  -0.00014   0.02113   0.02101   0.83528
    D3       -1.28498  -0.00030  -0.00055   0.01394   0.01337  -1.27160
    D4       -1.03697  -0.00036   0.00000   0.00000   0.00000  -1.03697
    D5       -3.10910  -0.00022   0.00002   0.00154   0.00157  -3.10753
    D6        1.09750   0.00048   0.00040   0.01047   0.01085   1.10836
    D7        1.05002   0.00005   0.00004   0.00388   0.00391   1.05392
    D8       -1.02212   0.00020   0.00006   0.00543   0.00548  -1.01664
    D9       -3.09870   0.00089   0.00044   0.01435   0.01476  -3.08394
   D10       -3.13480  -0.00081  -0.00034  -0.00842  -0.00873   3.13965
   D11        1.07625  -0.00066  -0.00032  -0.00687  -0.00716   1.06909
   D12       -1.00033   0.00003   0.00006   0.00205   0.00212  -0.99821
   D13        0.88073   0.00036  -0.00067   0.02599   0.02534   0.90608
   D14        2.98275   0.00018  -0.00073   0.02266   0.02194   3.00469
   D15       -1.24323   0.00045  -0.00064   0.02314   0.02247  -1.22075
         Item               Value     Threshold  Converged?
 Maximum Force            0.001529     0.000450     NO 
 RMS     Force            0.000673     0.000300     NO 
 Maximum Displacement     0.039142     0.001800     NO 
 RMS     Displacement     0.009994     0.001200     NO 
 Predicted change in Energy=-6.971498D-05
 GradGradGradGradGradGradGradGradGradGradGradGradGradGradGradGradGradGrad

                          Input orientation:                          
 ---------------------------------------------------------------------
 Center     Atomic      Atomic             Coordinates (Angstroms)
 Number     Number       Type             X           Y           Z
 ---------------------------------------------------------------------
      1          6           0        1.041572    2.158088    1.623927
      2          8           0        1.648239    2.099807    2.894761
      3          6           0        1.342839    0.843860    0.936322
      4          8           0        2.719942    0.640062    0.810965
      5          1           0        1.454532    2.974722    1.039034
      6          1           0       -0.032674    2.301614    1.711448
      7          1           0        1.666697    2.959520    3.288436
      8          1           0        0.927153    0.846869   -0.063139
      9          1           0        0.877850    0.034180    1.493604
     10          1           0        3.107150    0.757878    1.668443
 ---------------------------------------------------------------------
                    Distance matrix (angstroms):
                    1          2          3          4          5
     1  C    0.000000
     2  O    1.409418   0.000000
     3  C    1.513525   2.346520   0.000000
     4  O    2.404628   2.760726   1.397734   0.000000
     5  H    1.086061   2.060757   2.136258   2.665318   0.000000
     6  H    1.087319   2.065532   2.148931   3.338940   1.765502
     7  H    1.950299   0.945742   3.180148   3.553460   2.259437
     8  H    2.139761   3.292262   1.082462   2.005223   2.453706
     9  H    2.134191   2.612193   1.087364   2.055819   3.030839
    10  H    2.495834   2.330891   1.912116   0.948197   2.835790
                    6          7          8          9         10
     6  H    0.000000
     7  H    2.409895   0.000000
     8  H    2.487309   4.030294   0.000000
     9  H    2.453114   3.521550   1.756799   0.000000
    10  H    3.499066   3.089743   2.785441   2.350337   0.000000
 Stoichiometry    C2H6O2
 Framework group  C1[X(C2H6O2)]
 Deg. of freedom    24
 Full point group                 C1      NOp   1
 Largest Abelian subgroup         C1      NOp   1
 Largest concise Abelian subgroup C1      NOp   1
                         Standard orientation:                         
 ---------------------------------------------------------------------
 Center     Atomic      Atomic             Coordinates (Angstroms)
 Number     Number       Type             X           Y           Z
 ---------------------------------------------------------------------
      1          6           0        0.684404    0.599711   -0.257039
      2          8           0        1.315469   -0.569944    0.212136
      3          6           0       -0.736943    0.566398    0.262019
      4          8           0       -1.415973   -0.569053   -0.188902
      5          1           0        0.672022    0.619476   -1.342849
      6          1           0        1.197078    1.489199    0.101068
      7          1           0        2.134525   -0.704346   -0.241198
      8          1           0       -1.281488    1.429616   -0.098604
      9          1           0       -0.721581    0.605864    1.348558
     10          1           0       -0.881289   -1.324488    0.017273
 ---------------------------------------------------------------------
 Rotational constants (GHZ):     15.6166136      5.7457612      4.7155878
 Standard basis: 6-31G(d) (6D, 7F)
 There are    72 symmetry adapted cartesian basis functions of A   symmetry.
 There are    72 symmetry adapted basis functions of A   symmetry.
    72 basis functions,   136 primitive gaussians,    72 cartesian basis functions
    17 alpha electrons       17 beta electrons
       nuclear repulsion energy       134.6927816933 Hartrees.
 NAtoms=   10 NActive=   10 NUniq=   10 SFac= 1.00D+00 NAtFMM=   60 NAOKFM=F Big=F
 Integral buffers will be    131072 words long.
 Raffenetti 1 integral format.
 Two-electron integral symmetry is turned on.
 One-electron integrals computed using PRISM.
 NBasis=    72 RedAO= T EigKep=  4.99D-03  NBF=    72
 NBsUse=    72 1.00D-06 EigRej= -1.00D+00 NBFU=    72
 Initial guess from the checkpoint file:  "1-2-ethanediol-opt.chk"
 B after Tr=    -0.000000   -0.000000   -0.000000
         Rot=    0.999999   -0.001042   -0.000473    0.001240 Ang=  -0.19 deg.
 ExpMin= 1.61D-01 ExpMax= 5.48D+03 ExpMxC= 8.25D+02 IAcc=1 IRadAn=         1 AccDes= 0.00D+00
 Harris functional with IExCor=  205 and IRadAn=       1 diagonalized for initial guess.
 HarFok:  IExCor=  205 AccDes= 0.00D+00 IRadAn=         1 IDoV= 1 UseB2=F ITyADJ=14
 ICtDFT=  3500011 ScaDFX=  1.000000  1.000000  1.000000  1.000000
 FoFCou: FMM=F IPFlag=           0 FMFlag=      100000 FMFlg1=           0
         NFxFlg=           0 DoJE=T BraDBF=F KetDBF=T FulRan=T
         wScrn=  0.000000 ICntrl=     500 IOpCl=  0 I1Cent=   200000004 NGrid=           0
         NMat0=    1 NMatS0=      1 NMatT0=    0 NMatD0=    1 NMtDS0=    0 NMtDT0=    0
 Petite list used in FoFCou.
 Keep R1 ints in memory in canonical form, NReq=4344826.
 Requested convergence on RMS density matrix=1.00D-08 within 128 cycles.
 Requested convergence on MAX density matrix=1.00D-06.
 Requested convergence on             energy=1.00D-06.
 No special actions if energy rises.
 SCF Done:  E(RHF) =  -228.925689026     A.U. after   10 cycles
            NFock= 10  Conv=0.27D-08     -V/T= 2.0015
 Calling FoFJK, ICntrl=      2127 FMM=F ISym2X=0 I1Cent= 0 IOpClX= 0 NMat=1 NMatS=1 NMatT=0.
 ***** Axes restored to original set *****
 -------------------------------------------------------------------
 Center     Atomic                   Forces (Hartrees/Bohr)
 Number     Number              X              Y              Z
 -------------------------------------------------------------------
      1        6           0.001114903    0.000156394    0.000912487
      2        8          -0.000432059   -0.000590939   -0.001233681
      3        6           0.000607690   -0.000431181    0.000094439
      4        8          -0.000937557    0.000485403   -0.000784315
      5        1           0.000162010    0.000412204   -0.000032777
      6        1          -0.000221827    0.000065170    0.000015847
      7        1          -0.000296093    0.000591457    0.000329259
      8        1          -0.000185633   -0.000150170   -0.000231595
      9        1           0.000024661   -0.000346756    0.000260885
     10        1           0.000163905   -0.000191583    0.000669452
 -------------------------------------------------------------------
 Cartesian Forces:  Max     0.001233681 RMS     0.000518330

 GradGradGradGradGradGradGradGradGradGradGradGradGradGradGradGradGradGrad
 Berny optimization.
 Using GEDIIS/GDIIS optimizer.
 FormGI is forming the generalized inverse of G from B-inverse, IUseBI=4.
 Internal  Forces:  Max     0.001128939 RMS     0.000331431
 Search for a local minimum.
 Step number   3 out of a maximum of   48 on scan point     1 out of    37
 All quantities printed in internal units (Hartrees-Bohrs-Radians)
 Mixed Optimization -- En-DIIS/RFO-DIIS
 Swapping is turned off.
 Update second derivatives using D2CorX and points    1    2    3
 DE= -7.58D-05 DEPred=-6.97D-05 R= 1.09D+00
 TightC=F SS=  1.41D+00  RLast= 5.91D-02 DXNew= 6.4326D-01 1.7743D-01
 Trust test= 1.09D+00 RLast= 5.91D-02 DXMaxT set to 3.82D-01
 ITU=  1  1  0
     Eigenvalues ---    0.00995   0.01389   0.01970   0.05436   0.05958
     Eigenvalues ---    0.06226   0.11286   0.11956   0.13634   0.14171
     Eigenvalues ---    0.15979   0.16242   0.21901   0.22901   0.30228
     Eigenvalues ---    0.33378   0.33499   0.33683   0.34286   0.41296
     Eigenvalues ---    0.42874   0.53313   0.550161000.000001000.00000
     Eigenvalues --- 1000.000001000.000001000.000001000.000001000.00000
     Eigenvalues --- 1000.000001000.000001000.000001000.000001000.00000
     Eigenvalues --- 1000.000001000.000001000.00000
 En-DIIS/RFO-DIIS IScMMF=        0 using points:     3    2
 RFO step:  Lambda=-7.95947906D-06.
 DidBck=F Rises=F RFO-DIIS coefs:    1.09229   -0.09229
 Iteration  1 RMS(Cart)=  0.00622260 RMS(Int)=  0.00005765
 Iteration  2 RMS(Cart)=  0.00004991 RMS(Int)=  0.00000211
 Iteration  3 RMS(Cart)=  0.00000000 RMS(Int)=  0.00000211
 Iteration  1 RMS(Cart)=  0.00000032 RMS(Int)=  0.00000032
 Variable       Old X    -DE/DX   Delta X   Delta X   Delta X     New X
                                 (Linear)    (Quad)   (Total)
    R1        2.66341  -0.00113  -0.00018  -0.00347  -0.00364   2.65977
    R2        2.86015   0.00048   0.00014   0.00182   0.00196   2.86211
    R3        2.05236   0.00039   0.00022   0.00135   0.00157   2.05393
    R4        2.05474   0.00023   0.00033   0.00096   0.00129   2.05602
    R5        1.78719   0.00067  -0.00004   0.00104   0.00100   1.78819
    R6        2.64134  -0.00079  -0.00016  -0.00242  -0.00258   2.63876
    R7        2.04556   0.00028   0.00012   0.00089   0.00101   2.04657
    R8        2.05482   0.00038   0.00021   0.00131   0.00152   2.05634
    R9        1.79183   0.00065  -0.00015   0.00088   0.00073   1.79256
    A1        1.86299   0.00018  -0.00002   0.00100   0.00098   1.86397
    A2        1.93159  -0.00008   0.00072  -0.00042   0.00030   1.93189
    A3        1.93707  -0.00016   0.00087   0.00013   0.00100   1.93808
    A4        1.90981   0.00030  -0.00090   0.00184   0.00094   1.91076
    A5        1.92607  -0.00019  -0.00041  -0.00178  -0.00219   1.92388
    A6        1.89627  -0.00003  -0.00027  -0.00073  -0.00101   1.89526
    A7        1.92425  -0.00016   0.00057  -0.00028   0.00029   1.92454
    A8        1.94278  -0.00017   0.00058  -0.00022   0.00037   1.94315
    A9        1.91837   0.00004  -0.00044   0.00058   0.00014   1.91851
   A10        1.90564   0.00019  -0.00052   0.00017  -0.00035   1.90529
   A11        1.87124  -0.00001  -0.00018   0.00109   0.00091   1.87215
   A12        1.93768  -0.00001   0.00077  -0.00138  -0.00061   1.93707
   A13        1.88711  -0.00005  -0.00022  -0.00023  -0.00045   1.88666
   A14        1.87875  -0.00013   0.00048   0.00000   0.00048   1.87923
    D1        2.91206   0.00038   0.00125   0.01744   0.01868   2.93075
    D2        0.83528  -0.00004   0.00194   0.01485   0.01680   0.85208
    D3       -1.27160   0.00017   0.00123   0.01597   0.01721  -1.25440
    D4       -1.03697  -0.00025   0.00000   0.00000   0.00000  -1.03697
    D5       -3.10753  -0.00017   0.00015  -0.00159  -0.00144  -3.10897
    D6        1.10836  -0.00024   0.00100  -0.00177  -0.00077   1.10759
    D7        1.05392  -0.00008   0.00036   0.00108   0.00144   1.05537
    D8       -1.01664   0.00000   0.00051  -0.00051  -0.00000  -1.01664
    D9       -3.08394  -0.00008   0.00136  -0.00068   0.00067  -3.08326
   D10        3.13965  -0.00005  -0.00081   0.00024  -0.00056   3.13909
   D11        1.06909   0.00003  -0.00066  -0.00135  -0.00201   1.06708
   D12       -0.99821  -0.00004   0.00020  -0.00153  -0.00133  -0.99954
   D13        0.90608   0.00023   0.00234   0.01450   0.01684   0.92292
   D14        3.00469   0.00017   0.00202   0.01578   0.01780   3.02249
   D15       -1.22075   0.00010   0.00207   0.01539   0.01747  -1.20329
         Item               Value     Threshold  Converged?
 Maximum Force            0.001129     0.000450     NO 
 RMS     Force            0.000329     0.000300     NO 
 Maximum Displacement     0.024423     0.001800     NO 
 RMS     Displacement     0.006222     0.001200     NO 
 Predicted change in Energy=-1.435393D-05
 GradGradGradGradGradGradGradGradGradGradGradGradGradGradGradGradGradGrad

                          Input orientation:                          
 ---------------------------------------------------------------------
 Center     Atomic      Atomic             Coordinates (Angstroms)
 Number     Number       Type             X           Y           Z
 ---------------------------------------------------------------------
      1          6           0        1.043804    2.159940    1.624416
      2          8           0        1.652179    2.103848    2.892392
      3          6           0        1.344536    0.844770    0.936094
      4          8           0        2.720045    0.641586    0.807483
      5          1           0        1.453548    2.978041    1.037766
      6          1           0       -0.031375    2.301052    1.712864
      7          1           0        1.655896    2.961399    3.292414
      8          1           0        0.925105    0.846455   -0.062384
      9          1           0        0.881561    0.034555    1.495843
     10          1           0        3.108000    0.744954    1.666912
 ---------------------------------------------------------------------
                    Distance matrix (angstroms):
                    1          2          3          4          5
     1  C    0.000000
     2  O    1.407490   0.000000
     3  C    1.514563   2.346705   0.000000
     4  O    2.404696   2.761411   1.396370   0.000000
     5  H    1.086894   2.059928   2.138473   2.667596   0.000000
     6  H    1.088001   2.065074   2.148781   3.338241   1.766089
     7  H    1.949156   0.946270   3.182658   3.562138   2.263771
     8  H    2.141174   3.292472   1.082997   2.005106   2.456266
     9  H    2.135442   2.612694   1.088170   2.054836   3.033334
    10  H    2.502978   2.338335   1.911508   0.948584   2.849511
                    6          7          8          9         10
     6  H    0.000000
     7  H    2.403731   0.000000
     8  H    2.486406   4.032582   0.000000
     9  H    2.453071   3.520466   1.757598   0.000000
    10  H    3.504173   3.108616   2.786718   2.343280   0.000000
 Stoichiometry    C2H6O2
 Framework group  C1[X(C2H6O2)]
 Deg. of freedom    24
 Full point group                 C1      NOp   1
 Largest Abelian subgroup         C1      NOp   1
 Largest concise Abelian subgroup C1      NOp   1
                         Standard orientation:                         
 ---------------------------------------------------------------------
 Center     Atomic      Atomic             Coordinates (Angstroms)
 Number     Number       Type             X           Y           Z
 ---------------------------------------------------------------------
      1          6           0        0.685581    0.598309   -0.256134
      2          8           0        1.315315   -0.571097    0.209648
      3          6           0       -0.737100    0.565495    0.262328
      4          8           0       -1.416910   -0.566947   -0.190752
      5          1           0        0.674887    0.621928   -1.342719
      6          1           0        1.197230    1.487947    0.105120
      7          1           0        2.142642   -0.696147   -0.232301
      8          1           0       -1.280405    1.431247   -0.095690
      9          1           0       -0.721944    0.601864    1.349784
     10          1           0       -0.890535   -1.325314    0.027468
 ---------------------------------------------------------------------
 Rotational constants (GHZ):     15.6500349      5.7391132      4.7133621
 Standard basis: 6-31G(d) (6D, 7F)
 There are    72 symmetry adapted cartesian basis functions of A   symmetry.
 There are    72 symmetry adapted basis functions of A   symmetry.
    72 basis functions,   136 primitive gaussians,    72 cartesian basis functions
    17 alpha electrons       17 beta electrons
       nuclear repulsion energy       134.6943992858 Hartrees.
 NAtoms=   10 NActive=   10 NUniq=   10 SFac= 1.00D+00 NAtFMM=   60 NAOKFM=F Big=F
 Integral buffers will be    131072 words long.
 Raffenetti 1 integral format.
 Two-electron integral symmetry is turned on.
 One-electron integrals computed using PRISM.
 NBasis=    72 RedAO= T EigKep=  4.99D-03  NBF=    72
 NBsUse=    72 1.00D-06 EigRej= -1.00D+00 NBFU=    72
 Initial guess from the checkpoint file:  "1-2-ethanediol-opt.chk"
 B after Tr=    -0.000000    0.000000   -0.000000
         Rot=    1.000000   -0.000708    0.000147    0.000300 Ang=  -0.09 deg.
 ExpMin= 1.61D-01 ExpMax= 5.48D+03 ExpMxC= 8.25D+02 IAcc=1 IRadAn=         1 AccDes= 0.00D+00
 Harris functional with IExCor=  205 and IRadAn=       1 diagonalized for initial guess.
 HarFok:  IExCor=  205 AccDes= 0.00D+00 IRadAn=         1 IDoV= 1 UseB2=F ITyADJ=14
 ICtDFT=  3500011 ScaDFX=  1.000000  1.000000  1.000000  1.000000
 FoFCou: FMM=F IPFlag=           0 FMFlag=      100000 FMFlg1=           0
         NFxFlg=           0 DoJE=T BraDBF=F KetDBF=T FulRan=T
         wScrn=  0.000000 ICntrl=     500 IOpCl=  0 I1Cent=   200000004 NGrid=           0
         NMat0=    1 NMatS0=      1 NMatT0=    0 NMatD0=    1 NMtDS0=    0 NMtDT0=    0
 Petite list used in FoFCou.
 Keep R1 ints in memory in canonical form, NReq=4344811.
 Requested convergence on RMS density matrix=1.00D-08 within 128 cycles.
 Requested convergence on MAX density matrix=1.00D-06.
 Requested convergence on             energy=1.00D-06.
 No special actions if energy rises.
 SCF Done:  E(RHF) =  -228.925706567     A.U. after   10 cycles
            NFock= 10  Conv=0.23D-08     -V/T= 2.0015
 Calling FoFJK, ICntrl=      2127 FMM=F ISym2X=0 I1Cent= 0 IOpClX= 0 NMat=1 NMatS=1 NMatT=0.
 ***** Axes restored to original set *****
 -------------------------------------------------------------------
 Center     Atomic                   Forces (Hartrees/Bohr)
 Number     Number              X              Y              Z
 -------------------------------------------------------------------
      1        6           0.000269960    0.000219992   -0.000590407
      2        8          -0.000028891   -0.000237223    0.000087254
      3        6          -0.000529715   -0.000216923    0.000496825
      4        8           0.000213706    0.000239962   -0.000488112
      5        1           0.000018036   -0.000094108    0.000132069
      6        1           0.000122846    0.000076929    0.000049335
      7        1          -0.000213785    0.000034912    0.000050667
      8        1           0.000032258   -0.000074777    0.000109328
      9        1           0.000076447    0.000104693   -0.000006827
     10        1           0.000039136   -0.000053457    0.000159869
 -------------------------------------------------------------------
 Cartesian Forces:  Max     0.000590407 RMS     0.000232057

 GradGradGradGradGradGradGradGradGradGradGradGradGradGradGradGradGradGrad
 Berny optimization.
 Using GEDIIS/GDIIS optimizer.
 FormGI is forming the generalized inverse of G from B-inverse, IUseBI=4.
 Internal  Forces:  Max     0.000334648 RMS     0.000125042
 Search for a local minimum.
 Step number   4 out of a maximum of   48 on scan point     1 out of    37
 All quantities printed in internal units (Hartrees-Bohrs-Radians)
 Mixed Optimization -- En-DIIS/RFO-DIIS
 Swapping is turned off.
 Update second derivatives using D2CorX and points    1    2    3    4
 DE= -1.75D-05 DEPred=-1.44D-05 R= 1.22D+00
 TightC=F SS=  1.41D+00  RLast= 4.35D-02 DXNew= 6.4326D-01 1.3035D-01
 Trust test= 1.22D+00 RLast= 4.35D-02 DXMaxT set to 3.82D-01
 ITU=  1  1  1  0
     Eigenvalues ---    0.00604   0.01453   0.01969   0.05421   0.05973
     Eigenvalues ---    0.06370   0.11357   0.12141   0.13602   0.14188
     Eigenvalues ---    0.15982   0.16451   0.22148   0.23004   0.30755
     Eigenvalues ---    0.33464   0.33659   0.34079   0.36822   0.41350
     Eigenvalues ---    0.45793   0.53247   0.553031000.000001000.00000
     Eigenvalues --- 1000.000001000.000001000.000001000.000001000.00000
     Eigenvalues --- 1000.000001000.000001000.000001000.000001000.00000
     Eigenvalues --- 1000.000001000.000001000.00000
 En-DIIS/RFO-DIIS IScMMF=        0 using points:     4    3    2
 RFO step:  Lambda=-9.51573450D-07.
 DidBck=F Rises=F RFO-DIIS coefs:    1.27822   -0.26074   -0.01747
 Iteration  1 RMS(Cart)=  0.00390038 RMS(Int)=  0.00003005
 Iteration  2 RMS(Cart)=  0.00002768 RMS(Int)=  0.00000046
 Iteration  3 RMS(Cart)=  0.00000000 RMS(Int)=  0.00000046
 Iteration  1 RMS(Cart)=  0.00000023 RMS(Int)=  0.00000023
 Variable       Old X    -DE/DX   Delta X   Delta X   Delta X     New X
                                 (Linear)    (Quad)   (Total)
    R1        2.65977   0.00003  -0.00105   0.00026  -0.00079   2.65899
    R2        2.86211  -0.00016   0.00057  -0.00076  -0.00019   2.86192
    R3        2.05393  -0.00014   0.00048  -0.00055  -0.00007   2.05387
    R4        2.05602  -0.00011   0.00042  -0.00034   0.00008   2.05610
    R5        1.78819   0.00005   0.00027  -0.00008   0.00019   1.78838
    R6        2.63876   0.00025  -0.00075   0.00083   0.00008   2.63884
    R7        2.04657  -0.00011   0.00030  -0.00047  -0.00017   2.04640
    R8        2.05634  -0.00011   0.00046  -0.00048  -0.00001   2.05633
    R9        1.79256   0.00016   0.00018   0.00011   0.00029   1.79285
    A1        1.86397  -0.00010   0.00027  -0.00075  -0.00049   1.86348
    A2        1.93189   0.00011   0.00022  -0.00026  -0.00004   1.93184
    A3        1.93808  -0.00015   0.00044   0.00001   0.00046   1.93853
    A4        1.91076   0.00012   0.00009   0.00020   0.00029   1.91105
    A5        1.92388   0.00004  -0.00069   0.00068  -0.00001   1.92387
    A6        1.89526  -0.00002  -0.00033   0.00013  -0.00020   1.89505
    A7        1.92454  -0.00013   0.00019  -0.00056  -0.00037   1.92417
    A8        1.94315  -0.00011   0.00021  -0.00027  -0.00006   1.94309
    A9        1.91851   0.00005  -0.00004   0.00067   0.00062   1.91914
   A10        1.90529   0.00002  -0.00020  -0.00078  -0.00098   1.90430
   A11        1.87215  -0.00011   0.00022   0.00028   0.00050   1.87265
   A12        1.93707   0.00016  -0.00002   0.00017   0.00014   1.93722
   A13        1.88666  -0.00001  -0.00017  -0.00002  -0.00019   1.88647
   A14        1.87923  -0.00003   0.00022   0.00014   0.00037   1.87960
    D1        2.93075   0.00020   0.00543   0.01010   0.01553   2.94628
    D2        0.85208   0.00004   0.00504   0.01046   0.01550   0.86757
    D3       -1.25440   0.00010   0.00502   0.01046   0.01548  -1.23892
    D4       -1.03697  -0.00033   0.00000   0.00000   0.00000  -1.03696
    D5       -3.10897  -0.00017  -0.00037  -0.00061  -0.00098  -3.10996
    D6        1.10759  -0.00019  -0.00002  -0.00051  -0.00053   1.10705
    D7        1.05537  -0.00019   0.00047  -0.00064  -0.00017   1.05519
    D8       -1.01664  -0.00002   0.00010  -0.00125  -0.00116  -1.01780
    D9       -3.08326  -0.00005   0.00045  -0.00115  -0.00071  -3.08397
   D10        3.13909  -0.00012  -0.00031   0.00006  -0.00025   3.13884
   D11        1.06708   0.00005  -0.00068  -0.00055  -0.00123   1.06585
   D12       -0.99954   0.00002  -0.00033  -0.00045  -0.00079  -1.00033
   D13        0.92292   0.00009   0.00513   0.00283   0.00796   0.93088
   D14        3.02249   0.00002   0.00534   0.00367   0.00900   3.03150
   D15       -1.20329   0.00002   0.00525   0.00390   0.00916  -1.19413
         Item               Value     Threshold  Converged?
 Maximum Force            0.000252     0.000450     YES
 RMS     Force            0.000089     0.000300     YES
 Maximum Displacement     0.015623     0.001800     NO 
 RMS     Displacement     0.003900     0.001200     NO 
 Predicted change in Energy=-3.463890D-06
 GradGradGradGradGradGradGradGradGradGradGradGradGradGradGradGradGradGrad

                          Input orientation:                          
 ---------------------------------------------------------------------
 Center     Atomic      Atomic             Coordinates (Angstroms)
 Number     Number       Type             X           Y           Z
 ---------------------------------------------------------------------
      1          6           0        1.045145    2.160972    1.623867
      2          8           0        1.655579    2.105321    2.890410
      3          6           0        1.345001    0.845429    0.936099
      4          8           0        2.720396    0.642454    0.805504
      5          1           0        1.453853    2.978874    1.036282
      6          1           0       -0.029965    2.302079    1.713677
      7          1           0        1.647629    2.960496    3.295660
      8          1           0        0.923416    0.845289   -0.061376
      9          1           0        0.883130    0.036211    1.498183
     10          1           0        3.109117    0.739474    1.665494
 ---------------------------------------------------------------------
                    Distance matrix (angstroms):
                    1          2          3          4          5
     1  C    0.000000
     2  O    1.407074   0.000000
     3  C    1.514461   2.345873   0.000000
     4  O    2.404596   2.760553   1.396411   0.000000
     5  H    1.086859   2.059509   2.138568   2.667630   0.000000
     6  H    1.088043   2.065060   2.148718   3.338206   1.765965
     7  H    1.948619   0.946369   3.183178   3.567215   2.267747
     8  H    2.141468   3.291927   1.082908   2.005433   2.457316
     9  H    2.134632   2.610783   1.088163   2.054965   3.032877
    10  H    2.506466   2.340669   1.911896   0.948735   2.854946
                    6          7          8          9         10
     6  H    0.000000
     7  H    2.398021   0.000000
     8  H    2.486360   4.033395   0.000000
     9  H    2.452415   3.516649   1.757400   0.000000
    10  H    3.506835   3.118706   2.787573   2.340425   0.000000
 Stoichiometry    C2H6O2
 Framework group  C1[X(C2H6O2)]
 Deg. of freedom    24
 Full point group                 C1      NOp   1
 Largest Abelian subgroup         C1      NOp   1
 Largest concise Abelian subgroup C1      NOp   1
                         Standard orientation:                         
 ---------------------------------------------------------------------
 Center     Atomic      Atomic             Coordinates (Angstroms)
 Number     Number       Type             X           Y           Z
 ---------------------------------------------------------------------
      1          6           0        0.685989    0.597911   -0.256075
      2          8           0        1.314197   -0.572503    0.207978
      3          6           0       -0.736419    0.565514    0.262868
      4          8           0       -1.417275   -0.565794   -0.191601
      5          1           0        0.675204    0.622903   -1.342593
      6          1           0        1.198433    1.486789    0.106049
      7          1           0        2.147610   -0.690418   -0.224611
      8          1           0       -1.279387    1.432439   -0.092541
      9          1           0       -0.719719    0.599817    1.350361
     10          1           0       -0.894941   -1.325706    0.031557
 ---------------------------------------------------------------------
 Rotational constants (GHZ):     15.6566430      5.7400589      4.7141990
 Standard basis: 6-31G(d) (6D, 7F)
 There are    72 symmetry adapted cartesian basis functions of A   symmetry.
 There are    72 symmetry adapted basis functions of A   symmetry.
    72 basis functions,   136 primitive gaussians,    72 cartesian basis functions
    17 alpha electrons       17 beta electrons
       nuclear repulsion energy       134.7030635839 Hartrees.
 NAtoms=   10 NActive=   10 NUniq=   10 SFac= 1.00D+00 NAtFMM=   60 NAOKFM=F Big=F
 Integral buffers will be    131072 words long.
 Raffenetti 1 integral format.
 Two-electron integral symmetry is turned on.
 One-electron integrals computed using PRISM.
 NBasis=    72 RedAO= T EigKep=  4.99D-03  NBF=    72
 NBsUse=    72 1.00D-06 EigRej= -1.00D+00 NBFU=    72
 Initial guess from the checkpoint file:  "1-2-ethanediol-opt.chk"
 B after Tr=    -0.000000   -0.000000    0.000000
         Rot=    1.000000   -0.000420   -0.000010    0.000286 Ang=  -0.06 deg.
 Keep R1 ints in memory in canonical form, NReq=4344826.
 Requested convergence on RMS density matrix=1.00D-08 within 128 cycles.
 Requested convergence on MAX density matrix=1.00D-06.
 Requested convergence on             energy=1.00D-06.
 No special actions if energy rises.
 SCF Done:  E(RHF) =  -228.925711244     A.U. after    9 cycles
            NFock=  9  Conv=0.63D-08     -V/T= 2.0015
 Calling FoFJK, ICntrl=      2127 FMM=F ISym2X=0 I1Cent= 0 IOpClX= 0 NMat=1 NMatS=1 NMatT=0.
 ***** Axes restored to original set *****
 -------------------------------------------------------------------
 Center     Atomic                   Forces (Hartrees/Bohr)
 Number     Number              X              Y              Z
 -------------------------------------------------------------------
      1        6           0.000217288    0.000261278   -0.000814634
      2        8          -0.000078051   -0.000102692    0.000410697
      3        6          -0.000534756   -0.000249075    0.000674897
      4        8           0.000223606    0.000134911   -0.000396855
      5        1           0.000030826   -0.000058747    0.000090844
      6        1           0.000111578    0.000037083    0.000062196
      7        1          -0.000115885   -0.000059548    0.000025799
      8        1           0.000098492   -0.000026184    0.000034402
      9        1           0.000098838    0.000031998   -0.000051198
     10        1          -0.000051935    0.000030976   -0.000036149
 -------------------------------------------------------------------
 Cartesian Forces:  Max     0.000814634 RMS     0.000262776

 GradGradGradGradGradGradGradGradGradGradGradGradGradGradGradGradGradGrad
 Berny optimization.
 Using GEDIIS/GDIIS optimizer.
 FormGI is forming the generalized inverse of G from B-inverse, IUseBI=4.
 Internal  Forces:  Max     0.000399871 RMS     0.000131781
 Search for a local minimum.
 Step number   5 out of a maximum of   48 on scan point     1 out of    37
 All quantities printed in internal units (Hartrees-Bohrs-Radians)
 Mixed Optimization -- En-DIIS/RFO-DIIS
 Swapping is turned off.
 Update second derivatives using D2CorX and points    1    2    3    4    5
 DE= -4.68D-06 DEPred=-3.46D-06 R= 1.35D+00
 TightC=F SS=  1.41D+00  RLast= 3.10D-02 DXNew= 6.4326D-01 9.2850D-02
 Trust test= 1.35D+00 RLast= 3.10D-02 DXMaxT set to 3.82D-01
 ITU=  1  1  1  1  0
     Eigenvalues ---    0.00366   0.01565   0.01975   0.05471   0.05997
     Eigenvalues ---    0.06314   0.11307   0.12160   0.13584   0.14297
     Eigenvalues ---    0.16075   0.16173   0.22046   0.22944   0.30819
     Eigenvalues ---    0.33467   0.33717   0.34084   0.36158   0.42893
     Eigenvalues ---    0.46321   0.53478   0.586301000.000001000.00000
     Eigenvalues --- 1000.000001000.000001000.000001000.000001000.00000
     Eigenvalues --- 1000.000001000.000001000.000001000.000001000.00000
     Eigenvalues --- 1000.000001000.000001000.00000
 En-DIIS/RFO-DIIS IScMMF=        0 using points:     5    4    3    2
 RFO step:  Lambda=-5.84474361D-07.
 DidBck=F Rises=F RFO-DIIS coefs:    1.75321   -0.83506    0.04293    0.03891
 Iteration  1 RMS(Cart)=  0.00345593 RMS(Int)=  0.00002836
 Iteration  2 RMS(Cart)=  0.00002719 RMS(Int)=  0.00000094
 Iteration  3 RMS(Cart)=  0.00000000 RMS(Int)=  0.00000094
 Iteration  1 RMS(Cart)=  0.00000016 RMS(Int)=  0.00000016
 Variable       Old X    -DE/DX   Delta X   Delta X   Delta X     New X
                                 (Linear)    (Quad)   (Total)
    R1        2.65899   0.00032  -0.00022   0.00081   0.00059   2.65958
    R2        2.86192  -0.00007  -0.00037   0.00025  -0.00011   2.86181
    R3        2.05387  -0.00008  -0.00027   0.00016  -0.00011   2.05376
    R4        2.05610  -0.00010  -0.00018   0.00003  -0.00015   2.05595
    R5        1.78838  -0.00004   0.00008  -0.00003   0.00005   1.78843
    R6        2.63884   0.00019   0.00034   0.00005   0.00039   2.63922
    R7        2.04640  -0.00007  -0.00026   0.00007  -0.00019   2.04621
    R8        2.05633  -0.00009  -0.00022   0.00006  -0.00016   2.05617
    R9        1.79285  -0.00005   0.00022  -0.00025  -0.00004   1.79281
    A1        1.86348  -0.00001  -0.00044   0.00015  -0.00028   1.86320
    A2        1.93184   0.00012  -0.00036  -0.00017  -0.00053   1.93132
    A3        1.93853  -0.00020  -0.00011  -0.00010  -0.00020   1.93833
    A4        1.91105   0.00008   0.00052  -0.00000   0.00052   1.91157
    A5        1.92387   0.00002   0.00035  -0.00001   0.00033   1.92420
    A6        1.89505   0.00000   0.00004   0.00012   0.00017   1.89523
    A7        1.92417  -0.00002  -0.00054   0.00052  -0.00002   1.92415
    A8        1.94309  -0.00005  -0.00032   0.00006  -0.00026   1.94282
    A9        1.91914   0.00004   0.00065   0.00041   0.00106   1.92020
   A10        1.90430   0.00008  -0.00049   0.00061   0.00012   1.90443
   A11        1.87265  -0.00019   0.00038  -0.00109  -0.00071   1.87194
   A12        1.93722   0.00012  -0.00017  -0.00031  -0.00048   1.93674
   A13        1.88647  -0.00001  -0.00001   0.00030   0.00029   1.88676
   A14        1.87960  -0.00007   0.00004  -0.00042  -0.00039   1.87922
    D1        2.94628   0.00016   0.00964   0.00627   0.01591   2.96219
    D2        0.86757   0.00000   0.00948   0.00627   0.01575   0.88332
    D3       -1.23892   0.00005   0.00973   0.00629   0.01602  -1.22289
    D4       -1.03696  -0.00040   0.00000   0.00000   0.00000  -1.03696
    D5       -3.10996  -0.00015  -0.00068   0.00105   0.00036  -3.10959
    D6        1.10705  -0.00022  -0.00076   0.00007  -0.00069   1.10636
    D7        1.05519  -0.00022  -0.00040  -0.00011  -0.00051   1.05468
    D8       -1.01780   0.00002  -0.00108   0.00094  -0.00015  -1.01794
    D9       -3.08397  -0.00004  -0.00116  -0.00004  -0.00120  -3.08517
   D10        3.13884  -0.00016   0.00020   0.00003   0.00023   3.13907
   D11        1.06585   0.00008  -0.00049   0.00108   0.00059   1.06644
   D12       -1.00033   0.00002  -0.00056   0.00010  -0.00046  -1.00079
   D13        0.93088   0.00007   0.00363  -0.00060   0.00303   0.93391
   D14        3.03150  -0.00003   0.00447  -0.00075   0.00372   3.03522
   D15       -1.19413  -0.00009   0.00459  -0.00121   0.00338  -1.19075
         Item               Value     Threshold  Converged?
 Maximum Force            0.000315     0.000450     YES
 RMS     Force            0.000079     0.000300     YES
 Maximum Displacement     0.014726     0.001800     NO 
 RMS     Displacement     0.003454     0.001200     NO 
 Predicted change in Energy=-1.751706D-06
 GradGradGradGradGradGradGradGradGradGradGradGradGradGradGradGradGradGrad

                          Input orientation:                          
 ---------------------------------------------------------------------
 Center     Atomic      Atomic             Coordinates (Angstroms)
 Number     Number       Type             X           Y           Z
 ---------------------------------------------------------------------
      1          6           0        1.046551    2.161833    1.623069
      2          8           0        1.659167    2.106796    2.888935
      3          6           0        1.344810    0.845544    0.936163
      4          8           0        2.720187    0.642173    0.803816
      5          1           0        1.454929    2.979282    1.034733
      6          1           0       -0.028226    2.303667    1.714748
      7          1           0        1.639836    2.959295    3.299463
      8          1           0        0.922461    0.843677   -0.060876
      9          1           0        0.884144    0.036974    1.500001
     10          1           0        3.109442    0.737357    1.663747
 ---------------------------------------------------------------------
                    Distance matrix (angstroms):
                    1          2          3          4          5
     1  C    0.000000
     2  O    1.407389   0.000000
     3  C    1.514403   2.345825   0.000000
     4  O    2.404496   2.760182   1.396616   0.000000
     5  H    1.086800   2.059372   2.138850   2.667636   0.000000
     6  H    1.087964   2.065131   2.148847   3.338283   1.765962
     7  H    1.948904   0.946394   3.184363   3.572739   2.272353
     8  H    2.142103   3.292353   1.082806   2.005023   2.458595
     9  H    2.134607   2.610357   1.088077   2.054749   3.033059
    10  H    2.507251   2.340886   1.911808   0.948716   2.856450
                    6          7          8          9         10
     6  H    0.000000
     7  H    2.392404   0.000000
     8  H    2.487612   4.035138   0.000000
     9  H    2.452842   3.514128   1.757434   0.000000
    10  H    3.507262   3.126070   2.787206   2.338654   0.000000
 Stoichiometry    C2H6O2
 Framework group  C1[X(C2H6O2)]
 Deg. of freedom    24
 Full point group                 C1      NOp   1
 Largest Abelian subgroup         C1      NOp   1
 Largest concise Abelian subgroup C1      NOp   1
                         Standard orientation:                         
 ---------------------------------------------------------------------
 Center     Atomic      Atomic             Coordinates (Angstroms)
 Number     Number       Type             X           Y           Z
 ---------------------------------------------------------------------
      1          6           0        0.685877    0.597948   -0.256232
      2          8           0        1.313729   -0.573565    0.206482
      3          6           0       -0.736178    0.565524    0.263504
      4          8           0       -1.417523   -0.565319   -0.192018
      5          1           0        0.675026    0.623591   -1.342675
      6          1           0        1.199201    1.485964    0.106523
      7          1           0        2.153157   -0.684131   -0.216362
      8          1           0       -1.280029    1.432399   -0.090366
      9          1           0       -0.718930    0.597942    1.350961
     10          1           0       -0.896263   -1.325522    0.032575
 ---------------------------------------------------------------------
 Rotational constants (GHZ):     15.6592287      5.7394449      4.7137165
 Standard basis: 6-31G(d) (6D, 7F)
 There are    72 symmetry adapted cartesian basis functions of A   symmetry.
 There are    72 symmetry adapted basis functions of A   symmetry.
    72 basis functions,   136 primitive gaussians,    72 cartesian basis functions
    17 alpha electrons       17 beta electrons
       nuclear repulsion energy       134.6966522009 Hartrees.
 NAtoms=   10 NActive=   10 NUniq=   10 SFac= 1.00D+00 NAtFMM=   60 NAOKFM=F Big=F
 Integral buffers will be    131072 words long.
 Raffenetti 1 integral format.
 Two-electron integral symmetry is turned on.
 One-electron integrals computed using PRISM.
 NBasis=    72 RedAO= T EigKep=  4.99D-03  NBF=    72
 NBsUse=    72 1.00D-06 EigRej= -1.00D+00 NBFU=    72
 Initial guess from the checkpoint file:  "1-2-ethanediol-opt.chk"
 B after Tr=     0.000000   -0.000000   -0.000000
         Rot=    1.000000   -0.000345   -0.000007    0.000036 Ang=  -0.04 deg.
 Keep R1 ints in memory in canonical form, NReq=4344826.
 Requested convergence on RMS density matrix=1.00D-08 within 128 cycles.
 Requested convergence on MAX density matrix=1.00D-06.
 Requested convergence on             energy=1.00D-06.
 No special actions if energy rises.
 SCF Done:  E(RHF) =  -228.925713597     A.U. after    9 cycles
            NFock=  9  Conv=0.46D-08     -V/T= 2.0015
 Calling FoFJK, ICntrl=      2127 FMM=F ISym2X=0 I1Cent= 0 IOpClX= 0 NMat=1 NMatS=1 NMatT=0.
 ***** Axes restored to original set *****
 -------------------------------------------------------------------
 Center     Atomic                   Forces (Hartrees/Bohr)
 Number     Number              X              Y              Z
 -------------------------------------------------------------------
      1        6           0.000319646    0.000321137   -0.000544193
      2        8          -0.000256004   -0.000175930    0.000262326
      3        6          -0.000233207   -0.000317132    0.000655525
      4        8           0.000114649    0.000125068   -0.000327207
      5        1           0.000017152   -0.000052049    0.000020515
      6        1           0.000050180    0.000004019    0.000027366
      7        1          -0.000047969   -0.000049828   -0.000028596
      8        1          -0.000012132    0.000058162    0.000021646
      9        1           0.000015527    0.000025277   -0.000039753
     10        1           0.000032157    0.000061278   -0.000047627
 -------------------------------------------------------------------
 Cartesian Forces:  Max     0.000655525 RMS     0.000217033

 GradGradGradGradGradGradGradGradGradGradGradGradGradGradGradGradGradGrad
 Berny optimization.
 Using GEDIIS/GDIIS optimizer.
 FormGI is forming the generalized inverse of G from B-inverse, IUseBI=4.
 Internal  Forces:  Max     0.000412406 RMS     0.000118790
 Search for a local minimum.
 Step number   6 out of a maximum of   48 on scan point     1 out of    37
 All quantities printed in internal units (Hartrees-Bohrs-Radians)
 Mixed Optimization -- En-DIIS/RFO-DIIS
 Swapping is turned off.
 Update second derivatives using D2CorX and points    1    2    3    4    5
                                                      6
 DE= -2.35D-06 DEPred=-1.75D-06 R= 1.34D+00
 TightC=F SS=  1.41D+00  RLast= 2.83D-02 DXNew= 6.4326D-01 8.4802D-02
 Trust test= 1.34D+00 RLast= 2.83D-02 DXMaxT set to 3.82D-01
 ITU=  1  1  1  1  1  0
     Eigenvalues ---    0.00301   0.01484   0.01991   0.05490   0.06021
     Eigenvalues ---    0.06050   0.11342   0.12028   0.13775   0.14299
     Eigenvalues ---    0.16094   0.16476   0.22119   0.22994   0.31002
     Eigenvalues ---    0.33464   0.33614   0.34027   0.35469   0.42671
     Eigenvalues ---    0.44512   0.53559   0.583531000.000001000.00000
     Eigenvalues --- 1000.000001000.000001000.000001000.000001000.00000
     Eigenvalues --- 1000.000001000.000001000.000001000.000001000.00000
     Eigenvalues --- 1000.000001000.000001000.00000
 En-DIIS/RFO-DIIS IScMMF=        0 using points:     6    5    4    3    2
 RFO step:  Lambda=-2.09692851D-07.
 DidBck=F Rises=F RFO-DIIS coefs:    1.15740    0.08775   -0.38996    0.12886    0.01594
 Iteration  1 RMS(Cart)=  0.00140746 RMS(Int)=  0.00000370
 Iteration  2 RMS(Cart)=  0.00000345 RMS(Int)=  0.00000033
 Iteration  3 RMS(Cart)=  0.00000000 RMS(Int)=  0.00000033
 Iteration  1 RMS(Cart)=  0.00000013 RMS(Int)=  0.00000013
 Variable       Old X    -DE/DX   Delta X   Delta X   Delta X     New X
[...]
           A6         107.44549 107.45984 107.51681 107.60581 107.71586
           A7         109.80649 109.88900 109.97040 109.96894 109.94999
           A8         112.51497 112.12684 111.73988 111.45849 111.33815
           A9         107.85108 107.96605 108.34529 108.93626 109.63625
           A10        111.18651 111.09670 110.74734 110.09384 109.37089
           A11        111.07501 111.12420 111.29161 111.52491 111.69796
           A12        106.30336 106.68179 106.91497 107.02980 106.96625
           A13        107.83869 107.78262 107.73842 107.71513 107.70876
           A14        109.25116 109.29645 109.37067 109.52233 109.67903
           D1         172.64067 171.35322 171.47961 173.21564 176.17217
           D2          50.59326  49.39777  50.02193  52.57682  56.51098
           D3         -68.61834 -70.03104 -69.70155 -67.45637 -63.75116
           D4         140.58655 150.58655 160.58663 170.58652-179.41352
           D5          17.73644  27.84623  37.62510  47.10647  56.47433
           D6        -100.29717 -90.13803 -80.33502 -70.80157 -61.41623
           D7         -97.32556 -87.08484 -77.17525 -67.55814 -58.16470
           D8         139.82433 150.17483 159.86322 168.96181 177.72315
           D9          21.79072  32.19058  41.90311  51.05377  59.83260
           D10         20.64192  30.85295  40.72950  50.27936  59.69304
           D11       -102.20819 -91.88738 -82.23203 -73.20069 -64.41911
           D12        139.75820 150.12837 159.80786 168.89126 177.69033
           D13        -70.82382 -71.37158 -72.35901 -73.81588 -75.34861
           D14         50.19814  49.56283  48.91061  48.18014  47.58959
           D15        167.24802 166.79325 166.31660 165.75490 165.21360
                          26        27        28        29        30
     Eigenvalues --  -228.92140-228.92019-228.91848-228.91667-228.91518
           R1           1.40174   1.40243   1.40315   1.40378   1.40413
           R2           1.51858   1.52129   1.52521   1.52947   1.53289
           R3           1.08677   1.08662   1.08655   1.08654   1.08661
           R4           1.09001   1.08966   1.08927   1.08893   1.08870
           R5           0.94630   0.94633   0.94642   0.94652   0.94662
           R6           1.40276   1.40300   1.40329   1.40351   1.40366
           R7           1.08651   1.08640   1.08641   1.08651   1.08665
           R8           1.08100   1.08091   1.08065   1.08030   1.08000
           R9           0.94680   0.94678   0.94680   0.94679   0.94673
           A1         107.39829 107.48336 107.62393 107.83846 108.09686
           A2         111.39450 111.07841 110.79281 110.61930 110.60823
           A3         111.25002 111.28735 111.15249 110.88078 110.52975
           A4         108.55004 108.06944 107.83803 107.84468 108.08789
           A5         110.38543 110.95147 111.36225 111.52466 111.38378
           A6         107.84372 107.94216 108.03737 108.10266 108.11654
           A7         109.94512 109.88468 109.82525 109.76081 109.70508
           A8         111.46092 111.76587 112.18797 112.60579 112.95594
           A9         110.33027 110.89352 111.26645 111.39598 111.23227
           A10        108.59561 107.96720 107.53149 107.38523 107.53104
           A11        111.77516 111.71727 111.52160 111.19345 110.78498
           A12        106.77315 106.52139 106.27259 106.13538 106.17737
           A13        107.72020 107.72132 107.74949 107.79146 107.84620
           A14        109.87203 109.98105 110.06344 110.05983 109.97442
           D1         179.66307-177.69743-176.41447-176.58527-178.24985
           D2          60.92383  64.27378  65.91194  65.70260  63.59573
           D3         -59.43841 -56.02431 -54.22434 -54.22192 -56.11072
           D4        -169.41379-159.41384-149.41385-139.41387-129.41383
           D5          65.78449  75.21337  84.86235  94.87252 105.27529
           D6         -52.06353 -42.58139 -32.91388 -22.93846 -12.59861
           D7         -48.85813 -39.45417 -29.84229 -19.92616  -9.65970
           D8        -173.65985-164.82696-155.56609-145.63977-134.97058
           D9          68.49214  77.37828  86.65768  96.54925 107.15552
           D10         69.14425  78.70362  88.52598  98.61997 108.97302
           D11        -55.65747 -46.66917 -37.19781 -27.09364 -16.33785
           D12       -173.50549-164.46393-154.97405-144.90462-134.21175
           D13        -76.87753 -77.57789 -77.60591 -76.92134 -75.90910
           D14         47.11177  47.33854  47.97854  48.90186  49.64320
           D15        164.67465 164.71893 165.13935 165.85960 166.47816
                          31        32        33        34        35
     Eigenvalues --  -228.91438-228.91449-228.91540-228.91677-228.91810
           R1           1.40412   1.40369   1.40285   1.40162   1.40007
           R2           1.53415   1.53249   1.52837   1.52317   1.51862
           R3           1.08682   1.08724   1.08787   1.08870   1.08972
           R4           1.08862   1.08874   1.08900   1.08931   1.08960
           R5           0.94669   0.94671   0.94668   0.94661   0.94652
           R6           1.40358   1.40333   1.40273   1.40175   1.40034
           R7           1.08692   1.08738   1.08799   1.08866   1.08928
           R8           1.07980   1.07972   1.07984   1.08014   1.08059
           R9           0.94663   0.94651   0.94644   0.94649   0.94667
           A1         108.34742 108.57424 108.75355 108.86804 108.94191
           A2         110.75508 111.01486 111.28431 111.44721 111.42799
           A3         110.17645 109.91632 109.83503 109.98602 110.36531
           A4         108.49530 108.94321 109.31198 109.53992 109.59221
           A5         110.98809 110.42535 109.81846 109.28901 108.93760
           A6         108.07337 107.96429 107.82480 107.68261 107.53623
           A7         109.68420 109.71173 109.78655 109.87844 109.90367
           A8         113.23530 113.44357 113.55975 113.58937 113.59528
           A9         110.82981 110.29837 109.75349 109.29875 108.97189
           A10        107.85115 108.21662 108.53556 108.76303 108.87996
           A11        110.37972 110.06670 109.94809 110.06660 110.39459
           A12        106.37323 106.63954 106.86009 106.92424 106.79323
           A13        107.90292 107.95211 107.99252 108.02633 108.03917
           A14        109.83137 109.67110 109.55082 109.50329 109.56053
           D1         179.36524 176.84206 174.67534 173.37542 173.71164
           D2          60.47777  57.10877  54.20533  52.44419  52.67834
           D3         -59.04114 -62.27166 -65.11923 -66.90497 -66.72456
           D4        -119.41376-109.41354 -99.41346 -89.41341 -79.41341
           D5         115.91804 126.58989 137.07855 147.24721 157.06304
           D6          -1.99069   8.70488  19.26697  29.52170  39.44067
           D7           0.89245  11.60481  22.26713  32.68060  42.73660
           D8        -123.77575-112.39175-101.24085 -90.65878 -80.78696
           D9         118.31552 129.72323 140.94756 151.61571 161.59067
           D10        119.49307 130.01474 140.37086 150.43508 160.13991
           D11         -5.17513   6.01818  16.86287  27.09570  36.61635
           D12       -123.08387-111.86683-100.94871 -90.62981 -81.00601
           D13        -74.57496 -72.98237 -71.24953 -69.26377 -66.60969
           D14         50.33681  51.14016  52.15214  53.65473  56.13415
           D15        167.14089 167.99011 169.11179 170.75311 173.34689
                          36        37
     Eigenvalues --  -228.91892-228.91895
           R1           1.39866   1.39788
           R2           1.51613   1.51608
           R3           1.09085   1.09171
           R4           1.08964   1.08937
           R5           0.94651   0.94652
           R6           1.39868   1.39713
           R7           1.08970   1.08988
           R8           1.08106   1.08152
           R9           0.94694   0.94718
           A1         109.04018 109.17322
           A2         111.18452 110.76593
           A3         110.90235 111.45087
           A4         109.59467 109.55748
           A5         108.66441 108.54426
           A6         107.40719 107.29772
           A7         109.83747 109.71564
           A8         113.62273 113.70591
           A9         108.72026 108.51574
           A10        109.01090 109.17812
           A11        110.82184 111.23691
           A12        106.46990 106.06292
           A13        108.02635 107.96397
           A14        109.69118 109.88664
           D1         176.24536 179.93638
           D2          55.29874  59.21377
           D3         -64.13780 -60.16957
           D4         -69.41347 -59.41375
           D5         166.67882 176.23574
           D6          49.14023  58.79387
           D7          52.50015  62.04469
           D8         -71.40756 -62.30582
           D9         171.05385-179.74769
           D10        169.59234 178.91625
           D11         45.68463  54.56573
           D12        -71.85396 -62.87613
           D13        -62.40033 -55.66117
           D14         60.35874  67.20902
           D15        177.59596-175.64698
                          Input orientation:                          
 ---------------------------------------------------------------------
 Center     Atomic      Atomic             Coordinates (Angstroms)
 Number     Number       Type             X           Y           Z
 ---------------------------------------------------------------------
      1          6           0        1.571325    2.083921    2.012004
      2          8           0        0.496528    2.814523    1.497127
      3          6           0        1.988388    1.033003    1.001995
      4          8           0        0.971657    0.131578    0.676944
      5          1           0        1.295775    1.599551    2.950775
      6          1           0        2.427199    2.725716    2.217685
      7          1           0        0.229089    3.472759    2.122506
      8          1           0        2.867767    0.515090    1.384481
      9          1           0        2.264167    1.519558    0.076305
     10          1           0        0.641405   -0.279098    1.463979
 ---------------------------------------------------------------------
                    Distance matrix (angstroms):
                    1          2          3          4          5
     1  C    0.000000
     2  O    1.397879   0.000000
     3  C    1.516078   2.375840   0.000000
     4  O    2.440007   2.845460   1.397128   0.000000
     5  H    1.091711   2.056221   2.144396   2.725858   0.000000
     6  H    1.089369   2.062664   2.129727   3.349931   1.756641
     7  H    1.934600   0.946519   3.209843   3.715447   2.309276
     8  H    2.129737   3.304974   1.089879   2.059836   2.469917
     9  H    2.132010   2.611554   1.081523   1.989432   3.034264
    10  H    2.597873   3.097188   1.936337   0.947178   2.483562
                    6          7          8          9         10
     6  H    0.000000
     7  H    2.323536   0.000000
     8  H    2.403164   4.031762   0.000000
     9  H    2.463108   3.484749   1.756307   0.000000
    10  H    3.575757   3.831461   2.365109   2.791803   0.000000
 Stoichiometry    C2H6O2
 Framework group  C1[X(C2H6O2)]
 Deg. of freedom    24
 Full point group                 C1      NOp   1
 Largest Abelian subgroup         C1      NOp   1
 Largest concise Abelian subgroup C1      NOp   1
                         Standard orientation:                         
 ---------------------------------------------------------------------
 Center     Atomic      Atomic             Coordinates (Angstroms)
 Number     Number       Type             X           Y           Z
 ---------------------------------------------------------------------
      1          6           0        0.695662   -0.539753    0.285430
      2          8           0        1.376590    0.575193   -0.211863
      3          6           0       -0.713678   -0.552474   -0.273222
      4          8           0       -1.456690    0.585428    0.050938
      5          1           0        0.656217   -0.514474    1.376135
      6          1           0        1.189644   -1.467965    0.000599
      7          1           0        2.257844    0.591210    0.133149
      8          1           0       -1.212594   -1.459832    0.066809
      9          1           0       -0.667451   -0.582009   -1.353352
     10          1           0       -1.474764    0.701472    0.990807
 ---------------------------------------------------------------------
 Rotational constants (GHZ):     16.3234405      5.3406081      4.5567962

 **********************************************************************

            Population analysis using the SCF density.

 **********************************************************************

 Orbital symmetries:
       Occupied  (A) (A) (A) (A) (A) (A) (A) (A) (A) (A) (A) (A)
                 (A) (A) (A) (A) (A)
       Virtual   (A) (A) (A) (A) (A) (A) (A) (A) (A) (A) (A) (A)
                 (A) (A) (A) (A) (A) (A) (A) (A) (A) (A) (A) (A)
                 (A) (A) (A) (A) (A) (A) (A) (A) (A) (A) (A) (A)
                 (A) (A) (A) (A) (A) (A) (A) (A) (A) (A) (A) (A)
                 (A) (A) (A) (A) (A) (A) (A)
 The electronic state is 1-A.
 Alpha  occ. eigenvalues --  -20.55944 -20.55253 -11.27764 -11.27028  -1.37607
 Alpha  occ. eigenvalues --   -1.35316  -1.00290  -0.84588  -0.72003  -0.67444
 Alpha  occ. eigenvalues --   -0.65837  -0.59768  -0.57037  -0.54202  -0.47588
 Alpha  occ. eigenvalues --   -0.44629  -0.43696
 Alpha virt. eigenvalues --    0.21374   0.24777   0.27997   0.29833   0.31776
 Alpha virt. eigenvalues --    0.33645   0.39669   0.41399   0.43997   0.75420
 Alpha virt. eigenvalues --    0.80727   0.81274   0.82788   0.89195   0.90988
 Alpha virt. eigenvalues --    1.06744   1.08080   1.11441   1.14896   1.16219
 Alpha virt. eigenvalues --    1.19069   1.20982   1.24165   1.28380   1.29634
 Alpha virt. eigenvalues --    1.32499   1.39889   1.46572   1.62045   1.67461
 Alpha virt. eigenvalues --    1.75846   1.83744   1.88747   1.99045   2.02359
 Alpha virt. eigenvalues --    2.04406   2.13627   2.23929   2.37374   2.42581
 Alpha virt. eigenvalues --    2.45785   2.48910   2.63527   2.70102   2.75084
 Alpha virt. eigenvalues --    2.79150   2.83669   2.94931   3.05552   3.19573
 Alpha virt. eigenvalues --    3.23262   4.15035   4.18953   4.63155   4.85143
          Condensed to atoms (all electrons):
               1          2          3          4          5          6
     1  C    4.848459   0.215881   0.355296  -0.048279   0.389752   0.388613
     2  O    0.215881   8.374454  -0.058351   0.004188  -0.044038  -0.037626
     3  C    0.355296  -0.058351   4.774195   0.225603  -0.041367  -0.041916
     4  O   -0.048279   0.004188   0.225603   8.359358  -0.002647   0.003461
     5  H    0.389752  -0.044038  -0.041367  -0.002647   0.614852  -0.046073
     6  H    0.388613  -0.037626  -0.041916   0.003461  -0.046073   0.596201
     7  H   -0.022328   0.262978   0.005895  -0.000172  -0.003673  -0.003755
     8  H   -0.058249   0.003141   0.395342  -0.038773  -0.001817   0.003136
     9  H   -0.040495   0.000995   0.402785  -0.039451   0.005214  -0.003047
    10  H   -0.004420   0.000177  -0.027747   0.261465   0.003644   0.000063
               7          8          9         10
     1  C   -0.022328  -0.058249  -0.040495  -0.004420
     2  O    0.262978   0.003141   0.000995   0.000177
     3  C    0.005895   0.395342   0.402785  -0.027747
     4  O   -0.000172  -0.038773  -0.039451   0.261465
     5  H   -0.003673  -0.001817   0.005214   0.003644
     6  H   -0.003755   0.003136  -0.003047   0.000063
     7  H    0.320778  -0.000192  -0.000214  -0.000055
     8  H   -0.000192   0.598610  -0.034380  -0.003239
     9  H   -0.000214  -0.034380   0.519839   0.005748
    10  H   -0.000055  -0.003239   0.005748   0.331104
 Mulliken charges:
               1
     1  C   -0.024230
     2  O   -0.721800
     3  C    0.010264
     4  O   -0.724754
     5  H    0.126154
     6  H    0.140941
     7  H    0.440736
     8  H    0.136419
     9  H    0.183006
    10  H    0.433261
 Sum of Mulliken charges =  -0.00000
 Mulliken charges with hydrogens summed into heavy atoms:
               1
     1  C    0.242866
     2  O   -0.281063
     3  C    0.329690
     4  O   -0.291492
 Electronic spatial extent (au):  <R**2>=            302.6102
 Charge=             -0.0000 electrons
 Dipole moment (field-independent basis, Debye):
    X=              1.6200    Y=             -2.1425    Z=              2.2642  Tot=              3.5131
 Quadrupole moment (field-independent basis, Debye-Ang):
   XX=            -22.6770   YY=            -25.9210   ZZ=            -22.8014
   XY=              0.8993   XZ=             -0.4300   YZ=              2.0847
 Traceless Quadrupole moment (field-independent basis, Debye-Ang):
   XX=              1.1228   YY=             -2.1212   ZZ=              0.9984
   XY=              0.8993   XZ=             -0.4300   YZ=              2.0847
 Octapole moment (field-independent basis, Debye-Ang**2):
  XXX=             20.5425  YYY=              2.9298  ZZZ=              2.0449  XYY=              0.5394
  XXY=              2.0220  XXZ=              6.9379  XZZ=             -3.7849  YZZ=              2.5959
  YYZ=              1.4602  XYZ=             -0.9934
 Hexadecapole moment (field-independent basis, Debye-Ang**3):
 XXXX=           -190.6241 YYYY=            -87.4457 ZZZZ=            -43.0424 XXXY=             11.9153
 XXXZ=             -2.3688 YYYX=              0.2256 YYYZ=              1.9436 ZZZX=             -4.1009
 ZZZY=              3.0082 XXYY=            -50.0648 XXZZ=            -41.3101 YYZZ=            -21.8739
 XXYZ=              5.1949 YYXZ=             -2.5151 ZZXY=             -2.1011
 N-N= 1.335761886803D+02 E-N=-8.068412435888D+02  KE= 2.285708556950D+02
 1\1\GINC-GTX1080DELTA\Scan\RHF\6-31G(d)\C2H6O2\MVEROT\18-Apr-2022\0\\#
  hf/6-31G* Opt=modredundant\\Optimisation de geometrie\\0,1\C,1.571325
 0842,2.0839213057,2.0120043825\O,0.4965278024,2.8145226135,1.497126802
 9\C,1.9883881036,1.0330025026,1.0019946915\O,0.971656891,0.1315779806,
 0.676943681\H,1.2957750786,1.5995507087,2.9507747038\H,2.427198747,2.7
 257156639,2.2176849526\H,0.2290892272,3.4727590262,2.12250586\H,2.8677
 669668,0.5150899006,1.3844805221\H,2.2641671504,1.5195582407,0.0763050
 045\H,0.6414049487,-0.2790979425,1.4639793992\\Version=AM64L-G09RevD.0
 1\State=1-A\HF=-228.9257144,-228.9248579,-228.9228213,-228.9201163,-22
 8.917435,-228.9154464,-228.91473,-228.9156245,-228.9177256,-228.920446
 2,-228.9231071,-228.9250264,-228.9257265,-228.9251179,-228.9234931,-22
 8.9213278,-228.9191335,-228.9173989,-228.9165044,-228.9166036,-228.917
 5634,-228.9190168,-228.9204869,-228.9215367,-228.9218737,-228.9213959,
 -228.9201852,-228.9184849,-228.9166692,-228.9151754,-228.9143846,-228.
 9144883,-228.9154002,-228.9167689,-228.9180966,-228.9189159,-228.91895
 01\RMSD=3.907e-09,8.239e-09,5.755e-09,3.395e-09,5.493e-09,5.855e-09,5.
 742e-09,4.440e-09,8.931e-09,6.444e-09,8.511e-09,5.453e-09,2.962e-09,1.
 888e-09,2.927e-09,2.153e-09,9.499e-09,2.878e-09,3.088e-09,5.995e-09,2.
 379e-09,9.526e-09,8.992e-09,4.833e-09,5.451e-09,4.133e-09,3.888e-09,7.
 791e-09,3.592e-09,8.513e-09,9.673e-09,3.098e-09,2.712e-09,2.436e-09,3.
 640e-09,7.165e-09,3.827e-09\PG=C01 [X(C2H6O2)]\\@


 CHARLIE BROWN -- WHICH DO YOU THINK LASTS LONGER IN LIFE, THE GOOD THINGS 
                  OR THE BAD THINGS?
 LINUS --         GOOD THINGS LAST EIGHT SECONDS ..
                  BAD THINGS LAST THREE WEEKS
 CHARLIE BROWN -- WHAT ABOUT IN BETWEEN?
 SNOOPY --        IN BETWEEN YOU SHOULD TAKE A NAP ...
 Job cpu time:       0 days  0 hours  3 minutes 35.5 seconds.
 File lengths (MBytes):  RWF=     77 Int=      0 D2E=      0 Chk=      5 Scr=      2
 Normal termination of Gaussian 09 at Mon Apr 18 00:42:41 2022.
