 Entering Gaussian System, Link 0=g09
 Input=/scratch/mverot/cis/cis.com
 Output=/scratch/mverot/cis/cis.log
 Initial command:
 /opt/g09/l1.exe "/scratch/mverot/cis/Gau-2842178.inp" -scrdir="/scratch/mverot/cis/"
 Entering Link 1 = /opt/g09/l1.exe PID=   2842180.
  
 Copyright (c) 1988,1990,1992,1993,1995,1998,2003,2009,2013,
            Gaussian, Inc.  All Rights Reserved.
  
 This is part of the Gaussian(R) 09 program.  It is based on
 the Gaussian(R) 03 system (copyright 2003, Gaussian, Inc.),
 the Gaussian(R) 98 system (copyright 1998, Gaussian, Inc.),
 the Gaussian(R) 94 system (copyright 1995, Gaussian, Inc.),
 the Gaussian 92(TM) system (copyright 1992, Gaussian, Inc.),
 the Gaussian 90(TM) system (copyright 1990, Gaussian, Inc.),
 the Gaussian 88(TM) system (copyright 1988, Gaussian, Inc.),
 the Gaussian 86(TM) system (copyright 1986, Carnegie Mellon
 University), and the Gaussian 82(TM) system (copyright 1983,
 Carnegie Mellon University). Gaussian is a federally registered
 trademark of Gaussian, Inc.
  
 This software contains proprietary and confidential information,
 including trade secrets, belonging to Gaussian, Inc.
  
 This software is provided under written license and may be
 used, copied, transmitted, or stored only in accord with that
 written license.
  
 The following legend is applicable only to US Government
 contracts under FAR:
  
                    RESTRICTED RIGHTS LEGEND
  
 Use, reproduction and disclosure by the US Government is
 subject to restrictions as set forth in subparagraphs (a)
 and (c) of the Commercial Computer Software - Restricted
 Rights clause in FAR 52.227-19.
  
 Gaussian, Inc.
 340 Quinnipiac St., Bldg. 40, Wallingford CT 06492
  
  
 ---------------------------------------------------------------
 Warning -- This program may not be used in any manner that
 competes with the business of Gaussian, Inc. or will provide
 assistance to any competitor of Gaussian, Inc.  The licensee
 of this program is prohibited from giving any competitor of
 Gaussian, Inc. access to this program.  By using this program,
 the user acknowledges that Gaussian, Inc. is engaged in the
 business of creating and licensing software in the field of
 computational chemistry and represents and warrants to the
 licensee that it is not a competitor of Gaussian, Inc. and that
 it will not use this program in any manner prohibited above.
 ---------------------------------------------------------------
  

 Cite this work as:
 Gaussian 09, Revision D.01,
 M. J. Frisch, G. W. Trucks, H. B. Schlegel, G. E. Scuseria, 
 M. A. Robb, J. R. Cheeseman, G. Scalmani, V. Barone, B. Mennucci, 
 G. A. Petersson, H. Nakatsuji, M. Caricato, X. Li, H. P. Hratchian, 
 A. F. Izmaylov, J. Bloino, G. Zheng, J. L. Sonnenberg, M. Hada, 
 M. Ehara, K. Toyota, R. Fukuda, J. Hasegawa, M. Ishida, T. Nakajima, 
 Y. Honda, O. Kitao, H. Nakai, T. Vreven, J. A. Montgomery, Jr., 
 J. E. Peralta, F. Ogliaro, M. Bearpark, J. J. Heyd, E. Brothers, 
 K. N. Kudin, V. N. Staroverov, T. Keith, R. Kobayashi, J. Normand, 
 K. Raghavachari, A. Rendell, J. C. Burant, S. S. Iyengar, J. Tomasi, 
 M. Cossi, N. Rega, J. M. Millam, M. Klene, J. E. Knox, J. B. Cross, 
 V. Bakken, C. Adamo, J. Jaramillo, R. Gomperts, R. E. Stratmann, 
 O. Yazyev, A. J. Austin, R. Cammi, C. Pomelli, J. W. Ochterski, 
 R. L. Martin, K. Morokuma, V. G. Zakrzewski, G. A. Voth, 
 P. Salvador, J. J. Dannenberg, S. Dapprich, A. D. Daniels, 
 O. Farkas, J. B. Foresman, J. V. Ortiz, J. Cioslowski, 
 and D. J. Fox, Gaussian, Inc., Wallingford CT, 2013.
 
 ******************************************
 Gaussian 09:  AM64L-G09RevD.01 24-Apr-2013
                12-Apr-2022 
 ******************************************
 %chk=cis
 ----------
 #n AM1 Opt
 ----------
 1/14=-1,18=20,19=15,26=1,38=1/1,3;
 2/9=110,12=2,17=6,18=5,40=1/2;
 3/5=2,16=1,25=1,41=700000,71=1/1,2,3;
 4/35=1/1;
 5/5=2,35=1,38=5/2;
 6/7=2,8=2,9=2,10=2,28=1/1;
 7//1,2,3,16;
 1/14=-1,18=20,19=15,26=1/3(2);
 2/9=110/2;
 99//99;
 2/9=110/2;
 3/5=2,16=1,25=1,41=700000,71=1,135=20/1,2,3;
 4/5=5,16=3,35=1/1;
 5/5=2,35=1,38=5/2;
 7//1,2,3,16;
 1/14=-1,18=20,19=15,26=1/3(-5);
 2/9=110/2;
 6/7=2,8=2,9=2,10=2,19=2,28=1/1;
 99/9=1/99;
 ---------------------
 Geometry optimization
 ---------------------
 Symbolic Z-matrix:
 Charge =  0 Multiplicity = 1
 N                     0.25738   2.35135   3.1003 
 C                     0.87812   3.57151   3.6977 
 C                     1.61241   4.52476   3.0076 
 C                     2.06661   5.66866   3.6668 
 C                     1.78652   5.8466    5.0161 
 C                     1.05223   4.89335   5.7062 
 C                     0.59803   3.76216   5.047 
 N                    -0.25738   2.35135   2.0497 
 C                    -0.87812   3.57151   1.4523 
 C                    -1.61241   4.52476   2.1424 
 C                    -0.59803   3.76216   0.103 
 C                    -2.06661   5.66866   1.4832 
 C                    -1.05223   4.89335  -0.5562 
 C                    -1.78652   5.8466    0.1339 
 H                     0.28249   1.51103   3.61262 
 H                     1.82306   4.3884    2.00657 
 H                     2.60918   6.38047   3.15303 
 H                     2.12541   6.68949   5.5057 
 H                     0.84463   5.02625   6.70833 
 H                     0.04802   3.05606   5.56075 
 H                    -0.28249   1.51103   1.53738 
 H                    -1.82306   4.3884    3.14343 
 H                    -0.04802   3.05606  -0.41075 
 H                    -2.60918   6.38047   1.99697 
 H                    -0.84463   5.02625  -1.55833 
 H                    -2.12541   6.68949  -0.3557 
 

 GradGradGradGradGradGradGradGradGradGradGradGradGradGradGradGradGradGrad
 Berny optimization.
 Initialization pass.
                           ----------------------------
                           !    Initial Parameters    !
                           ! (Angstroms and Degrees)  !
 --------------------------                            --------------------------
 ! Name  Definition              Value          Derivative Info.                !
 --------------------------------------------------------------------------------
 ! R1    R(1,2)                  1.4937         estimate D2E/DX2                !
 ! R2    R(1,8)                  1.1699         estimate D2E/DX2                !
 ! R3    R(1,15)                 0.9845         estimate D2E/DX2                !
 ! R4    R(2,3)                  1.3871         estimate D2E/DX2                !
 ! R5    R(2,7)                  1.3912         estimate D2E/DX2                !
 ! R6    R(3,4)                  1.3962         estimate D2E/DX2                !
 ! R7    R(3,16)                 1.032          estimate D2E/DX2                !
 ! R8    R(4,5)                  1.3895         estimate D2E/DX2                !
 ! R9    R(4,17)                 1.032          estimate D2E/DX2                !
 ! R10   R(5,6)                  1.3871         estimate D2E/DX2                !
 ! R11   R(5,18)                 1.032          estimate D2E/DX2                !
 ! R12   R(6,7)                  1.3858         estimate D2E/DX2                !
 ! R13   R(6,19)                 1.032          estimate D2E/DX2                !
 ! R14   R(7,20)                 1.032          estimate D2E/DX2                !
 ! R15   R(8,9)                  1.4937         estimate D2E/DX2                !
 ! R16   R(8,21)                 0.9845         estimate D2E/DX2                !
 ! R17   R(9,10)                 1.3871         estimate D2E/DX2                !
 ! R18   R(9,11)                 1.3912         estimate D2E/DX2                !
 ! R19   R(10,12)                1.3962         estimate D2E/DX2                !
 ! R20   R(10,22)                1.032          estimate D2E/DX2                !
 ! R21   R(11,13)                1.3858         estimate D2E/DX2                !
 ! R22   R(11,23)                1.032          estimate D2E/DX2                !
 ! R23   R(12,14)                1.3895         estimate D2E/DX2                !
 ! R24   R(12,24)                1.032          estimate D2E/DX2                !
 ! R25   R(13,14)                1.3871         estimate D2E/DX2                !
 ! R26   R(13,25)                1.032          estimate D2E/DX2                !
 ! R27   R(14,26)                1.032          estimate D2E/DX2                !
 ! A1    A(2,1,8)              122.8212         estimate D2E/DX2                !
 ! A2    A(2,1,15)             118.5894         estimate D2E/DX2                !
 ! A3    A(8,1,15)             118.5894         estimate D2E/DX2                !
 ! A4    A(1,2,3)              125.6193         estimate D2E/DX2                !
 ! A5    A(1,2,7)              114.5946         estimate D2E/DX2                !
 ! A6    A(3,2,7)              119.6648         estimate D2E/DX2                !
 ! A7    A(2,3,4)              120.0232         estimate D2E/DX2                !
 ! A8    A(2,3,16)             119.9883         estimate D2E/DX2                !
 ! A9    A(4,3,16)             119.9884         estimate D2E/DX2                !
 ! A10   A(3,4,5)              119.8562         estimate D2E/DX2                !
 ! A11   A(3,4,17)             120.0719         estimate D2E/DX2                !
 ! A12   A(5,4,17)             120.0719         estimate D2E/DX2                !
 ! A13   A(4,5,6)              120.1199         estimate D2E/DX2                !
 ! A14   A(4,5,18)             119.94           estimate D2E/DX2                !
 ! A15   A(6,5,18)             119.9401         estimate D2E/DX2                !
 ! A16   A(5,6,7)              119.8546         estimate D2E/DX2                !
 ! A17   A(5,6,19)             120.0724         estimate D2E/DX2                !
 ! A18   A(7,6,19)             120.0729         estimate D2E/DX2                !
 ! A19   A(2,7,6)              120.4799         estimate D2E/DX2                !
 ! A20   A(2,7,20)             119.7599         estimate D2E/DX2                !
 ! A21   A(6,7,20)             119.7603         estimate D2E/DX2                !
 ! A22   A(1,8,9)              122.8212         estimate D2E/DX2                !
 ! A23   A(1,8,21)             118.5894         estimate D2E/DX2                !
 ! A24   A(9,8,21)             118.5894         estimate D2E/DX2                !
 ! A25   A(8,9,10)             125.6193         estimate D2E/DX2                !
 ! A26   A(8,9,11)             114.5946         estimate D2E/DX2                !
 ! A27   A(10,9,11)            119.6648         estimate D2E/DX2                !
 ! A28   A(9,10,12)            120.0232         estimate D2E/DX2                !
 ! A29   A(9,10,22)            119.9883         estimate D2E/DX2                !
 ! A30   A(12,10,22)           119.9884         estimate D2E/DX2                !
 ! A31   A(9,11,13)            120.4799         estimate D2E/DX2                !
 ! A32   A(9,11,23)            119.7599         estimate D2E/DX2                !
 ! A33   A(13,11,23)           119.7603         estimate D2E/DX2                !
 ! A34   A(10,12,14)           119.8562         estimate D2E/DX2                !
 ! A35   A(10,12,24)           120.0719         estimate D2E/DX2                !
 ! A36   A(14,12,24)           120.0719         estimate D2E/DX2                !
 ! A37   A(11,13,14)           119.8546         estimate D2E/DX2                !
 ! A38   A(11,13,25)           120.0729         estimate D2E/DX2                !
 ! A39   A(14,13,25)           120.0724         estimate D2E/DX2                !
 ! A40   A(12,14,13)           120.1199         estimate D2E/DX2                !
 ! A41   A(12,14,26)           119.94           estimate D2E/DX2                !
 ! A42   A(13,14,26)           119.9401         estimate D2E/DX2                !
 ! D1    D(8,1,2,3)            -39.1838         estimate D2E/DX2                !
 ! D2    D(8,1,2,7)            136.7748         estimate D2E/DX2                !
 ! D3    D(15,1,2,3)           140.8159         estimate D2E/DX2                !
 ! D4    D(15,1,2,7)           -43.2255         estimate D2E/DX2                !
 ! D5    D(2,1,8,9)            -27.1456         estimate D2E/DX2                !
 ! D6    D(2,1,8,21)           152.8547         estimate D2E/DX2                !
 ! D7    D(15,1,8,9)           152.8547         estimate D2E/DX2                !
 ! D8    D(15,1,8,21)          -27.145          estimate D2E/DX2                !
 ! D9    D(1,2,3,4)            175.7707         estimate D2E/DX2                !
 ! D10   D(1,2,3,16)            -4.2291         estimate D2E/DX2                !
 ! D11   D(7,2,3,4)              0.0            estimate D2E/DX2                !
 ! D12   D(7,2,3,16)          -179.9998         estimate D2E/DX2                !
 ! D13   D(1,2,7,6)           -176.5097         estimate D2E/DX2                !
 ! D14   D(1,2,7,20)             3.4904         estimate D2E/DX2                !
 ! D15   D(3,2,7,6)             -0.29           estimate D2E/DX2                !
 ! D16   D(3,2,7,20)           179.7101         estimate D2E/DX2                !
 ! D17   D(2,3,4,5)              0.2874         estimate D2E/DX2                !
 ! D18   D(2,3,4,17)          -179.7127         estimate D2E/DX2                !
 ! D19   D(16,3,4,5)          -179.7128         estimate D2E/DX2                !
 ! D20   D(16,3,4,17)            0.2871         estimate D2E/DX2                !
 ! D21   D(3,4,5,6)             -0.2877         estimate D2E/DX2                !
 ! D22   D(3,4,5,18)           179.7123         estimate D2E/DX2                !
 ! D23   D(17,4,5,6)           179.7124         estimate D2E/DX2                !
 ! D24   D(17,4,5,18)           -0.2875         estimate D2E/DX2                !
 ! D25   D(4,5,6,7)              0.0            estimate D2E/DX2                !
 ! D26   D(4,5,6,19)           179.9998         estimate D2E/DX2                !
 ! D27   D(18,5,6,7)           180.0            estimate D2E/DX2                !
 ! D28   D(18,5,6,19)           -0.0002         estimate D2E/DX2                !
 ! D29   D(5,6,7,2)              0.2905         estimate D2E/DX2                !
 ! D30   D(5,6,7,20)          -179.7095         estimate D2E/DX2                !
 ! D31   D(19,6,7,2)          -179.7093         estimate D2E/DX2                !
 ! D32   D(19,6,7,20)            0.2906         estimate D2E/DX2                !
 ! D33   D(1,8,9,10)           -39.1838         estimate D2E/DX2                !
 ! D34   D(1,8,9,11)           136.7748         estimate D2E/DX2                !
 ! D35   D(21,8,9,10)          140.8159         estimate D2E/DX2                !
 ! D36   D(21,8,9,11)          -43.2255         estimate D2E/DX2                !
 ! D37   D(8,9,10,12)          175.7707         estimate D2E/DX2                !
 ! D38   D(8,9,10,22)           -4.2291         estimate D2E/DX2                !
 ! D39   D(11,9,10,12)           0.0            estimate D2E/DX2                !
 ! D40   D(11,9,10,22)        -179.9998         estimate D2E/DX2                !
 ! D41   D(8,9,11,13)         -176.5097         estimate D2E/DX2                !
 ! D42   D(8,9,11,23)            3.4904         estimate D2E/DX2                !
 ! D43   D(10,9,11,13)          -0.29           estimate D2E/DX2                !
 ! D44   D(10,9,11,23)         179.7101         estimate D2E/DX2                !
 ! D45   D(9,10,12,14)           0.2874         estimate D2E/DX2                !
 ! D46   D(9,10,12,24)        -179.7127         estimate D2E/DX2                !
 ! D47   D(22,10,12,14)       -179.7128         estimate D2E/DX2                !
 ! D48   D(22,10,12,24)          0.2871         estimate D2E/DX2                !
 ! D49   D(9,11,13,14)           0.2905         estimate D2E/DX2                !
 ! D50   D(9,11,13,25)        -179.7093         estimate D2E/DX2                !
 ! D51   D(23,11,13,14)       -179.7095         estimate D2E/DX2                !
 ! D52   D(23,11,13,25)          0.2906         estimate D2E/DX2                !
 ! D53   D(10,12,14,13)         -0.2877         estimate D2E/DX2                !
 ! D54   D(10,12,14,26)        179.7123         estimate D2E/DX2                !
 ! D55   D(24,12,14,13)        179.7124         estimate D2E/DX2                !
 ! D56   D(24,12,14,26)         -0.2875         estimate D2E/DX2                !
 ! D57   D(11,13,14,12)          0.0            estimate D2E/DX2                !
 ! D58   D(11,13,14,26)        180.0            estimate D2E/DX2                !
 ! D59   D(25,13,14,12)        179.9998         estimate D2E/DX2                !
 ! D60   D(25,13,14,26)         -0.0002         estimate D2E/DX2                !
 --------------------------------------------------------------------------------
 Trust Radius=3.00D-01 FncErr=1.00D-07 GrdErr=1.00D-07
 Number of steps in this run=    139 maximum allowed number of steps=    156.
 GradGradGradGradGradGradGradGradGradGradGradGradGradGradGradGradGradGrad

                          Input orientation:                          
 ---------------------------------------------------------------------
 Center     Atomic      Atomic             Coordinates (Angstroms)
 Number     Number       Type             X           Y           Z
 ---------------------------------------------------------------------
      1          7           0        0.257380    2.351350    3.100300
      2          6           0        0.878120    3.571510    3.697700
      3          6           0        1.612410    4.524760    3.007600
      4          6           0        2.066610    5.668660    3.666800
      5          6           0        1.786520    5.846600    5.016100
      6          6           0        1.052230    4.893350    5.706200
      7          6           0        0.598030    3.762160    5.047000
      8          7           0       -0.257380    2.351350    2.049700
      9          6           0       -0.878120    3.571510    1.452300
     10          6           0       -1.612410    4.524760    2.142400
     11          6           0       -0.598030    3.762160    0.103000
     12          6           0       -2.066610    5.668660    1.483200
     13          6           0       -1.052230    4.893350   -0.556200
     14          6           0       -1.786520    5.846600    0.133900
     15          1           0        0.282490    1.511030    3.612620
     16          1           0        1.823060    4.388400    2.006570
     17          1           0        2.609180    6.380470    3.153030
     18          1           0        2.125410    6.689490    5.505700
     19          1           0        0.844630    5.026250    6.708330
     20          1           0        0.048020    3.056060    5.560750
     21          1           0       -0.282490    1.511030    1.537380
     22          1           0       -1.823060    4.388400    3.143430
     23          1           0       -0.048020    3.056060   -0.410750
     24          1           0       -2.609180    6.380470    1.996970
     25          1           0       -0.844630    5.026250   -1.558330
     26          1           0       -2.125410    6.689490   -0.355700
 ---------------------------------------------------------------------
                    Distance matrix (angstroms):
                    1          2          3          4          5
     1  N    0.000000
     2  C    1.493652   0.000000
     3  C    2.562891   1.387121   0.000000
     4  C    3.820835   2.410706   1.396191   0.000000
     5  C    4.269114   2.781978   2.410736   1.389505   0.000000
     6  C    3.726160   2.410736   2.780666   2.406081   1.387121
     7  C    2.428182   1.391190   2.402015   2.774243   2.399657
     8  N    1.169931   2.343940   3.022813   4.361248   5.019345
     9  C    2.343940   2.850649   3.087132   4.239514   4.997701
    10  C    3.022813   3.087132   3.338867   4.143367   4.643074
    11  C    3.421391   3.890660   3.728848   4.841045   5.845470
    12  C    4.361248   4.239514   4.143367   4.674571   5.230646
    13  C    4.641857   4.854810   4.465068   5.306788   6.325956
    14  C    5.019345   4.997701   4.643074   5.230646   6.049999
    15  H    0.984500   2.146530   3.349225   4.524589   4.798857
    16  H    2.792342   2.102413   1.032002   2.110627   3.344391
    17  H    4.665571   3.344173   2.111483   1.031996   2.105425
    18  H    5.300466   3.813974   3.345105   2.104069   1.031997
    19  H    4.529661   3.343843   3.812661   3.340184   2.103277
    20  H    2.567930   2.103737   3.335112   3.806236   3.332587
    21  H    1.854809   3.203057   3.851592   5.228632   5.931228
    22  H    2.911986   2.875917   3.440857   4.128258   4.319989
    23  H    3.594073   4.242969   4.074215   5.284293   6.372076
    24  H    5.066390   4.789990   4.720896   5.015777   5.359323
    25  H    5.483826   5.719265   5.209247   6.015812   7.128748
    26  H    6.036645   5.930687   5.474408   5.898782   6.698499
                    6          7          8          9         10
     6  C    0.000000
     7  C    1.385797   0.000000
     8  N    4.641857   3.421391   0.000000
     9  C    4.854810   3.890660   1.493652   0.000000
    10  C    4.465068   3.728848   2.562891   1.387121   0.000000
    11  C    5.949689   5.086619   2.428182   1.391190   2.402015
    12  C    5.306788   4.841045   3.820835   2.410706   1.396191
    13  C    6.606543   5.949689   3.726160   2.410736   2.780666
    14  C    6.325956   5.845470   4.269114   2.781978   2.410736
    15  H    4.051625   2.687861   1.854809   3.203057   3.851592
    16  H    3.812665   3.337228   2.911986   2.875917   3.440857
    17  H    3.339805   3.806231   5.066390   4.789990   4.720896
    18  H    2.101912   3.333550   6.036645   5.930687   5.474408
    19  H    1.032000   2.102083   5.483826   5.719265   5.209247
    20  H    2.098863   1.032002   3.594073   4.242969   4.074215
    21  H    5.531783   4.261494   0.984500   2.146530   3.349225
    22  H    3.884592   3.142838   2.792342   2.102413   1.032002
    23  H    6.480992   5.541028   2.567930   2.103737   3.335112
    24  H    5.419948   5.142414   4.665571   3.344173   2.111483
    25  H    7.509270   6.878196   4.529661   3.343843   3.812661
    26  H    7.076026   6.721276   5.300466   3.813974   3.345105
                   11         12         13         14         15
    11  C    0.000000
    12  C    2.774243   0.000000
    13  C    1.385797   2.406081   0.000000
    14  C    2.399657   1.389505   1.387121   0.000000
    15  H    4.261494   5.228632   5.531783   5.931228   0.000000
    16  H    3.142838   4.128258   3.884592   4.319989   3.637583
    17  H    5.142414   5.015777   5.419948   5.359323   5.416286
    18  H    6.721276   5.898782   7.076026   6.698499   5.813480
    19  H    6.878196   6.015812   7.509270   7.128748   4.717647
    20  H    5.541028   5.284293   6.480992   6.372076   2.497460
    21  H    2.687861   4.524589   4.051625   4.798857   2.150773
    22  H    3.337228   2.110627   3.812665   3.344391   3.596212
    23  H    1.032002   3.806236   2.098863   3.332587   4.322483
    24  H    3.806231   1.031996   3.339805   2.105425   5.889272
    25  H    2.102083   3.340184   1.032000   2.103277   6.353416
    26  H    3.333550   2.104069   2.101912   1.031997   6.954279
                   16         17         18         19         20
    16  H    0.000000
    17  H    2.429135   0.000000
    18  H    4.198850   2.421690   0.000000
    19  H    4.844659   4.193770   2.419315   0.000000
    20  H    4.190238   4.838218   4.185737   2.415197   0.000000
    21  H    3.596212   5.889272   6.954279   6.353416   4.322483
    22  H    3.819246   4.859340   5.144487   4.497992   3.334592
    23  H    3.334592   5.550941   7.275300   7.440415   5.972272
    24  H    4.859340   5.344881   5.901103   5.996635   5.550941
    25  H    4.497992   5.996635   7.841430   8.437492   7.440415
    26  H    5.144487   5.901103   7.240544   7.841430   7.275300
                   21         22         23         24         25
    21  H    0.000000
    22  H    3.637583   0.000000
    23  H    2.497460   4.190238   0.000000
    24  H    5.416286   2.429135   4.838218   0.000000
    25  H    4.717647   4.844659   2.415197   4.193770   0.000000
    26  H    5.813480   4.198850   4.185737   2.421690   2.419315
                   26
    26  H    0.000000
 Stoichiometry    C12H12N2
 Framework group  C2[X(C12H12N2)]
 Deg. of freedom    37
 Full point group                 C2      NOp   2
 Largest Abelian subgroup         C2      NOp   2
 Largest concise Abelian subgroup C2      NOp   2
                         Standard orientation:                         
 ---------------------------------------------------------------------
 Center     Atomic      Atomic             Coordinates (Angstroms)
 Number     Number       Type             X           Y           Z
 ---------------------------------------------------------------------
      1          7           0       -0.086101    0.578594    1.997903
      2          6           0        0.086101    1.422722    0.777743
      3          6           0        1.082305    1.271072   -0.175507
      4          6           0        1.082305    2.071598   -1.319407
      5          6           0        0.086101    3.023774   -1.497347
      6          6           0       -0.910103    3.175424   -0.544097
      7          6           0       -0.910103    2.374897    0.587093
      8          7           0        0.086101   -0.578594    1.997903
      9          6           0       -0.086101   -1.422722    0.777743
     10          6           0       -1.082305   -1.271072   -0.175507
     11          6           0        0.910103   -2.374897    0.587093
     12          6           0       -1.082305   -2.071598   -1.319407
     13          6           0        0.910103   -3.175424   -0.544097
     14          6           0       -0.086101   -3.023774   -1.497347
     15          1           0       -0.356103    1.014715    2.838223
     16          1           0        1.823728    0.566283   -0.039147
     17          1           0        1.820590    1.956372   -2.031217
     18          1           0        0.087375    3.619218   -2.340237
     19          1           0       -1.649638    3.882848   -0.676997
     20          1           0       -1.654503    2.485886    1.293193
     21          1           0        0.356103   -1.014715    2.838223
     22          1           0       -1.823728   -0.566283   -0.039147
     23          1           0        1.654503   -2.485886    1.293193
     24          1           0       -1.820590   -1.956372   -2.031217
     25          1           0        1.649638   -3.882848   -0.676997
     26          1           0       -0.087375   -3.619218   -2.340237
 ---------------------------------------------------------------------
 Rotational constants (GHZ):      1.2726202      0.5066880      0.4371541
 Standard basis: VSTO-6G (5D, 7F)
 There are    34 symmetry adapted cartesian basis functions of A   symmetry.
 There are    34 symmetry adapted cartesian basis functions of B   symmetry.
 There are    34 symmetry adapted basis functions of A   symmetry.
 There are    34 symmetry adapted basis functions of B   symmetry.
    68 basis functions,   408 primitive gaussians,    68 cartesian basis functions
    35 alpha electrons       35 beta electrons
       nuclear repulsion energy       456.3757996219 Hartrees.
 Integral buffers will be    131072 words long.
 Regular integral format.
 Two-electron integral symmetry is turned off.
 Do NDO integrals.
 One-electron integrals computed using PRISM.
 NBasis=    68 RedAO= T EigKep=  7.07D-01  NBF=    34    34
 NBsUse=    68 1.00D-06 EigRej= -1.00D+00 NBFU=    34    34
 Simple Huckel Guess.
 Initial guess orbital symmetries:
       Occupied  (A) (B) (A) (B) (A) (B) (A) (B) (A) (B) (A) (B)
                 (A) (B) (A) (A) (B) (B) (A) (A) (B) (A) (B) (A)
                 (B) (B) (A) (A) (B) (B) (A) (A) (B) (B) (A)
       Virtual   (A) (B) (B) (A) (B) (A) (A) (B) (A) (B) (A) (B)
                 (B) (A) (B) (A) (B) (B) (A) (A) (B) (A) (B) (A)
                 (B) (A) (B) (A) (A) (B) (A) (B) (B)
 The electronic state of the initial guess is 1-A.
 Overlap will be assumed to be unity.
 Keep J ints in memory in canonical form, NReq=921852.
 Requested convergence on RMS density matrix=1.00D-08 within 128 cycles.
 Requested convergence on MAX density matrix=1.00D-06.
 Requested convergence on             energy=1.00D-06.
 No special actions if energy rises.
 Fock symm off for IB=2 I1=    1 I=   35 J=   31 Cut=1.00D-07 Err=7.48D-03
 Fock matrix is not symmetric: symmetry in diagonalization turned off.
 SCF Done:  E(RAM1) =  0.273231311187     A.U. after   15 cycles
            NFock= 14  Conv=0.89D-08     -V/T= 1.0057

 **********************************************************************

            Population analysis using the SCF density.

 **********************************************************************

 Orbital symmetries:
       Occupied  (A) (B) (A) (B) (A) (B) (A) (B) (A) (A) (B) (B)
                 (A) (A) (B) (A) (B) (B) (A) (A) (B) (B) (A) (B)
                 (A) (B) (A) (B) (A) (B) (A) (A) (B) (B) (A)
       Virtual   (B) (A) (B) (A) (B) (A) (B) (A) (A) (B) (B) (A)
                 (B) (A) (A) (B) (A) (B) (A) (B) (A) (B) (A) (B)
                 (B) (A) (A) (B) (A) (B) (A) (B) (B)
 The electronic state is 1-A.
 Alpha  occ. eigenvalues --   -1.52879  -1.45021  -1.42873  -1.19396  -1.17009
 Alpha  occ. eigenvalues --   -1.16595  -1.15379  -0.99401  -0.87236  -0.86813
 Alpha  occ. eigenvalues --   -0.86303  -0.80647  -0.73601  -0.69491  -0.64982
 Alpha  occ. eigenvalues --   -0.62756  -0.61003  -0.58012  -0.56710  -0.55296
 Alpha  occ. eigenvalues --   -0.54106  -0.52538  -0.52483  -0.49982  -0.49906
 Alpha  occ. eigenvalues --   -0.47473  -0.45918  -0.44467  -0.44093  -0.43248
 Alpha  occ. eigenvalues --   -0.37105  -0.35625  -0.35504  -0.34025  -0.25821
 Alpha virt. eigenvalues --    0.01827   0.02014   0.02186   0.02758   0.06970
 Alpha virt. eigenvalues --    0.10985   0.11016   0.11491   0.15671   0.15776
 Alpha virt. eigenvalues --    0.16007   0.16049   0.16967   0.16974   0.17402
 Alpha virt. eigenvalues --    0.17482   0.17617   0.17643   0.18421   0.18516
 Alpha virt. eigenvalues --    0.19707   0.19843   0.19888   0.20988   0.21071
 Alpha virt. eigenvalues --    0.21135   0.21278   0.21428   0.21676   0.22521
 Alpha virt. eigenvalues --    0.22994   0.25752   0.32075
          Condensed to atoms (all electrons):
               1          2          3          4          5          6
     1  N    5.267123   0.000000   0.000000   0.000000   0.000000   0.000000
     2  C    0.000000   3.931222   0.000000   0.000000   0.000000   0.000000
     3  C    0.000000   0.000000   4.143618   0.000000   0.000000   0.000000
     4  C    0.000000   0.000000   0.000000   4.100481   0.000000   0.000000
     5  C    0.000000   0.000000   0.000000   0.000000   4.155568   0.000000
     6  C    0.000000   0.000000   0.000000   0.000000   0.000000   4.104197
     7  C    0.000000   0.000000   0.000000   0.000000   0.000000   0.000000
     8  N    0.000000   0.000000   0.000000   0.000000   0.000000   0.000000
     9  C    0.000000   0.000000   0.000000   0.000000   0.000000   0.000000
    10  C    0.000000   0.000000   0.000000   0.000000   0.000000   0.000000
    11  C    0.000000   0.000000   0.000000   0.000000   0.000000   0.000000
    12  C    0.000000   0.000000   0.000000   0.000000   0.000000   0.000000
    13  C    0.000000   0.000000   0.000000   0.000000   0.000000   0.000000
    14  C    0.000000   0.000000   0.000000   0.000000   0.000000   0.000000
    15  H    0.000000   0.000000   0.000000   0.000000   0.000000   0.000000
    16  H    0.000000   0.000000   0.000000   0.000000   0.000000   0.000000
    17  H    0.000000   0.000000   0.000000   0.000000   0.000000   0.000000
    18  H    0.000000   0.000000   0.000000   0.000000   0.000000   0.000000
    19  H    0.000000   0.000000   0.000000   0.000000   0.000000   0.000000
    20  H    0.000000   0.000000   0.000000   0.000000   0.000000   0.000000
    21  H    0.000000   0.000000   0.000000   0.000000   0.000000   0.000000
    22  H    0.000000   0.000000   0.000000   0.000000   0.000000   0.000000
    23  H    0.000000   0.000000   0.000000   0.000000   0.000000   0.000000
    24  H    0.000000   0.000000   0.000000   0.000000   0.000000   0.000000
    25  H    0.000000   0.000000   0.000000   0.000000   0.000000   0.000000
    26  H    0.000000   0.000000   0.000000   0.000000   0.000000   0.000000
               7          8          9         10         11         12
     1  N    0.000000   0.000000   0.000000   0.000000   0.000000   0.000000
     2  C    0.000000   0.000000   0.000000   0.000000   0.000000   0.000000
     3  C    0.000000   0.000000   0.000000   0.000000   0.000000   0.000000
     4  C    0.000000   0.000000   0.000000   0.000000   0.000000   0.000000
     5  C    0.000000   0.000000   0.000000   0.000000   0.000000   0.000000
     6  C    0.000000   0.000000   0.000000   0.000000   0.000000   0.000000
     7  C    4.166324   0.000000   0.000000   0.000000   0.000000   0.000000
     8  N    0.000000   5.267123   0.000000   0.000000   0.000000   0.000000
     9  C    0.000000   0.000000   3.931222   0.000000   0.000000   0.000000
    10  C    0.000000   0.000000   0.000000   4.143618   0.000000   0.000000
    11  C    0.000000   0.000000   0.000000   0.000000   4.166324   0.000000
    12  C    0.000000   0.000000   0.000000   0.000000   0.000000   4.100481
    13  C    0.000000   0.000000   0.000000   0.000000   0.000000   0.000000
    14  C    0.000000   0.000000   0.000000   0.000000   0.000000   0.000000
    15  H    0.000000   0.000000   0.000000   0.000000   0.000000   0.000000
    16  H    0.000000   0.000000   0.000000   0.000000   0.000000   0.000000
    17  H    0.000000   0.000000   0.000000   0.000000   0.000000   0.000000
    18  H    0.000000   0.000000   0.000000   0.000000   0.000000   0.000000
    19  H    0.000000   0.000000   0.000000   0.000000   0.000000   0.000000
    20  H    0.000000   0.000000   0.000000   0.000000   0.000000   0.000000
    21  H    0.000000   0.000000   0.000000   0.000000   0.000000   0.000000
    22  H    0.000000   0.000000   0.000000   0.000000   0.000000   0.000000
    23  H    0.000000   0.000000   0.000000   0.000000   0.000000   0.000000
    24  H    0.000000   0.000000   0.000000   0.000000   0.000000   0.000000
    25  H    0.000000   0.000000   0.000000   0.000000   0.000000   0.000000
    26  H    0.000000   0.000000   0.000000   0.000000   0.000000   0.000000
              13         14         15         16         17         18
     1  N    0.000000   0.000000   0.000000   0.000000   0.000000   0.000000
     2  C    0.000000   0.000000   0.000000   0.000000   0.000000   0.000000
     3  C    0.000000   0.000000   0.000000   0.000000   0.000000   0.000000
     4  C    0.000000   0.000000   0.000000   0.000000   0.000000   0.000000
     5  C    0.000000   0.000000   0.000000   0.000000   0.000000   0.000000
     6  C    0.000000   0.000000   0.000000   0.000000   0.000000   0.000000
     7  C    0.000000   0.000000   0.000000   0.000000   0.000000   0.000000
     8  N    0.000000   0.000000   0.000000   0.000000   0.000000   0.000000
     9  C    0.000000   0.000000   0.000000   0.000000   0.000000   0.000000
    10  C    0.000000   0.000000   0.000000   0.000000   0.000000   0.000000
    11  C    0.000000   0.000000   0.000000   0.000000   0.000000   0.000000
    12  C    0.000000   0.000000   0.000000   0.000000   0.000000   0.000000
    13  C    4.104197   0.000000   0.000000   0.000000   0.000000   0.000000
    14  C    0.000000   4.155568   0.000000   0.000000   0.000000   0.000000
    15  H    0.000000   0.000000   0.769189   0.000000   0.000000   0.000000
    16  H    0.000000   0.000000   0.000000   0.864521   0.000000   0.000000
    17  H    0.000000   0.000000   0.000000   0.000000   0.872184   0.000000
    18  H    0.000000   0.000000   0.000000   0.000000   0.000000   0.875754
    19  H    0.000000   0.000000   0.000000   0.000000   0.000000   0.000000
    20  H    0.000000   0.000000   0.000000   0.000000   0.000000   0.000000
    21  H    0.000000   0.000000   0.000000   0.000000   0.000000   0.000000
    22  H    0.000000   0.000000   0.000000   0.000000   0.000000   0.000000
    23  H    0.000000   0.000000   0.000000   0.000000   0.000000   0.000000
    24  H    0.000000   0.000000   0.000000   0.000000   0.000000   0.000000
    25  H    0.000000   0.000000   0.000000   0.000000   0.000000   0.000000
    26  H    0.000000   0.000000   0.000000   0.000000   0.000000   0.000000
              19         20         21         22         23         24
     1  N    0.000000   0.000000   0.000000   0.000000   0.000000   0.000000
     2  C    0.000000   0.000000   0.000000   0.000000   0.000000   0.000000
     3  C    0.000000   0.000000   0.000000   0.000000   0.000000   0.000000
     4  C    0.000000   0.000000   0.000000   0.000000   0.000000   0.000000
     5  C    0.000000   0.000000   0.000000   0.000000   0.000000   0.000000
     6  C    0.000000   0.000000   0.000000   0.000000   0.000000   0.000000
     7  C    0.000000   0.000000   0.000000   0.000000   0.000000   0.000000
     8  N    0.000000   0.000000   0.000000   0.000000   0.000000   0.000000
     9  C    0.000000   0.000000   0.000000   0.000000   0.000000   0.000000
    10  C    0.000000   0.000000   0.000000   0.000000   0.000000   0.000000
    11  C    0.000000   0.000000   0.000000   0.000000   0.000000   0.000000
    12  C    0.000000   0.000000   0.000000   0.000000   0.000000   0.000000
    13  C    0.000000   0.000000   0.000000   0.000000   0.000000   0.000000
    14  C    0.000000   0.000000   0.000000   0.000000   0.000000   0.000000
    15  H    0.000000   0.000000   0.000000   0.000000   0.000000   0.000000
    16  H    0.000000   0.000000   0.000000   0.000000   0.000000   0.000000
    17  H    0.000000   0.000000   0.000000   0.000000   0.000000   0.000000
    18  H    0.000000   0.000000   0.000000   0.000000   0.000000   0.000000
    19  H    0.874919   0.000000   0.000000   0.000000   0.000000   0.000000
    20  H    0.000000   0.874899   0.000000   0.000000   0.000000   0.000000
    21  H    0.000000   0.000000   0.769189   0.000000   0.000000   0.000000
    22  H    0.000000   0.000000   0.000000   0.864521   0.000000   0.000000
    23  H    0.000000   0.000000   0.000000   0.000000   0.874899   0.000000
    24  H    0.000000   0.000000   0.000000   0.000000   0.000000   0.872184
    25  H    0.000000   0.000000   0.000000   0.000000   0.000000   0.000000
    26  H    0.000000   0.000000   0.000000   0.000000   0.000000   0.000000
              25         26
     1  N    0.000000   0.000000
     2  C    0.000000   0.000000
     3  C    0.000000   0.000000
     4  C    0.000000   0.000000
     5  C    0.000000   0.000000
     6  C    0.000000   0.000000
     7  C    0.000000   0.000000
     8  N    0.000000   0.000000
     9  C    0.000000   0.000000
    10  C    0.000000   0.000000
    11  C    0.000000   0.000000
    12  C    0.000000   0.000000
    13  C    0.000000   0.000000
    14  C    0.000000   0.000000
    15  H    0.000000   0.000000
    16  H    0.000000   0.000000
    17  H    0.000000   0.000000
    18  H    0.000000   0.000000
    19  H    0.000000   0.000000
    20  H    0.000000   0.000000
    21  H    0.000000   0.000000
    22  H    0.000000   0.000000
    23  H    0.000000   0.000000
    24  H    0.000000   0.000000
    25  H    0.874919   0.000000
    26  H    0.000000   0.875754
 Mulliken charges:
               1
     1  N   -0.267123
     2  C    0.068778
     3  C   -0.143618
     4  C   -0.100481
     5  C   -0.155568
     6  C   -0.104197
     7  C   -0.166324
     8  N   -0.267123
     9  C    0.068778
    10  C   -0.143618
    11  C   -0.166324
    12  C   -0.100481
    13  C   -0.104197
    14  C   -0.155568
    15  H    0.230811
    16  H    0.135479
    17  H    0.127816
    18  H    0.124246
    19  H    0.125081
    20  H    0.125101
    21  H    0.230811
    22  H    0.135479
    23  H    0.125101
    24  H    0.127816
    25  H    0.125081
    26  H    0.124246
 Sum of Mulliken charges =  -0.00000
 Mulliken charges with hydrogens summed into heavy atoms:
               1
     1  N   -0.036312
     2  C    0.068778
     3  C   -0.008139
     4  C    0.027335
     5  C   -0.031322
     6  C    0.020883
     7  C   -0.041224
     8  N   -0.036312
     9  C    0.068778
    10  C   -0.008139
    11  C   -0.041224
    12  C    0.027335
    13  C    0.020883
    14  C   -0.031322
 Charge=             -0.0000 electrons
 Dipole moment (field-independent basis, Debye):
    X=             -0.0000    Y=             -0.0000    Z=              1.0981  Tot=              1.0981
 N-N= 4.563757996219D+02 E-N=-8.139677018296D+02  KE=-4.816351485091D+01
 Symmetry A    KE=-2.512772452783D+01
 Symmetry B    KE=-2.303579032308D+01
 Calling FoFJK, ICntrl=      2127 FMM=F ISym2X=1 I1Cent= 0 IOpClX= 0 NMat=1 NMatS=1 NMatT=0.
 ***** Axes restored to original set *****
 -------------------------------------------------------------------
 Center     Atomic                   Forces (Hartrees/Bohr)
 Number     Number              X              Y              Z
 -------------------------------------------------------------------
      1        7           0.183963825    0.057949558    0.342652403
      2        6          -0.023456813   -0.062761637   -0.016827895
      3        6          -0.000685904    0.010709251    0.028876436
      4        6          -0.025286655   -0.035857349    0.019520910
      5        6          -0.009800011   -0.027563268   -0.020819969
      6        6           0.008596212   -0.007333563   -0.038848940
      7        6           0.019174842    0.026063331   -0.002942016
      8        7          -0.183963825    0.057949558   -0.342652403
      9        6           0.023456813   -0.062761637    0.016827895
     10        6           0.000685904    0.010709251   -0.028876436
     11        6          -0.019174842    0.026063331    0.002942016
     12        6           0.025286655   -0.035857349   -0.019520910
     13        6          -0.008596212   -0.007333563    0.038848940
     14        6           0.009800011   -0.027563268    0.020819969
     15        1          -0.001423025   -0.006169785    0.023357514
     16        1           0.011368279   -0.005889397   -0.053636488
     17        1           0.028379440    0.036441473   -0.027671998
     18        1           0.017726154    0.044599053    0.025654432
     19        1          -0.011360798    0.006716629    0.052831581
     20        1          -0.029659388   -0.036904296    0.030064785
     21        1           0.001423025   -0.006169785   -0.023357514
     22        1          -0.011368279   -0.005889397    0.053636488
     23        1           0.029659388   -0.036904296   -0.030064785
     24        1          -0.028379440    0.036441473    0.027671998
     25        1           0.011360798    0.006716629   -0.052831581
     26        1          -0.017726154    0.044599053   -0.025654432
 -------------------------------------------------------------------
 Cartesian Forces:  Max     0.342652403 RMS     0.068354061

 GradGradGradGradGradGradGradGradGradGradGradGradGradGradGradGradGradGrad
 Berny optimization.
 FormGI is forming the generalized inverse of G from B-inverse, IUseBI=4.
 GSVD:  received Info=                   1 from GESDD.
 Internal  Forces:  Max     0.398980442 RMS     0.039654087
 Search for a local minimum.
 Step number   1 out of a maximum of  139
 All quantities printed in internal units (Hartrees-Bohrs-Radians)
 Mixed Optimization -- RFO/linear search
 Second derivative matrix not updated -- first step.
 ITU=  0
     Eigenvalues ---    0.00453   0.00453   0.01691   0.01691   0.02176
     Eigenvalues ---    0.02176   0.02196   0.02196   0.02203   0.02203
     Eigenvalues ---    0.02231   0.02231   0.02241   0.02241   0.02246
     Eigenvalues ---    0.02246   0.02258   0.02258   0.02268   0.02268
     Eigenvalues ---    0.02396   0.02396   0.04338   0.16000   0.16000
     Eigenvalues ---    0.16000   0.16000   0.16000   0.16000   0.16000
     Eigenvalues ---    0.16000   0.16000   0.16000   0.16000   0.16000
     Eigenvalues ---    0.22000   0.22000   0.22000   0.22000   0.22000
     Eigenvalues ---    0.22000   0.23465   0.23465   0.24937   0.24937
     Eigenvalues ---    0.33053   0.33053   0.42477   0.42477   0.42477
     Eigenvalues ---    0.42477   0.42477   0.42477   0.42478   0.42478
     Eigenvalues ---    0.42478   0.42478   0.42610   0.42610   0.43197
     Eigenvalues ---    0.43197   0.46841   0.46841   0.47264   0.47264
     Eigenvalues ---    0.47823   0.47823   0.47848   0.47848   0.50521
     Eigenvalues ---    0.50521   1.21509
 RFO step:  Lambda=-1.89078348D-01 EMin= 4.52948152D-03
 Linear search not attempted -- first point.
 Maximum step size (   0.300) exceeded in Quadratic search.
    -- Step size scaled by   0.656
 Iteration  1 RMS(Cart)=  0.09471276 RMS(Int)=  0.00071727
 Iteration  2 RMS(Cart)=  0.00147489 RMS(Int)=  0.00003488
 Iteration  3 RMS(Cart)=  0.00000128 RMS(Int)=  0.00003487
 Iteration  4 RMS(Cart)=  0.00000000 RMS(Int)=  0.00003487
 ClnCor:  largest displacement from symmetrization is 4.16D-09 for atom    26.
 Variable       Old X    -DE/DX   Delta X   Delta X   Delta X     New X
                                 (Linear)    (Quad)   (Total)
    R1        2.82259  -0.05005   0.00000  -0.06324  -0.06324   2.75936
    R2        2.21085   0.39898   0.00000   0.18653   0.18653   2.39737
    R3        1.86044   0.01738   0.00000   0.01644   0.01644   1.87687
    R4        2.62128   0.02117   0.00000   0.02096   0.02096   2.64224
    R5        2.62897   0.03134   0.00000   0.03171   0.03172   2.66068
    R6        2.63842   0.00646   0.00000   0.00610   0.00609   2.64451
    R7        1.95020   0.05513   0.00000   0.05895   0.05895   2.00915
    R8        2.62578   0.01504   0.00000   0.01435   0.01434   2.64012
    R9        1.95019   0.05383   0.00000   0.05757   0.05757   2.00776
   R10        2.62128   0.01971   0.00000   0.01925   0.01925   2.64053
   R11        1.95019   0.05442   0.00000   0.05819   0.05819   2.00839
   R12        2.61878   0.01518   0.00000   0.01528   0.01529   2.63407
   R13        1.95020   0.05445   0.00000   0.05823   0.05823   2.00843
   R14        1.95020   0.05602   0.00000   0.05991   0.05991   2.01011
   R15        2.82259  -0.05005   0.00000  -0.06324  -0.06324   2.75936
   R16        1.86044   0.01738   0.00000   0.01644   0.01644   1.87687
   R17        2.62128   0.02117   0.00000   0.02096   0.02096   2.64224
   R18        2.62897   0.03134   0.00000   0.03171   0.03172   2.66068
   R19        2.63842   0.00646   0.00000   0.00610   0.00609   2.64451
   R20        1.95020   0.05513   0.00000   0.05895   0.05895   2.00915
   R21        2.61878   0.01518   0.00000   0.01528   0.01529   2.63407
   R22        1.95020   0.05602   0.00000   0.05991   0.05991   2.01011
   R23        2.62578   0.01504   0.00000   0.01435   0.01434   2.64012
   R24        1.95019   0.05383   0.00000   0.05757   0.05757   2.00776
   R25        2.62128   0.01971   0.00000   0.01925   0.01925   2.64053
   R26        1.95020   0.05445   0.00000   0.05823   0.05823   2.00843
   R27        1.95019   0.05442   0.00000   0.05819   0.05819   2.00839
    A1        2.14363   0.01752   0.00000   0.02811   0.02809   2.17173
    A2        2.06978  -0.02150   0.00000  -0.03802  -0.03803   2.03174
    A3        2.06978   0.00399   0.00000   0.00991   0.00990   2.07967
    A4        2.19247  -0.01770   0.00000  -0.02697  -0.02699   2.16548
    A5        2.00005   0.01528   0.00000   0.02241   0.02240   2.02246
    A6        2.08855   0.00255   0.00000   0.00500   0.00500   2.09354
    A7        2.09480  -0.00253   0.00000  -0.00444  -0.00445   2.09035
    A8        2.09419   0.00250   0.00000   0.00455   0.00456   2.09875
    A9        2.09419   0.00002   0.00000  -0.00011  -0.00011   2.09409
   A10        2.09189   0.00440   0.00000   0.00555   0.00553   2.09741
   A11        2.09565  -0.00327   0.00000  -0.00479  -0.00478   2.09087
   A12        2.09565  -0.00113   0.00000  -0.00076  -0.00075   2.09490
   A13        2.09649   0.00090   0.00000   0.00037   0.00037   2.09685
   A14        2.09335  -0.00057   0.00000  -0.00042  -0.00041   2.09293
   A15        2.09335  -0.00033   0.00000   0.00005   0.00005   2.09340
   A16        2.09186   0.00137   0.00000   0.00268   0.00269   2.09455
   A17        2.09566  -0.00024   0.00000  -0.00050  -0.00051   2.09515
   A18        2.09567  -0.00113   0.00000  -0.00218  -0.00219   2.09348
   A19        2.10277  -0.00669   0.00000  -0.00915  -0.00913   2.09364
   A20        2.09020   0.00589   0.00000   0.00936   0.00935   2.09955
   A21        2.09021   0.00080   0.00000  -0.00021  -0.00022   2.08999
   A22        2.14363   0.01752   0.00000   0.02811   0.02809   2.17173
   A23        2.06978   0.00399   0.00000   0.00991   0.00990   2.07967
   A24        2.06978  -0.02150   0.00000  -0.03802  -0.03803   2.03174
   A25        2.19247  -0.01770   0.00000  -0.02697  -0.02699   2.16548
   A26        2.00005   0.01528   0.00000   0.02241   0.02240   2.02246
   A27        2.08855   0.00255   0.00000   0.00500   0.00500   2.09354
   A28        2.09480  -0.00253   0.00000  -0.00444  -0.00445   2.09035
   A29        2.09419   0.00250   0.00000   0.00455   0.00456   2.09875
   A30        2.09419   0.00002   0.00000  -0.00011  -0.00011   2.09409
   A31        2.10277  -0.00669   0.00000  -0.00915  -0.00913   2.09364
   A32        2.09020   0.00589   0.00000   0.00936   0.00935   2.09955
   A33        2.09021   0.00080   0.00000  -0.00021  -0.00022   2.08999
   A34        2.09189   0.00440   0.00000   0.00555   0.00553   2.09741
   A35        2.09565  -0.00327   0.00000  -0.00479  -0.00478   2.09087
   A36        2.09565  -0.00113   0.00000  -0.00076  -0.00075   2.09490
   A37        2.09186   0.00137   0.00000   0.00268   0.00269   2.09455
   A38        2.09567  -0.00113   0.00000  -0.00218  -0.00219   2.09348
   A39        2.09566  -0.00024   0.00000  -0.00050  -0.00051   2.09515
   A40        2.09649   0.00090   0.00000   0.00037   0.00037   2.09685
   A41        2.09335  -0.00057   0.00000  -0.00042  -0.00041   2.09293
   A42        2.09335  -0.00033   0.00000   0.00005   0.00005   2.09340
    D1       -0.68389   0.00199   0.00000   0.00658   0.00653  -0.67735
    D2        2.38717   0.00444   0.00000   0.01423   0.01414   2.40132
    D3        2.45770  -0.00124   0.00000  -0.00336  -0.00328   2.45442
    D4       -0.75443   0.00122   0.00000   0.00429   0.00433  -0.75009
    D5       -0.47378  -0.01284   0.00000  -0.03709  -0.03721  -0.51099
    D6        2.66782  -0.00961   0.00000  -0.02715  -0.02715   2.64067
    D7        2.66782  -0.00961   0.00000  -0.02715  -0.02715   2.64067
    D8       -0.47377  -0.00639   0.00000  -0.01721  -0.01709  -0.49086
    D9        3.06778   0.00231   0.00000   0.00638   0.00630   3.07407
   D10       -0.07381   0.00230   0.00000   0.00657   0.00650  -0.06731
   D11        0.00000  -0.00066   0.00000  -0.00217  -0.00218  -0.00218
   D12       -3.14159  -0.00067   0.00000  -0.00199  -0.00197   3.13962
   D13       -3.08067  -0.00098   0.00000  -0.00427  -0.00438  -3.08506
   D14        0.06092  -0.00082   0.00000  -0.00359  -0.00369   0.05723
   D15       -0.00506   0.00037   0.00000   0.00142   0.00145  -0.00362
   D16        3.13653   0.00054   0.00000   0.00210   0.00214   3.13867
   D17        0.00502   0.00044   0.00000   0.00126   0.00125   0.00626
   D18       -3.13658   0.00015   0.00000   0.00052   0.00052  -3.13606
   D19       -3.13658   0.00045   0.00000   0.00108   0.00105  -3.13553
   D20        0.00501   0.00016   0.00000   0.00034   0.00032   0.00533
   D21       -0.00502   0.00009   0.00000   0.00044   0.00045  -0.00457
   D22        3.13657  -0.00007   0.00000  -0.00010  -0.00010   3.13648
   D23        3.13657   0.00039   0.00000   0.00118   0.00117   3.13775
   D24       -0.00502   0.00023   0.00000   0.00064   0.00063  -0.00439
   D25        0.00000  -0.00043   0.00000  -0.00126  -0.00125  -0.00125
   D26        3.14159  -0.00013   0.00000  -0.00052  -0.00053   3.14106
   D27        3.14159  -0.00027   0.00000  -0.00072  -0.00071   3.14089
   D28       -0.00000   0.00004   0.00000   0.00003   0.00002   0.00001
   D29        0.00507   0.00016   0.00000   0.00028   0.00026   0.00533
   D30       -3.13652   0.00000   0.00000  -0.00040  -0.00043  -3.13696
   D31       -3.13652  -0.00014   0.00000  -0.00046  -0.00047  -3.13698
   D32        0.00507  -0.00031   0.00000  -0.00114  -0.00116   0.00391
   D33       -0.68389   0.00199   0.00000   0.00658   0.00653  -0.67735
   D34        2.38717   0.00444   0.00000   0.01423   0.01414   2.40132
   D35        2.45770  -0.00124   0.00000  -0.00336  -0.00328   2.45442
   D36       -0.75443   0.00122   0.00000   0.00429   0.00433  -0.75009
   D37        3.06778   0.00231   0.00000   0.00638   0.00630   3.07407
   D38       -0.07381   0.00230   0.00000   0.00657   0.00650  -0.06731
   D39        0.00000  -0.00066   0.00000  -0.00217  -0.00218  -0.00218
   D40       -3.14159  -0.00067   0.00000  -0.00199  -0.00197   3.13962
   D41       -3.08067  -0.00098   0.00000  -0.00427  -0.00438  -3.08506
   D42        0.06092  -0.00082   0.00000  -0.00359  -0.00369   0.05723
   D43       -0.00506   0.00037   0.00000   0.00142   0.00145  -0.00362
   D44        3.13653   0.00054   0.00000   0.00210   0.00214   3.13867
   D45        0.00502   0.00044   0.00000   0.00126   0.00125   0.00626
   D46       -3.13658   0.00015   0.00000   0.00052   0.00052  -3.13606
   D47       -3.13658   0.00045   0.00000   0.00108   0.00105  -3.13553
   D48        0.00501   0.00016   0.00000   0.00034   0.00032   0.00533
   D49        0.00507   0.00016   0.00000   0.00028   0.00026   0.00533
   D50       -3.13652  -0.00014   0.00000  -0.00046  -0.00047  -3.13698
   D51       -3.13652   0.00000   0.00000  -0.00040  -0.00043  -3.13696
   D52        0.00507  -0.00031   0.00000  -0.00114  -0.00116   0.00391
   D53       -0.00502   0.00009   0.00000   0.00044   0.00045  -0.00457
   D54        3.13657  -0.00007   0.00000  -0.00010  -0.00010   3.13648
   D55        3.13657   0.00039   0.00000   0.00118   0.00117   3.13775
   D56       -0.00502   0.00023   0.00000   0.00064   0.00063  -0.00439
   D57        0.00000  -0.00043   0.00000  -0.00126  -0.00125  -0.00125
   D58        3.14159  -0.00027   0.00000  -0.00072  -0.00071   3.14089
   D59        3.14159  -0.00013   0.00000  -0.00052  -0.00053   3.14106
   D60       -0.00000   0.00004   0.00000   0.00003   0.00002   0.00001
         Item               Value     Threshold  Converged?
 Maximum Force            0.398980     0.000450     NO 
 RMS     Force            0.039654     0.000300     NO 
 Maximum Displacement     0.253342     0.001800     NO 
 RMS     Displacement     0.094354     0.001200     NO 
 Predicted change in Energy=-9.226153D-02
 GradGradGradGradGradGradGradGradGradGradGradGradGradGradGradGradGradGrad

                          Input orientation:                          
 ---------------------------------------------------------------------
 Center     Atomic      Atomic             Coordinates (Angstroms)
 Number     Number       Type             X           Y           Z
 ---------------------------------------------------------------------
      1          7           0        0.268402    2.407846    3.149734
      2          6           0        0.893530    3.573126    3.768997
      3          6           0        1.667099    4.508530    3.075018
      4          6           0        2.157115    5.636844    3.742215
      5          6           0        1.881363    5.825336    5.098792
      6          6           0        1.110192    4.890586    5.794500
      7          6           0        0.612886    3.767842    5.134908
      8          7           0       -0.268402    2.407846    2.000266
      9          6           0       -0.893530    3.573126    1.381003
     10          6           0       -1.667099    4.508530    2.074982
     11          6           0       -0.612886    3.767842    0.015092
     12          6           0       -2.157115    5.636844    1.407785
     13          6           0       -1.110192    4.890586   -0.644500
     14          6           0       -1.881363    5.825336    0.051208
     15          1           0        0.282202    1.566485    3.677338
     16          1           0        1.883415    4.365301    2.043959
     17          1           0        2.740740    6.350503    3.214113
     18          1           0        2.259473    6.681343    5.602591
     19          1           0        0.901769    5.035272    6.826587
     20          1           0        0.022745    3.061076    5.667530
     21          1           0       -0.282202    1.566485    1.472662
     22          1           0       -1.883415    4.365301    3.106041
     23          1           0       -0.022745    3.061076   -0.517530
     24          1           0       -2.740740    6.350503    1.935887
     25          1           0       -0.901769    5.035272   -1.676587
     26          1           0       -2.259473    6.681343   -0.452591
 ---------------------------------------------------------------------
                    Distance matrix (angstroms):
                    1          2          3          4          5
     1  N    0.000000
     2  C    1.460188   0.000000
     3  C    2.524839   1.398212   0.000000
     4  C    3.787440   2.419979   1.399414   0.000000
     5  C    4.252025   2.795822   2.423952   1.397093   0.000000
     6  C    3.723895   2.425965   2.802087   2.421740   1.397310
     7  C    2.430879   1.407973   2.429635   2.795962   2.417359
     8  N    1.268636   2.415859   3.051906   4.398176   5.089361
     9  C    2.415859   2.982633   3.209594   4.375008   5.156980
    10  C    3.051906   3.209594   3.480941   4.321733   4.844480
    11  C    3.528773   4.049568   3.887171   5.005749   6.024829
    12  C    4.398176   4.375008   4.321733   4.905319   5.474338
    13  C    4.739276   5.022903   4.657696   5.520459   6.542825
    14  C    5.089361   5.156980   4.844480   5.474338   6.295730
    15  H    0.993198   2.099697   3.307016   4.481889   4.766095
    16  H    2.768147   2.140833   1.063198   2.139114   3.385810
    17  H    4.654154   3.381406   2.136566   1.062459   2.136900
    18  H    5.314476   3.858611   3.385357   2.135990   1.062793
    19  H    4.563306   3.389217   3.864900   3.383952   2.137541
    20  H    2.612729   2.150556   3.394133   3.859657   3.379210
    21  H    1.955409   3.268349   3.875945   5.260129   5.997303
    22  H    2.909270   2.962849   3.553537   4.283389   4.502923
    23  H    3.736349   4.413170   4.225766   5.434317   6.542922
    24  H    5.106164   4.927681   4.911164   5.268882   5.625265
    25  H    5.618367   5.917377   5.427181   6.251566   7.367210
    26  H    6.134304   6.117536   5.708162   6.180100   6.978332
                    6          7          8          9         10
     6  C    0.000000
     7  C    1.393890   0.000000
     8  N    4.739276   3.528773   0.000000
     9  C    5.022903   4.049568   1.460188   0.000000
    10  C    4.657696   3.887171   2.524839   1.398212   0.000000
    11  C    6.134420   5.264507   2.430879   1.407973   2.429635
    12  C    5.520459   5.005749   3.787440   2.419979   1.399414
    13  C    6.811081   6.134420   3.723895   2.425965   2.802087
    14  C    6.542825   6.024829   4.252025   2.795822   2.423952
    15  H    4.027107   2.660796   1.955409   3.268349   3.875945
    16  H    3.865275   3.394873   2.909270   2.962849   3.553537
    17  H    3.383555   3.858413   5.106164   4.927681   4.911164
    18  H    2.136466   3.379122   6.134304   6.117536   5.708162
    19  H    1.062815   2.133450   5.618367   5.917377   5.427181
    20  H    2.132080   1.063706   3.736349   4.413170   4.225766
    21  H    5.627316   4.365684   0.993198   2.099697   3.307016
    22  H    4.057760   3.271816   2.768147   2.140833   1.063198
    23  H    6.668761   5.731806   2.612729   2.150556   3.394133
    24  H    5.643574   5.305722   4.654154   3.381406   2.136566
    25  H    7.738608   7.092039   4.563306   3.389217   3.864900
    26  H    7.320355   6.925250   5.314476   3.858611   3.385357
                   11         12         13         14         15
    11  C    0.000000
    12  C    2.795962   0.000000
    13  C    1.393890   2.421740   0.000000
    14  C    2.417359   1.397093   1.397310   0.000000
    15  H    4.365684   5.260129   5.627316   5.997303   0.000000
    16  H    3.271816   4.283389   4.057760   4.502923   3.614578
    17  H    5.305722   5.268882   5.643574   5.625265   5.398686
    18  H    6.925250   6.180100   7.320355   6.978332   5.811882
    19  H    7.092039   6.251566   7.738608   7.367210   4.725898
    20  H    5.731806   5.434317   6.668761   6.542922   2.502396
    21  H    2.660796   4.481889   4.027107   4.766095   2.275774
    22  H    3.394873   2.139114   3.865275   3.385810   3.584640
    23  H    1.063706   3.859657   2.132080   3.379210   4.463598
    24  H    3.858413   1.062459   3.383555   2.136900   5.920951
    25  H    2.133450   3.383952   1.062815   2.137541   6.488357
    26  H    3.379122   2.135990   2.136466   1.062793   7.048276
                   16         17         18         19         20
    16  H    0.000000
    17  H    2.458718   0.000000
    18  H    4.262550   2.458841   0.000000
    19  H    4.928084   4.261644   2.459893   0.000000
    20  H    4.277073   4.922101   4.255995   2.452253   0.000000
    21  H    3.584640   5.920951   7.048276   6.488357   4.463598
    22  H    3.913696   5.033440   5.362866   4.695591   3.449011
    23  H    3.449011   5.690548   7.467981   7.660824   6.185227
    24  H    5.033440   5.628541   6.209372   6.238321   5.690548
    25  H    4.695591   6.238321   8.104902   8.692336   7.660824
    26  H    5.362866   6.209372   7.555535   8.104902   7.467981
                   21         22         23         24         25
    21  H    0.000000
    22  H    3.614578   0.000000
    23  H    2.502396   4.277073   0.000000
    24  H    5.398686   2.458718   4.922101   0.000000
    25  H    4.725898   4.928084   2.452253   4.261644   0.000000
    26  H    5.811882   4.262550   4.255995   2.458841   2.459893
                   26
    26  H    0.000000
 Stoichiometry    C12H12N2
 Framework group  C2[X(C12H12N2)]
 Deg. of freedom    37
 Full point group                 C2      NOp   2
 Largest Abelian subgroup         C2      NOp   2
 Largest concise Abelian subgroup C2      NOp   2
                         Standard orientation:                         
 ---------------------------------------------------------------------
 Center     Atomic      Atomic             Coordinates (Angstroms)
 Number     Number       Type             X           Y           Z
 ---------------------------------------------------------------------
      1          7           0       -0.027463    0.633723    1.941715
      2          6           0        0.240884    1.471733    0.776435
      3          6           0        1.247555    1.213608   -0.158970
      4          6           0        1.373928    2.031714   -1.287283
      5          6           0        0.502672    3.107471   -1.475776
      6          6           0       -0.502672    3.368238   -0.541025
      7          6           0       -0.639022    2.553509    0.581719
      8          7           0        0.027463   -0.633723    1.941715
      9          6           0       -0.240884   -1.471733    0.776435
     10          6           0       -1.247555   -1.213608   -0.158970
     11          6           0        0.639022   -2.553509    0.581719
     12          6           0       -1.373928   -2.031714   -1.287283
     13          6           0        0.502672   -3.368238   -0.541025
     14          6           0       -0.502672   -3.107471   -1.475776
     15          1           0       -0.258958    1.108029    2.783076
     16          1           0        1.915719    0.399094   -0.015740
     17          1           0        2.135508    1.832955   -2.000943
     18          1           0        0.605278    3.728963   -2.331782
     19          1           0       -1.164310    4.187309   -0.685711
     20          1           0       -1.408470    2.753266    1.288484
     21          1           0        0.258958   -1.108029    2.783076
     22          1           0       -1.915719   -0.399094   -0.015740
     23          1           0        1.408470   -2.753266    1.288484
     24          1           0       -2.135508   -1.832955   -2.000943
     25          1           0        1.164310   -4.187309   -0.685711
     26          1           0       -0.605278   -3.728963   -2.331782
 ---------------------------------------------------------------------
 Rotational constants (GHZ):      1.2897250      0.4694287      0.4148332
 Standard basis: VSTO-6G (5D, 7F)
 There are    34 symmetry adapted cartesian basis functions of A   symmetry.
 There are    34 symmetry adapted cartesian basis functions of B   symmetry.
 There are    34 symmetry adapted basis functions of A   symmetry.
 There are    34 symmetry adapted basis functions of B   symmetry.
    68 basis functions,   408 primitive gaussians,    68 cartesian basis functions
    35 alpha electrons       35 beta electrons
       nuclear repulsion energy       450.7723082715 Hartrees.
 Integral buffers will be    131072 words long.
 Regular integral format.
 Two-electron integral symmetry is turned off.
 Do NDO integrals.
 One-electron integrals computed using PRISM.
 NBasis=    68 RedAO= T EigKep=  7.07D-01  NBF=    34    34
 NBsUse=    68 1.00D-06 EigRej= -1.00D+00 NBFU=    34    34
 Initial guess from the checkpoint file:  "cis.chk"
 B after Tr=    -0.000000   -0.000000   -0.000000
         Rot=    0.998127    0.000000   -0.000000    0.061173 Ang=   7.01 deg.
 Initial guess orbital symmetries:
       Occupied  (A) (B) (A) (B) (A) (B) (A) (B) (A) (A) (B) (B)
                 (A) (A) (B) (A) (B) (B) (A) (A) (B) (B) (A) (B)
                 (A) (B) (A) (B) (A) (B) (A) (A) (B) (B) (A)
       Virtual   (B) (A) (B) (A) (B) (A) (B) (A) (A) (B) (B) (A)
                 (B) (A) (A) (B) (A) (B) (A) (B) (A) (B) (A) (B)
                 (B) (A) (A) (B) (A) (B) (A) (B) (B)
 Overlap will be assumed to be unity.
 Keep J ints in memory in canonical form, NReq=921852.
 Requested convergence on RMS density matrix=1.00D-08 within 128 cycles.
 Requested convergence on MAX density matrix=1.00D-06.
 Requested convergence on             energy=1.00D-06.
 No special actions if energy rises.
 Fock symm off for IB=2 I1=    1 I=   35 J=   13 Cut=1.00D-07 Err=9.06D-04
 Fock matrix is not symmetric: symmetry in diagonalization turned off.
 SCF Done:  E(RAM1) =  0.189396829443     A.U. after   14 cycles
            NFock= 13  Conv=0.70D-08     -V/T= 1.0040
 Calling FoFJK, ICntrl=      2127 FMM=F ISym2X=1 I1Cent= 0 IOpClX= 0 NMat=1 NMatS=1 NMatT=0.
 ***** Axes restored to original set *****
 -------------------------------------------------------------------
 Center     Atomic                   Forces (Hartrees/Bohr)
 Number     Number              X              Y              Z
 -------------------------------------------------------------------
      1        7           0.071148053    0.036780774    0.125245787
      2        6          -0.024450342   -0.038356152   -0.014885833
      3        6           0.000413597    0.008305309    0.019729039
      4        6          -0.017390471   -0.022560375    0.015213629
      5        6          -0.008018304   -0.019527266   -0.013695767
      6        6           0.007040161   -0.005652392   -0.028646181
      7        6           0.015808171    0.018760353   -0.003460293
      8        7          -0.071148053    0.036780774   -0.125245787
      9        6           0.024450342   -0.038356152    0.014885833
     10        6          -0.000413597    0.008305309   -0.019729039
     11        6          -0.015808171    0.018760353    0.003460293
     12        6           0.017390471   -0.022560375   -0.015213629
     13        6          -0.007040161   -0.005652392    0.028646181
     14        6           0.008018304   -0.019527266    0.013695767
     15        1          -0.006856590   -0.001161184    0.003663896
     16        1           0.005252792   -0.002757544   -0.026827612
     17        1           0.015106054    0.018050865   -0.013989997
     18        1           0.009365089    0.021930801    0.012788690
     19        1          -0.005653001    0.003595323    0.026376560
     20        1          -0.015075398   -0.017408512    0.014517802
     21        1           0.006856590   -0.001161184   -0.003663896
     22        1          -0.005252792   -0.002757544    0.026827612
     23        1           0.015075398   -0.017408512   -0.014517802
     24        1          -0.015106054    0.018050865    0.013989997
     25        1           0.005653001    0.003595323   -0.026376560
     26        1          -0.009365089    0.021930801   -0.012788690
 -------------------------------------------------------------------
 Cartesian Forces:  Max     0.125245787 RMS     0.028565130

 GradGradGradGradGradGradGradGradGradGradGradGradGradGradGradGradGradGrad
 Berny optimization.
 Using GEDIIS/GDIIS optimizer.
 FormGI is forming the generalized inverse of G from B-inverse, IUseBI=4.
 Internal  Forces:  Max     0.124886758 RMS     0.014604691
 Search for a local minimum.
 Step number   2 out of a maximum of  139
 All quantities printed in internal units (Hartrees-Bohrs-Radians)
 Mixed Optimization -- RFO/linear search
 Update second derivatives using D2CorX and points    1    2
 DE= -8.38D-02 DEPred=-9.23D-02 R= 9.09D-01
 TightC=F SS=  1.41D+00  RLast= 3.06D-01 DXNew= 5.0454D-01 9.1947D-01
 Trust test= 9.09D-01 RLast= 3.06D-01 DXMaxT set to 5.05D-01
 ITU=  1  0
 Use linear search instead of GDIIS.
     Eigenvalues ---    0.00453   0.00453   0.01692   0.01693   0.02176
     Eigenvalues ---    0.02176   0.02196   0.02196   0.02203   0.02203
     Eigenvalues ---    0.02231   0.02231   0.02241   0.02241   0.02246
     Eigenvalues ---    0.02246   0.02258   0.02258   0.02268   0.02268
     Eigenvalues ---    0.02445   0.02448   0.04369   0.15996   0.16000
     Eigenvalues ---    0.16000   0.16000   0.16000   0.16000   0.16000
     Eigenvalues ---    0.16000   0.16000   0.16000   0.16000   0.16257
     Eigenvalues ---    0.21989   0.22000   0.22000   0.22000   0.22000
     Eigenvalues ---    0.22235   0.23468   0.23507   0.24912   0.24950
     Eigenvalues ---    0.31196   0.33053   0.42047   0.42477   0.42477
     Eigenvalues ---    0.42477   0.42477   0.42477   0.42478   0.42478
     Eigenvalues ---    0.42478   0.42497   0.42675   0.42676   0.43229
     Eigenvalues ---    0.43290   0.46844   0.46979   0.47264   0.47520
     Eigenvalues ---    0.47823   0.47828   0.47849   0.49563   0.50521
     Eigenvalues ---    0.51398   1.41642
 RFO step:  Lambda=-3.48961787D-02 EMin= 4.52696476D-03
 Quartic linear search produced a step of  0.87494.
 Iteration  1 RMS(Cart)=  0.15746282 RMS(Int)=  0.00506750
 Iteration  2 RMS(Cart)=  0.01341302 RMS(Int)=  0.00069554
 Iteration  3 RMS(Cart)=  0.00006802 RMS(Int)=  0.00069444
 Iteration  4 RMS(Cart)=  0.00000005 RMS(Int)=  0.00069444
 ClnCor:  largest displacement from symmetrization is 3.09D-08 for atom    21.
 Variable       Old X    -DE/DX   Delta X   Delta X   Delta X     New X
                                 (Linear)    (Quad)   (Total)
    R1        2.75936  -0.04142  -0.05533  -0.13286  -0.18819   2.57117
    R2        2.39737   0.12489   0.16320  -0.04251   0.12069   2.51806
    R3        1.87687   0.00283   0.01438  -0.01033   0.00405   1.88092
    R4        2.64224   0.00700   0.01834   0.00065   0.01909   2.66133
    R5        2.66068   0.00826   0.02775  -0.00695   0.02094   2.68162
    R6        2.64451  -0.00342   0.00533  -0.02069  -0.01538   2.62913
    R7        2.00915   0.02746   0.05158   0.03874   0.09032   2.09947
    R8        2.64012  -0.00107   0.01255  -0.02289  -0.01048   2.62964
    R9        2.00776   0.02738   0.05037   0.04010   0.09047   2.09822
   R10        2.64053   0.00129   0.01685  -0.01980  -0.00308   2.63746
   R11        2.00839   0.02706   0.05092   0.03805   0.08897   2.09735
   R12        2.63407  -0.00069   0.01338  -0.02063  -0.00723   2.62684
   R13        2.00843   0.02721   0.05095   0.03863   0.08958   2.09801
   R14        2.01011   0.02720   0.05242   0.03653   0.08895   2.09906
   R15        2.75936  -0.04142  -0.05533  -0.13286  -0.18819   2.57117
   R16        1.87687   0.00283   0.01438  -0.01033   0.00405   1.88092
   R17        2.64224   0.00700   0.01834   0.00065   0.01909   2.66133
   R18        2.66068   0.00826   0.02775  -0.00695   0.02094   2.68162
   R19        2.64451  -0.00342   0.00533  -0.02069  -0.01538   2.62913
   R20        2.00915   0.02746   0.05158   0.03874   0.09032   2.09947
   R21        2.63407  -0.00069   0.01338  -0.02063  -0.00723   2.62684
   R22        2.01011   0.02720   0.05242   0.03653   0.08895   2.09906
   R23        2.64012  -0.00107   0.01255  -0.02289  -0.01048   2.62964
   R24        2.00776   0.02738   0.05037   0.04010   0.09047   2.09822
   R25        2.64053   0.00129   0.01685  -0.01980  -0.00308   2.63746
   R26        2.00843   0.02721   0.05095   0.03863   0.08958   2.09801
   R27        2.00839   0.02706   0.05092   0.03805   0.08897   2.09735
    A1        2.17173   0.00466   0.02458  -0.00050   0.02375   2.19548
    A2        2.03174  -0.00129  -0.03328   0.03928   0.00566   2.03740
    A3        2.07967  -0.00338   0.00866  -0.03911  -0.03078   2.04890
    A4        2.16548  -0.00989  -0.02361  -0.03245  -0.05718   2.10830
    A5        2.02246   0.01065   0.01960   0.04113   0.05950   2.08195
    A6        2.09354  -0.00063   0.00437  -0.00456  -0.00078   2.09276
    A7        2.09035  -0.00112  -0.00390  -0.00199  -0.00566   2.08468
    A8        2.09875   0.00119   0.00399   0.00417   0.00805   2.10680
    A9        2.09409  -0.00008  -0.00009  -0.00218  -0.00239   2.09170
   A10        2.09741   0.00238   0.00484   0.00627   0.01110   2.10851
   A11        2.09087  -0.00169  -0.00418  -0.00542  -0.00960   2.08127
   A12        2.09490  -0.00069  -0.00066  -0.00085  -0.00151   2.09339
   A13        2.09685   0.00009   0.00032  -0.00500  -0.00479   2.09206
   A14        2.09293  -0.00001  -0.00036   0.00315   0.00284   2.09577
   A15        2.09340  -0.00008   0.00004   0.00185   0.00194   2.09534
   A16        2.09455   0.00211   0.00236   0.01092   0.01333   2.10788
   A17        2.09515  -0.00080  -0.00044  -0.00402  -0.00450   2.09066
   A18        2.09348  -0.00132  -0.00191  -0.00691  -0.00886   2.08463
   A19        2.09364  -0.00283  -0.00799  -0.00568  -0.01339   2.08025
   A20        2.09955   0.00253   0.00818   0.00763   0.01564   2.11520
   A21        2.08999   0.00030  -0.00019  -0.00195  -0.00233   2.08766
   A22        2.17173   0.00466   0.02458  -0.00050   0.02375   2.19548
   A23        2.07967  -0.00338   0.00866  -0.03911  -0.03078   2.04890
   A24        2.03174  -0.00129  -0.03328   0.03928   0.00566   2.03740
   A25        2.16548  -0.00989  -0.02361  -0.03245  -0.05718   2.10830
   A26        2.02246   0.01065   0.01960   0.04113   0.05950   2.08195
   A27        2.09354  -0.00063   0.00437  -0.00456  -0.00078   2.09276
   A28        2.09035  -0.00112  -0.00390  -0.00199  -0.00566   2.08468
   A29        2.09875   0.00119   0.00399   0.00417   0.00805   2.10680
   A30        2.09409  -0.00008  -0.00009  -0.00218  -0.00239   2.09170
   A31        2.09364  -0.00283  -0.00799  -0.00568  -0.01339   2.08025
   A32        2.09955   0.00253   0.00818   0.00763   0.01564   2.11520
   A33        2.08999   0.00030  -0.00019  -0.00195  -0.00233   2.08766
   A34        2.09741   0.00238   0.00484   0.00627   0.01110   2.10851
   A35        2.09087  -0.00169  -0.00418  -0.00542  -0.00960   2.08127
   A36        2.09490  -0.00069  -0.00066  -0.00085  -0.00151   2.09339
   A37        2.09455   0.00211   0.00236   0.01092   0.01333   2.10788
   A38        2.09348  -0.00132  -0.00191  -0.00691  -0.00886   2.08463
   A39        2.09515  -0.00080  -0.00044  -0.00402  -0.00450   2.09066
   A40        2.09685   0.00009   0.00032  -0.00500  -0.00479   2.09206
   A41        2.09293  -0.00001  -0.00036   0.00315   0.00284   2.09577
   A42        2.09340  -0.00008   0.00004   0.00185   0.00194   2.09534
    D1       -0.67735   0.00169   0.00572   0.07118   0.07715  -0.60020
    D2        2.40132   0.00405   0.01238   0.14728   0.15976   2.56108
    D3        2.45442   0.00003  -0.00287   0.03108   0.02810   2.48253
    D4       -0.75009   0.00239   0.00379   0.10717   0.11071  -0.63938
    D5       -0.51099  -0.00731  -0.03256  -0.14050  -0.17268  -0.68368
    D6        2.64067  -0.00561  -0.02376  -0.09978  -0.12354   2.51713
    D7        2.64067  -0.00561  -0.02376  -0.09978  -0.12354   2.51713
    D8       -0.49086  -0.00392  -0.01495  -0.05906  -0.07439  -0.56525
    D9        3.07407   0.00233   0.00551   0.06368   0.06663   3.14070
   D10       -0.06731   0.00233   0.00569   0.06579   0.06939   0.00208
   D11       -0.00218  -0.00049  -0.00190  -0.01683  -0.01852  -0.02070
   D12        3.13962  -0.00049  -0.00173  -0.01472  -0.01576   3.12386
   D13       -3.08506  -0.00166  -0.00383  -0.06154  -0.06807   3.13006
   D14        0.05723  -0.00130  -0.00322  -0.04977  -0.05515   0.00209
   D15       -0.00362   0.00022   0.00127   0.01003   0.01159   0.00797
   D16        3.13867   0.00058   0.00187   0.02181   0.02451  -3.12000
   D17        0.00626   0.00033   0.00109   0.00953   0.01014   0.01641
   D18       -3.13606   0.00014   0.00046   0.00514   0.00559  -3.13047
   D19       -3.13553   0.00033   0.00091   0.00743   0.00741  -3.12813
   D20        0.00533   0.00013   0.00028   0.00304   0.00285   0.00818
   D21       -0.00457   0.00011   0.00039   0.00472   0.00531   0.00074
   D22        3.13648   0.00000  -0.00008   0.00091   0.00102   3.13750
   D23        3.13775   0.00030   0.00103   0.00912   0.00990  -3.13553
   D24       -0.00439   0.00020   0.00055   0.00530   0.00561   0.00122
   D25       -0.00125  -0.00041  -0.00110  -0.01165  -0.01255  -0.01380
   D26        3.14106  -0.00011  -0.00046  -0.00487  -0.00557   3.13549
   D27        3.14089  -0.00031  -0.00062  -0.00784  -0.00826   3.13262
   D28        0.00001  -0.00000   0.00001  -0.00105  -0.00128  -0.00126
   D29        0.00533   0.00023   0.00023   0.00426   0.00398   0.00931
   D30       -3.13696  -0.00012  -0.00038  -0.00745  -0.00873   3.13750
   D31       -3.13698  -0.00007  -0.00041  -0.00252  -0.00298  -3.13996
   D32        0.00391  -0.00042  -0.00101  -0.01423  -0.01568  -0.01177
   D33       -0.67735   0.00169   0.00572   0.07118   0.07715  -0.60020
   D34        2.40132   0.00405   0.01238   0.14728   0.15976   2.56108
   D35        2.45442   0.00003  -0.00287   0.03108   0.02810   2.48253
   D36       -0.75009   0.00239   0.00379   0.10717   0.11071  -0.63938
   D37        3.07407   0.00233   0.00551   0.06368   0.06663   3.14070
   D38       -0.06731   0.00233   0.00569   0.06579   0.06939   0.00208
   D39       -0.00218  -0.00049  -0.00190  -0.01683  -0.01852  -0.02070
   D40        3.13962  -0.00049  -0.00173  -0.01472  -0.01576   3.12386
[...]
                    6          7          8          9         10
     6  C    0.000000
     7  C    1.391203   0.000000
     8  N    4.774720   3.606488   0.000000
     9  C    6.022973   4.817296   1.435055   0.000000
    10  C    6.342938   5.198620   2.485783   1.409639   0.000000
    11  C    7.218158   5.997707   2.453935   1.412450   2.430723
    12  C    7.715657   6.574218   3.749182   2.426294   1.392247
    13  C    8.443668   7.218158   3.729158   2.430267   2.794010
    14  C    8.668301   7.472199   4.240932   2.810053   2.422224
    15  H    3.882732   2.497222   1.992898   2.857515   3.444466
    16  H    3.894849   3.435941   2.663235   3.563554   3.883301
    17  H    3.407341   3.889351   4.952078   6.001785   6.222395
    18  H    2.165969   3.414179   6.124396   7.353617   7.600022
    19  H    1.100296   2.156877   5.722984   6.961114   7.269890
    20  H    2.154435   1.100597   3.921720   5.026267   5.422898
    21  H    5.055913   3.889108   1.014801   2.013245   3.302338
    22  H    5.697196   4.646551   2.740765   2.185288   1.100954
    23  H    7.330759   6.134512   2.688846   2.188339   3.435663
    24  H    8.169185   7.095812   4.637416   3.420793   2.156569
    25  H    9.370103   8.139482   4.607253   3.425017   3.894304
    26  H    9.727913   8.537663   5.339534   3.909147   3.417448
                   11         12         13         14         15
    11  C    0.000000
    12  C    2.788829   0.000000
    13  C    1.391203   2.408819   0.000000
    14  C    2.418661   1.393804   1.393831   0.000000
    15  H    3.889108   4.721943   5.055913   5.405362   0.000000
    16  H    4.646551   5.102857   5.697196   5.897332   3.697198
    17  H    7.095812   7.433948   8.169185   8.326210   5.411175
    18  H    8.537663   8.925843   9.727913   9.908426   5.755421
    19  H    8.139482   8.631783   9.370103   9.595083   4.581837
    20  H    6.134512   6.749405   7.330759   7.602775   2.301721
    21  H    2.497222   4.437686   3.882732   4.675557   2.220168
    22  H    3.435941   2.158677   3.894849   3.414223   3.297752
    23  H    1.100597   3.889295   2.154435   3.409298   4.089082
    24  H    3.889351   1.100526   3.407341   2.163887   5.421657
    25  H    2.156877   3.407728   1.100296   2.164682   5.936041
    26  H    3.414179   2.166607   2.165969   1.099096   6.461800
                   16         17         18         19         20
    16  H    0.000000
    17  H    2.473496   0.000000
    18  H    4.317490   2.495846   0.000000
    19  H    4.995138   4.317629   2.496219   0.000000
    20  H    4.357974   4.989808   4.312460   2.469717   0.000000
    21  H    3.297752   5.421657   6.461800   5.936041   4.089082
    22  H    3.549999   5.664271   6.906358   6.600944   4.927225
    23  H    4.927225   7.276278   8.650503   8.221871   6.246847
    24  H    5.664271   7.841909   9.307429   9.057233   7.276278
    25  H    6.600944   9.057233  10.649742  10.287466   8.221871
    26  H    6.906358   9.307429  10.941116  10.649742   8.650503
                   21         22         23         24         25
    21  H    0.000000
    22  H    3.697198   0.000000
    23  H    2.301721   4.357974   0.000000
    24  H    5.411175   2.473496   4.989808   0.000000
    25  H    4.581837   4.995138   2.469717   4.317629   0.000000
    26  H    5.755421   4.317490   4.312460   2.495846   2.496219
                   26
    26  H    0.000000
 Stoichiometry    C12H12N2
 Framework group  C2[X(C12H12N2)]
 Deg. of freedom    37
 Full point group                 C2      NOp   2
 Largest Abelian subgroup         C2      NOp   2
 Largest concise Abelian subgroup C2      NOp   2
                         Standard orientation:                         
 ---------------------------------------------------------------------
 Center     Atomic      Atomic             Coordinates (Angstroms)
 Number     Number       Type             X           Y           Z
 ---------------------------------------------------------------------
      1          7           0       -0.479947    0.493923    0.690097
      2          6           0       -0.030542    1.800712    0.303160
      3          6           0        0.897468    1.988328   -0.741195
      4          6           0        1.212024    3.275139   -1.169591
      5          6           0        0.618589    4.388899   -0.577929
      6          6           0       -0.297435    4.211343    0.457512
      7          6           0       -0.618589    2.934360    0.906533
      8          7           0        0.479947   -0.493923    0.690097
      9          6           0        0.030542   -1.800712    0.303160
     10          6           0       -0.897468   -1.988328   -0.741195
     11          6           0        0.618589   -2.934360    0.906533
     12          6           0       -1.212024   -3.275139   -1.169591
     13          6           0        0.297435   -4.211343    0.457512
     14          6           0       -0.618589   -4.388899   -0.577929
     15          1           0       -0.961611    0.554608    1.581240
     16          1           0        1.374302    1.123351   -1.227552
     17          1           0        1.936750    3.409235   -1.986871
     18          1           0        0.871238    5.400736   -0.924867
     19          1           0       -0.769760    5.085810    0.929603
     20          1           0       -1.343368    2.819776    1.726826
     21          1           0        0.961611   -0.554608    1.581240
     22          1           0       -1.374302   -1.123351   -1.227552
     23          1           0        1.343368   -2.819776    1.726826
     24          1           0       -1.936750   -3.409235   -1.986871
     25          1           0        0.769760   -5.085810    0.929603
     26          1           0       -0.871238   -5.400736   -0.924867
 ---------------------------------------------------------------------
 Rotational constants (GHZ):      2.4040490      0.2829252      0.2783371

 **********************************************************************

            Population analysis using the SCF density.

 **********************************************************************

 Orbital symmetries:
       Occupied  (A) (B) (A) (B) (A) (B) (A) (B) (A) (B) (A) (B)
                 (A) (B) (A) (B) (A) (B) (A) (A) (B) (A) (B) (B)
                 (A) (B) (A) (B) (A) (B) (A) (B) (A) (B) (A)
       Virtual   (B) (A) (B) (A) (B) (B) (A) (A) (B) (A) (B) (A)
                 (A) (B) (B) (A) (B) (A) (B) (A) (B) (A) (B) (A)
                 (B) (A) (B) (A) (B) (A) (B) (A) (B)
 The electronic state is 1-A.
 Alpha  occ. eigenvalues --   -1.47366  -1.44007  -1.36802  -1.21340  -1.15617
 Alpha  occ. eigenvalues --   -1.15356  -1.10433  -1.00656  -0.86241  -0.85255
 Alpha  occ. eigenvalues --   -0.83800  -0.80462  -0.67520  -0.66474  -0.66386
 Alpha  occ. eigenvalues --   -0.61667  -0.61287  -0.56600  -0.55071  -0.54559
 Alpha  occ. eigenvalues --   -0.54455  -0.51993  -0.51940  -0.50370  -0.49603
 Alpha  occ. eigenvalues --   -0.45692  -0.45656  -0.43924  -0.43385  -0.41643
 Alpha  occ. eigenvalues --   -0.41172  -0.35648  -0.35641  -0.32703  -0.32351
 Alpha virt. eigenvalues --    0.01181   0.01922   0.02084   0.02245   0.07346
 Alpha virt. eigenvalues --    0.10726   0.10826   0.12160   0.14385   0.14635
 Alpha virt. eigenvalues --    0.14689   0.14699   0.15371   0.15382   0.16246
 Alpha virt. eigenvalues --    0.16379   0.16820   0.16944   0.17337   0.17405
 Alpha virt. eigenvalues --    0.18602   0.18972   0.19510   0.19834   0.20161
 Alpha virt. eigenvalues --    0.20452   0.20778   0.20890   0.21118   0.21262
 Alpha virt. eigenvalues --    0.22682   0.22853   0.24996
          Condensed to atoms (all electrons):
               1          2          3          4          5          6
     1  N    5.176752   0.000000   0.000000   0.000000   0.000000   0.000000
     2  C    0.000000   3.975851   0.000000   0.000000   0.000000   0.000000
     3  C    0.000000   0.000000   4.128801   0.000000   0.000000   0.000000
     4  C    0.000000   0.000000   0.000000   4.115333   0.000000   0.000000
     5  C    0.000000   0.000000   0.000000   0.000000   4.150520   0.000000
     6  C    0.000000   0.000000   0.000000   0.000000   0.000000   4.110119
     7  C    0.000000   0.000000   0.000000   0.000000   0.000000   0.000000
     8  N    0.000000   0.000000   0.000000   0.000000   0.000000   0.000000
     9  C    0.000000   0.000000   0.000000   0.000000   0.000000   0.000000
    10  C    0.000000   0.000000   0.000000   0.000000   0.000000   0.000000
    11  C    0.000000   0.000000   0.000000   0.000000   0.000000   0.000000
    12  C    0.000000   0.000000   0.000000   0.000000   0.000000   0.000000
    13  C    0.000000   0.000000   0.000000   0.000000   0.000000   0.000000
    14  C    0.000000   0.000000   0.000000   0.000000   0.000000   0.000000
    15  H    0.000000   0.000000   0.000000   0.000000   0.000000   0.000000
    16  H    0.000000   0.000000   0.000000   0.000000   0.000000   0.000000
    17  H    0.000000   0.000000   0.000000   0.000000   0.000000   0.000000
    18  H    0.000000   0.000000   0.000000   0.000000   0.000000   0.000000
    19  H    0.000000   0.000000   0.000000   0.000000   0.000000   0.000000
    20  H    0.000000   0.000000   0.000000   0.000000   0.000000   0.000000
    21  H    0.000000   0.000000   0.000000   0.000000   0.000000   0.000000
    22  H    0.000000   0.000000   0.000000   0.000000   0.000000   0.000000
    23  H    0.000000   0.000000   0.000000   0.000000   0.000000   0.000000
    24  H    0.000000   0.000000   0.000000   0.000000   0.000000   0.000000
    25  H    0.000000   0.000000   0.000000   0.000000   0.000000   0.000000
    26  H    0.000000   0.000000   0.000000   0.000000   0.000000   0.000000
               7          8          9         10         11         12
     1  N    0.000000   0.000000   0.000000   0.000000   0.000000   0.000000
     2  C    0.000000   0.000000   0.000000   0.000000   0.000000   0.000000
     3  C    0.000000   0.000000   0.000000   0.000000   0.000000   0.000000
     4  C    0.000000   0.000000   0.000000   0.000000   0.000000   0.000000
     5  C    0.000000   0.000000   0.000000   0.000000   0.000000   0.000000
     6  C    0.000000   0.000000   0.000000   0.000000   0.000000   0.000000
     7  C    4.174009   0.000000   0.000000   0.000000   0.000000   0.000000
     8  N    0.000000   5.176752   0.000000   0.000000   0.000000   0.000000
     9  C    0.000000   0.000000   3.975851   0.000000   0.000000   0.000000
    10  C    0.000000   0.000000   0.000000   4.128801   0.000000   0.000000
    11  C    0.000000   0.000000   0.000000   0.000000   4.174009   0.000000
    12  C    0.000000   0.000000   0.000000   0.000000   0.000000   4.115333
    13  C    0.000000   0.000000   0.000000   0.000000   0.000000   0.000000
    14  C    0.000000   0.000000   0.000000   0.000000   0.000000   0.000000
    15  H    0.000000   0.000000   0.000000   0.000000   0.000000   0.000000
    16  H    0.000000   0.000000   0.000000   0.000000   0.000000   0.000000
    17  H    0.000000   0.000000   0.000000   0.000000   0.000000   0.000000
    18  H    0.000000   0.000000   0.000000   0.000000   0.000000   0.000000
    19  H    0.000000   0.000000   0.000000   0.000000   0.000000   0.000000
    20  H    0.000000   0.000000   0.000000   0.000000   0.000000   0.000000
    21  H    0.000000   0.000000   0.000000   0.000000   0.000000   0.000000
    22  H    0.000000   0.000000   0.000000   0.000000   0.000000   0.000000
    23  H    0.000000   0.000000   0.000000   0.000000   0.000000   0.000000
    24  H    0.000000   0.000000   0.000000   0.000000   0.000000   0.000000
    25  H    0.000000   0.000000   0.000000   0.000000   0.000000   0.000000
    26  H    0.000000   0.000000   0.000000   0.000000   0.000000   0.000000
              13         14         15         16         17         18
     1  N    0.000000   0.000000   0.000000   0.000000   0.000000   0.000000
     2  C    0.000000   0.000000   0.000000   0.000000   0.000000   0.000000
     3  C    0.000000   0.000000   0.000000   0.000000   0.000000   0.000000
     4  C    0.000000   0.000000   0.000000   0.000000   0.000000   0.000000
     5  C    0.000000   0.000000   0.000000   0.000000   0.000000   0.000000
     6  C    0.000000   0.000000   0.000000   0.000000   0.000000   0.000000
     7  C    0.000000   0.000000   0.000000   0.000000   0.000000   0.000000
     8  N    0.000000   0.000000   0.000000   0.000000   0.000000   0.000000
     9  C    0.000000   0.000000   0.000000   0.000000   0.000000   0.000000
    10  C    0.000000   0.000000   0.000000   0.000000   0.000000   0.000000
    11  C    0.000000   0.000000   0.000000   0.000000   0.000000   0.000000
    12  C    0.000000   0.000000   0.000000   0.000000   0.000000   0.000000
    13  C    4.110119   0.000000   0.000000   0.000000   0.000000   0.000000
    14  C    0.000000   4.150520   0.000000   0.000000   0.000000   0.000000
    15  H    0.000000   0.000000   0.846372   0.000000   0.000000   0.000000
    16  H    0.000000   0.000000   0.000000   0.846448   0.000000   0.000000
    17  H    0.000000   0.000000   0.000000   0.000000   0.867621   0.000000
    18  H    0.000000   0.000000   0.000000   0.000000   0.000000   0.868094
    19  H    0.000000   0.000000   0.000000   0.000000   0.000000   0.000000
    20  H    0.000000   0.000000   0.000000   0.000000   0.000000   0.000000
    21  H    0.000000   0.000000   0.000000   0.000000   0.000000   0.000000
    22  H    0.000000   0.000000   0.000000   0.000000   0.000000   0.000000
    23  H    0.000000   0.000000   0.000000   0.000000   0.000000   0.000000
    24  H    0.000000   0.000000   0.000000   0.000000   0.000000   0.000000
    25  H    0.000000   0.000000   0.000000   0.000000   0.000000   0.000000
    26  H    0.000000   0.000000   0.000000   0.000000   0.000000   0.000000
              19         20         21         22         23         24
     1  N    0.000000   0.000000   0.000000   0.000000   0.000000   0.000000
     2  C    0.000000   0.000000   0.000000   0.000000   0.000000   0.000000
     3  C    0.000000   0.000000   0.000000   0.000000   0.000000   0.000000
     4  C    0.000000   0.000000   0.000000   0.000000   0.000000   0.000000
     5  C    0.000000   0.000000   0.000000   0.000000   0.000000   0.000000
     6  C    0.000000   0.000000   0.000000   0.000000   0.000000   0.000000
     7  C    0.000000   0.000000   0.000000   0.000000   0.000000   0.000000
     8  N    0.000000   0.000000   0.000000   0.000000   0.000000   0.000000
     9  C    0.000000   0.000000   0.000000   0.000000   0.000000   0.000000
    10  C    0.000000   0.000000   0.000000   0.000000   0.000000   0.000000
    11  C    0.000000   0.000000   0.000000   0.000000   0.000000   0.000000
    12  C    0.000000   0.000000   0.000000   0.000000   0.000000   0.000000
    13  C    0.000000   0.000000   0.000000   0.000000   0.000000   0.000000
    14  C    0.000000   0.000000   0.000000   0.000000   0.000000   0.000000
    15  H    0.000000   0.000000   0.000000   0.000000   0.000000   0.000000
    16  H    0.000000   0.000000   0.000000   0.000000   0.000000   0.000000
    17  H    0.000000   0.000000   0.000000   0.000000   0.000000   0.000000
    18  H    0.000000   0.000000   0.000000   0.000000   0.000000   0.000000
    19  H    0.869219   0.000000   0.000000   0.000000   0.000000   0.000000
    20  H    0.000000   0.870861   0.000000   0.000000   0.000000   0.000000
    21  H    0.000000   0.000000   0.846372   0.000000   0.000000   0.000000
    22  H    0.000000   0.000000   0.000000   0.846448   0.000000   0.000000
    23  H    0.000000   0.000000   0.000000   0.000000   0.870861   0.000000
    24  H    0.000000   0.000000   0.000000   0.000000   0.000000   0.867621
    25  H    0.000000   0.000000   0.000000   0.000000   0.000000   0.000000
    26  H    0.000000   0.000000   0.000000   0.000000   0.000000   0.000000
              25         26
     1  N    0.000000   0.000000
     2  C    0.000000   0.000000
     3  C    0.000000   0.000000
     4  C    0.000000   0.000000
     5  C    0.000000   0.000000
     6  C    0.000000   0.000000
     7  C    0.000000   0.000000
     8  N    0.000000   0.000000
     9  C    0.000000   0.000000
    10  C    0.000000   0.000000
    11  C    0.000000   0.000000
    12  C    0.000000   0.000000
    13  C    0.000000   0.000000
    14  C    0.000000   0.000000
    15  H    0.000000   0.000000
    16  H    0.000000   0.000000
    17  H    0.000000   0.000000
    18  H    0.000000   0.000000
    19  H    0.000000   0.000000
    20  H    0.000000   0.000000
    21  H    0.000000   0.000000
    22  H    0.000000   0.000000
    23  H    0.000000   0.000000
    24  H    0.000000   0.000000
    25  H    0.869219   0.000000
    26  H    0.000000   0.868094
 Mulliken charges:
               1
     1  N   -0.176752
     2  C    0.024149
     3  C   -0.128801
     4  C   -0.115333
     5  C   -0.150520
     6  C   -0.110119
     7  C   -0.174009
     8  N   -0.176752
     9  C    0.024149
    10  C   -0.128801
    11  C   -0.174009
    12  C   -0.115333
    13  C   -0.110119
    14  C   -0.150520
    15  H    0.153628
    16  H    0.153552
    17  H    0.132379
    18  H    0.131906
    19  H    0.130781
    20  H    0.129139
    21  H    0.153628
    22  H    0.153552
    23  H    0.129139
    24  H    0.132379
    25  H    0.130781
    26  H    0.131906
 Sum of Mulliken charges =  -0.00000
 Mulliken charges with hydrogens summed into heavy atoms:
               1
     1  N   -0.023124
     2  C    0.024149
     3  C    0.024751
     4  C    0.017046
     5  C   -0.018614
     6  C    0.020662
     7  C   -0.044870
     8  N   -0.023124
     9  C    0.024149
    10  C    0.024751
    11  C   -0.044870
    12  C    0.017046
    13  C    0.020662
    14  C   -0.018614
 Charge=              0.0000 electrons
 Dipole moment (field-independent basis, Debye):
    X=             -0.0000    Y=             -0.0000    Z=              1.6955  Tot=              1.6955
 N-N= 4.328762305375D+02 E-N=-7.687044786470D+02  KE=-4.731251485366D+01
 Symmetry A    KE=-2.452592650514D+01
 Symmetry B    KE=-2.278658834852D+01
 1\1\GINC-GTX1080DELTA\FOpt\RAM1\ZDO\C12H12N2\MVEROT\12-Apr-2022\0\\#n 
 AM1 Opt\\Geometry optimization\\0,1\N,-0.1630575575,3.7435227448,3.244
 1197115\C,0.8871310903,4.1304595777,4.1423214359\C,1.7820495552,5.1748
 148359,3.8332520734\C,2.7058923512,5.6032111767,4.7826421441\C,2.75945
 85072,5.0115486784,6.0434976123\C,1.8799728754,3.976107564,6.355156450
 9\C,0.9554287765,3.5270862525,5.417583058\N,0.1630575575,3.7435227448,
 1.9058802885\C,-0.8871310903,4.1304595777,1.0076785641\C,-1.7820495552
 ,5.1748148359,1.3167479266\C,-0.9554287765,3.5270862525,-0.267583058\C
 ,-2.7058923512,5.6032111767,0.3673578559\C,-1.8799728754,3.976107564,-
 1.2051564509\C,-2.7594585072,5.0115486784,-0.8934976123\H,-0.547365807
 2,2.8523793051,3.5407521026\H,1.7541989527,5.6611713982,2.8459418393\H
 ,3.3984745913,6.420490878,4.53057043\H,3.4904645916,5.3584867672,6.787
 3226831\H,1.9165230003,3.5040166973,7.3483563268\H,0.272699193,2.70679
 39585,5.6864962324\H,0.5473658072,2.8523793051,1.6092478974\H,-1.75419
 89527,5.6611713982,2.3040581607\H,-0.272699193,2.7067939585,-0.5364962
 324\H,-3.3984745913,6.420490878,0.61942957\H,-1.9165230003,3.504016697
 3,-2.1983563268\H,-3.4904645916,5.3584867672,-1.6373226831\\Version=AM
 64L-G09RevD.01\State=1-A\HF=0.1369604\RMSD=2.407e-09\RMSF=5.253e-06\Di
 pole=0.,-0.6670686,0.\PG=C02 [X(C12H12N2)]\\@


 MICRO CREDO - NEVER TRUST A COMPUTER BIGGER
               BIGGER THAN YOU CAN LIFT.
 Job cpu time:       0 days  0 hours  0 minutes 26.2 seconds.
 File lengths (MBytes):  RWF=     72 Int=      0 D2E=      0 Chk=      3 Scr=      2
 Normal termination of Gaussian 09 at Tue Apr 12 01:27:48 2022.
