 Entering Gaussian System, Link 0=g09
 Input=/scratch/mverot/anthracene-1-4-opt/anthracene-1-4-opt.com
 Output=/scratch/mverot/anthracene-1-4-opt/anthracene-1-4-opt.log
 Initial command:
 /opt/g09/l1.exe "/scratch/mverot/anthracene-1-4-opt/Gau-2835123.inp" -scrdir="/scratch/mverot/anthracene-1-4-opt/"
 Entering Link 1 = /opt/g09/l1.exe PID=   2835125.
  
 Copyright (c) 1988,1990,1992,1993,1995,1998,2003,2009,2013,
            Gaussian, Inc.  All Rights Reserved.
  
 This is part of the Gaussian(R) 09 program.  It is based on
 the Gaussian(R) 03 system (copyright 2003, Gaussian, Inc.),
 the Gaussian(R) 98 system (copyright 1998, Gaussian, Inc.),
 the Gaussian(R) 94 system (copyright 1995, Gaussian, Inc.),
 the Gaussian 92(TM) system (copyright 1992, Gaussian, Inc.),
 the Gaussian 90(TM) system (copyright 1990, Gaussian, Inc.),
 the Gaussian 88(TM) system (copyright 1988, Gaussian, Inc.),
 the Gaussian 86(TM) system (copyright 1986, Carnegie Mellon
 University), and the Gaussian 82(TM) system (copyright 1983,
 Carnegie Mellon University). Gaussian is a federally registered
 trademark of Gaussian, Inc.
  
 This software contains proprietary and confidential information,
 including trade secrets, belonging to Gaussian, Inc.
  
 This software is provided under written license and may be
 used, copied, transmitted, or stored only in accord with that
 written license.
  
 The following legend is applicable only to US Government
 contracts under FAR:
  
                    RESTRICTED RIGHTS LEGEND
  
 Use, reproduction and disclosure by the US Government is
 subject to restrictions as set forth in subparagraphs (a)
 and (c) of the Commercial Computer Software - Restricted
 Rights clause in FAR 52.227-19.
  
 Gaussian, Inc.
 340 Quinnipiac St., Bldg. 40, Wallingford CT 06492
  
  
 ---------------------------------------------------------------
 Warning -- This program may not be used in any manner that
 competes with the business of Gaussian, Inc. or will provide
 assistance to any competitor of Gaussian, Inc.  The licensee
 of this program is prohibited from giving any competitor of
 Gaussian, Inc. access to this program.  By using this program,
 the user acknowledges that Gaussian, Inc. is engaged in the
 business of creating and licensing software in the field of
 computational chemistry and represents and warrants to the
 licensee that it is not a competitor of Gaussian, Inc. and that
 it will not use this program in any manner prohibited above.
 ---------------------------------------------------------------
  

 Cite this work as:
 Gaussian 09, Revision D.01,
 M. J. Frisch, G. W. Trucks, H. B. Schlegel, G. E. Scuseria, 
 M. A. Robb, J. R. Cheeseman, G. Scalmani, V. Barone, B. Mennucci, 
 G. A. Petersson, H. Nakatsuji, M. Caricato, X. Li, H. P. Hratchian, 
 A. F. Izmaylov, J. Bloino, G. Zheng, J. L. Sonnenberg, M. Hada, 
 M. Ehara, K. Toyota, R. Fukuda, J. Hasegawa, M. Ishida, T. Nakajima, 
 Y. Honda, O. Kitao, H. Nakai, T. Vreven, J. A. Montgomery, Jr., 
 J. E. Peralta, F. Ogliaro, M. Bearpark, J. J. Heyd, E. Brothers, 
 K. N. Kudin, V. N. Staroverov, T. Keith, R. Kobayashi, J. Normand, 
 K. Raghavachari, A. Rendell, J. C. Burant, S. S. Iyengar, J. Tomasi, 
 M. Cossi, N. Rega, J. M. Millam, M. Klene, J. E. Knox, J. B. Cross, 
 V. Bakken, C. Adamo, J. Jaramillo, R. Gomperts, R. E. Stratmann, 
 O. Yazyev, A. J. Austin, R. Cammi, C. Pomelli, J. W. Ochterski, 
 R. L. Martin, K. Morokuma, V. G. Zakrzewski, G. A. Voth, 
 P. Salvador, J. J. Dannenberg, S. Dapprich, A. D. Daniels, 
 O. Farkas, J. B. Foresman, J. V. Ortiz, J. Cioslowski, 
 and D. J. Fox, Gaussian, Inc., Wallingford CT, 2013.
 
 ******************************************
 Gaussian 09:  AM64L-G09RevD.01 24-Apr-2013
                12-Apr-2022 
 ******************************************
 %chk=anthracene-1-4-opt
 ----------
 #n AM1 Opt
 ----------
 1/14=-1,18=20,19=15,26=1,38=1/1,3;
 2/9=110,12=2,17=6,18=5,40=1/2;
 3/5=2,16=1,25=1,41=700000,71=1/1,2,3;
 4/35=1/1;
 5/5=2,35=1,38=5/2;
 6/7=2,8=2,9=2,10=2,28=1/1;
 7//1,2,3,16;
 1/14=-1,18=20,19=15,26=1/3(2);
 2/9=110/2;
 99//99;
 2/9=110/2;
 3/5=2,16=1,25=1,41=700000,71=1,135=20/1,2,3;
 4/5=5,16=3,35=1/1;
 5/5=2,35=1,38=5/2;
 7//1,2,3,16;
 1/14=-1,18=20,19=15,26=1/3(-5);
 2/9=110/2;
 6/7=2,8=2,9=2,10=2,19=2,28=1/1;
 99/9=1/99;
 ---------------------
 Geometry optimization
 ---------------------
 Symbolic Z-matrix:
 Charge =  0 Multiplicity = 1
 C                     0.04676   1.46576  -0.0379 
 C                     1.309     0.70526  -0.01632 
 C                    -1.25193   0.73611  -0.03353 
 O                     0.11891   2.68892  -0.04836 
 C                     0.0209   -1.41933   0.0465 
 C                    -1.2646   -0.6667    0.0343 
 O                     0.07131  -2.6434    0.0699 
 C                     1.29657  -0.68169   0.01872 
 C                     2.53372   1.3913   -0.03147 
 C                    -2.50156  -1.34      0.07953 
 C                     2.50882  -1.3896    0.03011 
 C                    -2.47638   1.43145  -0.08504 
 C                     3.7379    0.68599  -0.0169 
 C                     3.72543  -0.70603   0.0117 
 C                    -3.69342   0.74989  -0.05049 
 C                    -3.70603  -0.6368    0.0383 
 H                     2.55265   2.47995  -0.05474 
 H                     2.50828  -2.47841   0.05391 
 H                     4.6829    1.2241   -0.02861 
 H                     4.66065  -1.26102   0.02091 
 H                    -4.66076  -1.15485   0.07066 
 H                    -4.63855   1.28482  -0.08941 
 N                    -2.51132   2.79376  -0.17822 
 N                    -2.56144  -2.70154   0.17129 
 H                    -1.73125  -3.22978   0.20263 
 H                    -3.43479  -3.15463   0.20608 
 H                    -3.37623   3.26275  -0.21309 
 H                    -1.67159   3.30665  -0.21051 
 

 GradGradGradGradGradGradGradGradGradGradGradGradGradGradGradGradGradGrad
 Berny optimization.
 Initialization pass.
                           ----------------------------
                           !    Initial Parameters    !
                           ! (Angstroms and Degrees)  !
 --------------------------                            --------------------------
 ! Name  Definition              Value          Derivative Info.                !
 --------------------------------------------------------------------------------
 ! R1    R(1,2)                  1.4738         estimate D2E/DX2                !
 ! R2    R(1,3)                  1.4896         estimate D2E/DX2                !
 ! R3    R(1,4)                  1.2253         estimate D2E/DX2                !
 ! R4    R(2,8)                  1.3874         estimate D2E/DX2                !
 ! R5    R(2,9)                  1.4039         estimate D2E/DX2                !
 ! R6    R(3,6)                  1.4045         estimate D2E/DX2                !
 ! R7    R(3,12)                 1.4091         estimate D2E/DX2                !
 ! R8    R(5,6)                  1.4897         estimate D2E/DX2                !
 ! R9    R(5,7)                  1.2253         estimate D2E/DX2                !
 ! R10   R(5,8)                  1.4738         estimate D2E/DX2                !
 ! R11   R(6,10)                 1.4091         estimate D2E/DX2                !
 ! R12   R(8,11)                 1.4039         estimate D2E/DX2                !
 ! R13   R(9,13)                 1.3956         estimate D2E/DX2                !
 ! R14   R(9,17)                 1.0891         estimate D2E/DX2                !
 ! R15   R(10,16)                1.3953         estimate D2E/DX2                !
 ! R16   R(10,24)                1.3659         estimate D2E/DX2                !
 ! R17   R(11,14)                1.3956         estimate D2E/DX2                !
 ! R18   R(11,18)                1.0891         estimate D2E/DX2                !
 ! R19   R(12,15)                1.3953         estimate D2E/DX2                !
 ! R20   R(12,23)                1.3659         estimate D2E/DX2                !
 ! R21   R(13,14)                1.3924         estimate D2E/DX2                !
 ! R22   R(13,19)                1.0875         estimate D2E/DX2                !
 ! R23   R(14,20)                1.0875         estimate D2E/DX2                !
 ! R24   R(15,16)                1.3896         estimate D2E/DX2                !
 ! R25   R(15,22)                1.0867         estimate D2E/DX2                !
 ! R26   R(16,21)                1.0867         estimate D2E/DX2                !
 ! R27   R(23,27)                0.9845         estimate D2E/DX2                !
 ! R28   R(23,28)                0.9845         estimate D2E/DX2                !
 ! R29   R(24,25)                0.9845         estimate D2E/DX2                !
 ! R30   R(24,26)                0.9845         estimate D2E/DX2                !
 ! A1    A(2,1,3)              119.5957         estimate D2E/DX2                !
 ! A2    A(2,1,4)              117.697          estimate D2E/DX2                !
 ! A3    A(3,1,4)              122.7048         estimate D2E/DX2                !
 ! A4    A(1,2,8)              120.5657         estimate D2E/DX2                !
 ! A5    A(1,2,9)              119.6594         estimate D2E/DX2                !
 ! A6    A(8,2,9)              119.7749         estimate D2E/DX2                !
 ! A7    A(1,3,6)              119.8172         estimate D2E/DX2                !
 ! A8    A(1,3,12)             121.0494         estimate D2E/DX2                !
 ! A9    A(6,3,12)             119.1312         estimate D2E/DX2                !
 ! A10   A(6,5,7)              122.7089         estimate D2E/DX2                !
 ! A11   A(6,5,8)              119.5969         estimate D2E/DX2                !
 ! A12   A(7,5,8)              117.6923         estimate D2E/DX2                !
 ! A13   A(3,6,5)              119.8172         estimate D2E/DX2                !
 ! A14   A(3,6,10)             119.1258         estimate D2E/DX2                !
 ! A15   A(5,6,10)             121.0552         estimate D2E/DX2                !
 ! A16   A(2,8,5)              120.5665         estimate D2E/DX2                !
 ! A17   A(2,8,11)             119.7719         estimate D2E/DX2                !
 ! A18   A(5,8,11)             119.6616         estimate D2E/DX2                !
 ! A19   A(2,9,13)             120.3746         estimate D2E/DX2                !
 ! A20   A(2,9,17)             120.2577         estimate D2E/DX2                !
 ! A21   A(13,9,17)            119.3676         estimate D2E/DX2                !
 ! A22   A(6,10,16)            121.0658         estimate D2E/DX2                !
 ! A23   A(6,10,24)            121.127          estimate D2E/DX2                !
 ! A24   A(16,10,24)           117.8065         estimate D2E/DX2                !
 ! A25   A(8,11,14)            120.3754         estimate D2E/DX2                !
 ! A26   A(8,11,18)            120.2576         estimate D2E/DX2                !
 ! A27   A(14,11,18)           119.367          estimate D2E/DX2                !
 ! A28   A(3,12,15)            121.0649         estimate D2E/DX2                !
 ! A29   A(3,12,23)            121.1239         estimate D2E/DX2                !
 ! A30   A(15,12,23)           117.8101         estimate D2E/DX2                !
 ! A31   A(9,13,14)            119.8505         estimate D2E/DX2                !
 ! A32   A(9,13,19)            119.9721         estimate D2E/DX2                !
 ! A33   A(14,13,19)           120.1774         estimate D2E/DX2                !
 ! A34   A(11,14,13)           119.8514         estimate D2E/DX2                !
 ! A35   A(11,14,20)           119.9722         estimate D2E/DX2                !
 ! A36   A(13,14,20)           120.1763         estimate D2E/DX2                !
 ! A37   A(12,15,16)           119.7979         estimate D2E/DX2                !
 ! A38   A(12,15,22)           121.149          estimate D2E/DX2                !
 ! A39   A(16,15,22)           119.053          estimate D2E/DX2                !
 ! A40   A(10,16,15)           119.7999         estimate D2E/DX2                !
 ! A41   A(10,16,21)           121.1482         estimate D2E/DX2                !
 ! A42   A(15,16,21)           119.0516         estimate D2E/DX2                !
 ! A43   A(12,23,27)           119.9998         estimate D2E/DX2                !
 ! A44   A(12,23,28)           119.9999         estimate D2E/DX2                !
 ! A45   A(27,23,28)           120.0003         estimate D2E/DX2                !
 ! A46   A(10,24,25)           120.0            estimate D2E/DX2                !
 ! A47   A(10,24,26)           120.0002         estimate D2E/DX2                !
 ! A48   A(25,24,26)           119.9998         estimate D2E/DX2                !
 ! D1    D(3,1,2,8)             -0.5154         estimate D2E/DX2                !
 ! D2    D(3,1,2,9)            179.4804         estimate D2E/DX2                !
 ! D3    D(4,1,2,8)            178.9268         estimate D2E/DX2                !
 ! D4    D(4,1,2,9)             -1.0775         estimate D2E/DX2                !
 ! D5    D(2,1,3,6)              2.0341         estimate D2E/DX2                !
 ! D6    D(2,1,3,12)          -178.5135         estimate D2E/DX2                !
 ! D7    D(4,1,3,6)           -177.3789         estimate D2E/DX2                !
 ! D8    D(4,1,3,12)             2.0735         estimate D2E/DX2                !
 ! D9    D(1,2,8,5)             -0.5195         estimate D2E/DX2                !
 ! D10   D(1,2,8,11)           179.5879         estimate D2E/DX2                !
 ! D11   D(9,2,8,5)            179.4847         estimate D2E/DX2                !
 ! D12   D(9,2,8,11)            -0.4079         estimate D2E/DX2                !
 ! D13   D(1,2,9,13)          -179.7381         estimate D2E/DX2                !
 ! D14   D(1,2,9,17)             0.261          estimate D2E/DX2                !
 ! D15   D(8,2,9,13)             0.2577         estimate D2E/DX2                !
 ! D16   D(8,2,9,17)          -179.7432         estimate D2E/DX2                !
 ! D17   D(1,3,6,5)             -2.4401         estimate D2E/DX2                !
 ! D18   D(1,3,6,10)           178.0419         estimate D2E/DX2                !
 ! D19   D(12,3,6,5)           178.097          estimate D2E/DX2                !
 ! D20   D(12,3,6,10)           -1.421          estimate D2E/DX2                !
 ! D21   D(1,3,12,15)         -178.5371         estimate D2E/DX2                !
 ! D22   D(1,3,12,23)            1.8468         estimate D2E/DX2                !
 ! D23   D(6,3,12,15)            0.919          estimate D2E/DX2                !
 ! D24   D(6,3,12,23)         -178.6971         estimate D2E/DX2                !
 ! D25   D(7,5,6,3)           -178.0774         estimate D2E/DX2                !
 ! D26   D(7,5,6,10)             1.4311         estimate D2E/DX2                !
 ! D27   D(8,5,6,3)              1.413          estimate D2E/DX2                !
 ! D28   D(8,5,6,10)          -179.0785         estimate D2E/DX2                !
 ! D29   D(6,5,8,2)              0.1104         estimate D2E/DX2                !
 ! D30   D(6,5,8,11)          -179.9969         estimate D2E/DX2                !
 ! D31   D(7,5,8,2)            179.6261         estimate D2E/DX2                !
 ! D32   D(7,5,8,11)            -0.4812         estimate D2E/DX2                !
 ! D33   D(3,6,10,16)            0.9431         estimate D2E/DX2                !
 ! D34   D(3,6,10,24)         -178.755          estimate D2E/DX2                !
 ! D35   D(5,6,10,16)         -178.5688         estimate D2E/DX2                !
 ! D36   D(5,6,10,24)            1.7331         estimate D2E/DX2                !
 ! D37   D(2,8,11,14)            0.2527         estimate D2E/DX2                !
 ! D38   D(2,8,11,18)         -179.7772         estimate D2E/DX2                !
 ! D39   D(5,8,11,14)         -179.6409         estimate D2E/DX2                !
 ! D40   D(5,8,11,18)            0.3292         estimate D2E/DX2                !
 ! D41   D(2,9,13,14)            0.0536         estimate D2E/DX2                !
 ! D42   D(2,9,13,19)         -179.9899         estimate D2E/DX2                !
 ! D43   D(17,9,13,14)        -179.9455         estimate D2E/DX2                !
 ! D44   D(17,9,13,19)           0.011          estimate D2E/DX2                !
 ! D45   D(6,10,16,15)           0.0824         estimate D2E/DX2                !
 ! D46   D(6,10,16,21)         179.8495         estimate D2E/DX2                !
 ! D47   D(24,10,16,15)        179.7903         estimate D2E/DX2                !
 ! D48   D(24,10,16,21)         -0.4427         estimate D2E/DX2                !
 ! D49   D(6,10,24,25)          -0.2926         estimate D2E/DX2                !
 ! D50   D(6,10,24,26)         179.7078         estimate D2E/DX2                !
 ! D51   D(16,10,24,25)        179.9997         estimate D2E/DX2                !
 ! D52   D(16,10,24,26)          0.0001         estimate D2E/DX2                !
 ! D53   D(8,11,14,13)           0.0587         estimate D2E/DX2                !
 ! D54   D(8,11,14,20)         179.9858         estimate D2E/DX2                !
 ! D55   D(18,11,14,13)       -179.9117         estimate D2E/DX2                !
 ! D56   D(18,11,14,20)          0.0154         estimate D2E/DX2                !
 ! D57   D(3,12,15,16)           0.1067         estimate D2E/DX2                !
 ! D58   D(3,12,15,22)         179.9553         estimate D2E/DX2                !
 ! D59   D(23,12,15,16)        179.7352         estimate D2E/DX2                !
 ! D60   D(23,12,15,22)         -0.4163         estimate D2E/DX2                !
 ! D61   D(3,12,23,27)        -180.0            estimate D2E/DX2                !
 ! D62   D(3,12,23,28)           0.0001         estimate D2E/DX2                !
 ! D63   D(15,12,23,27)          0.3718         estimate D2E/DX2                !
 ! D64   D(15,12,23,28)       -179.6282         estimate D2E/DX2                !
 ! D65   D(9,13,14,11)          -0.2103         estimate D2E/DX2                !
 ! D66   D(9,13,14,20)         179.8627         estimate D2E/DX2                !
 ! D67   D(19,13,14,11)        179.8333         estimate D2E/DX2                !
 ! D68   D(19,13,14,20)         -0.0937         estimate D2E/DX2                !
 ! D69   D(12,15,16,10)         -0.6085         estimate D2E/DX2                !
 ! D70   D(12,15,16,21)        179.6195         estimate D2E/DX2                !
 ! D71   D(22,15,16,10)        179.5398         estimate D2E/DX2                !
 ! D72   D(22,15,16,21)         -0.2322         estimate D2E/DX2                !
 --------------------------------------------------------------------------------
 Trust Radius=3.00D-01 FncErr=1.00D-07 GrdErr=1.00D-07
 Number of steps in this run=    160 maximum allowed number of steps=    168.
 GradGradGradGradGradGradGradGradGradGradGradGradGradGradGradGradGradGrad

                          Input orientation:                          
 ---------------------------------------------------------------------
 Center     Atomic      Atomic             Coordinates (Angstroms)
 Number     Number       Type             X           Y           Z
 ---------------------------------------------------------------------
      1          6           0        0.046760    1.465760   -0.037900
      2          6           0        1.309000    0.705260   -0.016320
      3          6           0       -1.251930    0.736110   -0.033530
      4          8           0        0.118910    2.688920   -0.048360
      5          6           0        0.020900   -1.419330    0.046500
      6          6           0       -1.264600   -0.666700    0.034300
      7          8           0        0.071310   -2.643400    0.069900
      8          6           0        1.296570   -0.681690    0.018720
      9          6           0        2.533720    1.391300   -0.031470
     10          6           0       -2.501560   -1.340000    0.079530
     11          6           0        2.508820   -1.389600    0.030110
     12          6           0       -2.476380    1.431450   -0.085040
     13          6           0        3.737900    0.685990   -0.016900
     14          6           0        3.725430   -0.706030    0.011700
     15          6           0       -3.693420    0.749890   -0.050490
     16          6           0       -3.706030   -0.636800    0.038300
     17          1           0        2.552650    2.479950   -0.054740
     18          1           0        2.508280   -2.478410    0.053910
     19          1           0        4.682900    1.224100   -0.028610
     20          1           0        4.660650   -1.261020    0.020910
     21          1           0       -4.660760   -1.154850    0.070660
     22          1           0       -4.638550    1.284820   -0.089410
     23          7           0       -2.511320    2.793760   -0.178220
     24          7           0       -2.561440   -2.701540    0.171290
     25          1           0       -1.731250   -3.229780    0.202630
     26          1           0       -3.434790   -3.154630    0.206080
     27          1           0       -3.376230    3.262750   -0.213090
     28          1           0       -1.671590    3.306650   -0.210510
 ---------------------------------------------------------------------
                    Distance matrix (angstroms):
                    1          2          3          4          5
     1  C    0.000000
     2  C    1.473796   0.000000
     3  C    1.489632   2.561174   0.000000
     4  O    1.225331   2.313493   2.385978   0.000000
     5  C    2.886440   2.485363   2.504481   4.110514   0.000000
     6  C    2.504449   2.916891   1.404506   3.630581   1.489668
     7  O    4.110647   3.571111   3.630806   5.333844   1.225331
     8  C    2.485311   1.387448   2.916803   3.571050   1.473845
     9  C    2.488083   1.403859   3.841930   2.741425   3.770939
    10  C    3.792099   4.325811   2.425817   4.807849   2.523923
    11  C    3.770868   2.414573   4.320409   4.727806   2.488152
    12  C    2.523814   3.855020   1.409052   2.884113   3.792184
    13  C    3.772664   2.428977   4.990109   4.136400   4.272292
    14  C    4.272206   2.798510   5.182270   4.953411   3.772738
    15  C    3.808093   5.002736   2.441588   4.277114   4.302452
    16  C    4.302325   5.191785   2.812943   5.069328   3.808205
    17  H    2.703396   2.167410   4.185243   2.442703   4.650203
    18  H    4.650160   3.402787   4.947723   5.693931   2.703473
    19  H    4.642443   3.413583   5.954861   4.793338   5.359814
    20  H    5.359736   3.886026   6.241001   6.019487   4.642521
    21  H    5.388889   6.253448   3.899578   6.134654   4.689187
    22  H    4.689085   5.976168   3.431239   4.960505   5.389005
    23  N    2.885662   4.356936   2.416800   2.635520   4.920647
    24  N    4.920656   5.159631   3.684319   6.024083   2.885847
    25  H    5.026656   4.977509   4.001725   6.206214   2.524309
    26  H    5.790399   6.119784   4.467678   6.844019   3.870210
    27  H    3.869977   5.341428   3.305874   3.545761   5.790488
    28  H    2.524163   3.960916   2.610577   1.900993   5.026476
                    6          7          8          9         10
     6  C    0.000000
     7  O    2.386057   0.000000
     8  C    2.561261   2.313480   0.000000
     9  C    4.320524   4.727848   2.414611   0.000000
    10  C    1.409060   2.884199   3.855238   5.729430   0.000000
    11  C    3.842044   2.741360   1.403858   2.781693   5.010869
    12  C    2.425878   4.808236   4.325654   5.010547   2.776446
    13  C    5.182412   4.953408   2.798555   1.395609   6.560853
    14  C    4.990236   4.136349   2.428992   2.412640   6.259547
    15  C    2.813020   5.069724   5.191745   6.260115   2.409372
    16  C    2.441616   4.277352   5.002840   6.561443   1.395327
    17  H    4.947801   5.693970   3.402808   1.089063   6.336804
    18  H    4.185368   2.442601   2.167414   3.870735   5.137619
    19  H    6.241141   6.019470   3.886066   2.155676   7.629074
    20  H    5.954996   4.793268   3.413600   3.400202   7.162885
    21  H    3.431256   4.960672   5.976316   7.632421   2.167142
    22  H    3.899650   6.135069   6.253359   7.173294   3.388945
    23  N    3.684326   6.024471   5.159221   5.238402   4.141799
    24  N    2.416844   2.635343   4.357443   6.538586   1.365942
    25  H    2.610647   1.900179   3.961601   6.292786   2.044456
    26  H    3.305908   3.545792   5.341938   7.506332   2.044460
    27  H    4.467747   6.844576   6.119428   6.201840   4.694250
    28  H    4.001635   6.206402   4.976884   4.624419   4.729094
                   11         12         13         14         15
    11  C    0.000000
    12  C    5.729206   0.000000
    13  C    2.412659   6.259204   0.000000
    14  C    1.395617   6.560536   1.392370   0.000000
    15  C    6.561379   1.395315   7.431671   7.560615   0.000000
    16  C    6.260282   2.409338   7.560748   7.431830   1.389587
    17  H    3.870728   5.137257   2.150475   3.395629   6.481243
    18  H    1.089070   6.336651   3.395645   2.150481   6.992418
    19  H    3.400221   7.162504   1.087531   2.154942   8.389761
    20  H    2.155688   7.628749   2.154935   1.087536   8.592982
    21  H    7.173537   3.388909   8.598479   8.398399   2.139733
    22  H    7.632280   2.167141   8.398141   8.598248   1.086709
    23  N    6.538020   1.365940   6.597080   7.154135   2.364546
    24  N    5.239146   4.141805   7.154891   6.597898   3.639084
    25  H    4.625389   4.729169   6.730011   6.015075   4.444317
    26  H    6.202644   4.694191   8.139261   7.569820   3.921479
    27  H    7.505819   2.044453   7.568952   8.138508   2.538014
    28  H    6.291938   2.044457   6.013978   6.728953   3.263499
                   16         17         18         19         20
    16  C    0.000000
    17  H    6.992415   0.000000
    18  H    6.481467   4.959749   0.000000
    19  H    8.593112   2.473016   4.294690   0.000000
    20  H    8.389952   4.294676   2.473019   2.485713   0.000000
    21  H    1.086707   8.078414   7.290214   9.642263   9.322147
    22  H    2.139749   7.289917   8.078343   9.321846   9.642022
    23  N    3.639087   5.075186   7.283272   7.364986   8.241241
    24  N    2.364513   7.283738   5.075985   8.242031   7.365887
    25  H    3.263481   7.142762   4.308165   7.812288   6.690697
    26  H    2.537950   8.225932   5.983353   9.226334   8.316020
    27  H    3.921537   5.982430   8.225550   8.315029   9.225546
    28  H    4.444283   4.307192   7.141999   6.689518   7.811173
                   21         22         23         24         25
    21  H    0.000000
    22  H    2.445016   0.000000
    23  N    4.502616   2.609577   0.000000
    24  N    2.609506   4.502601   5.506632   0.000000
    25  H    3.592322   5.377666   6.085769   0.984497   0.000000
    26  H    2.349566   4.609237   6.031901   0.984500   1.705200
    27  H    4.609308   2.349671   0.984498   6.031947   6.710568
    28  H    5.377655   3.592397   0.984503   6.085717   6.549745
                   26         27         28
    26  H    0.000000
    27  H    6.431322   0.000000
    28  H    6.710481   1.705207   0.000000
 Stoichiometry    C14H10N2O2
 Framework group  C1[X(C14H10N2O2)]
 Deg. of freedom    78
 Full point group                 C1      NOp   1
 Largest Abelian subgroup         C1      NOp   1
 Largest concise Abelian subgroup C1      NOp   1
                         Standard orientation:                         
 ---------------------------------------------------------------------
 Center     Atomic      Atomic             Coordinates (Angstroms)
 Number     Number       Type             X           Y           Z
 ---------------------------------------------------------------------
      1          6           0       -0.335398   -1.442964    0.023515
      2          6           0       -1.604372   -0.693529    0.012267
      3          6           0        0.956741   -0.702235   -0.002981
      4          8           0       -0.396647   -2.666049    0.065317
      5          6           0       -0.335280    1.443213   -0.015446
      6          6           0        0.956878    0.702249    0.004842
      7          8           0       -0.396602    2.666666   -0.044389
      8          6           0       -1.604314    0.693707   -0.011991
      9          6           0       -2.822926   -1.390490    0.026148
     10          6           0        2.187765    1.387877    0.021561
     11          6           0       -2.822826    1.390613   -0.031160
     12          6           0        2.187366   -1.388188   -0.024430
     13          6           0       -4.033347   -0.695974    0.010270
     14          6           0       -4.033289    0.696052   -0.020640
     15          6           0        3.398267   -0.694943   -0.018739
     16          6           0        3.398474    0.694332    0.010714
     17          1           0       -2.832147   -2.479266    0.049417
     18          1           0       -2.831995    2.479407   -0.053911
     19          1           0       -4.973510   -1.242503    0.021334
     20          1           0       -4.973420    1.242562   -0.035384
     21          1           0        4.348533    1.221790    0.021140
     22          1           0        4.348147   -1.222593   -0.034533
     23          7           0        2.234493   -2.752870   -0.059300
     24          7           0        2.235462    2.752574    0.055068
     25          1           0        1.400583    3.274242    0.063603
     26          1           0        3.104722    3.214511    0.070678
     27          1           0        3.103566   -3.215185   -0.073884
     28          1           0        1.399383   -3.274143   -0.069848
 ---------------------------------------------------------------------
 Rotational constants (GHZ):      0.7323340      0.3791759      0.2498939
 Standard basis: VSTO-6G (5D, 7F)
 There are    82 symmetry adapted cartesian basis functions of A   symmetry.
 There are    82 symmetry adapted basis functions of A   symmetry.
    82 basis functions,   492 primitive gaussians,    82 cartesian basis functions
    44 alpha electrons       44 beta electrons
       nuclear repulsion energy       669.1960704274 Hartrees.
 Integral buffers will be    131072 words long.
 Regular integral format.
 Two-electron integral symmetry is turned off.
 Do NDO integrals.
 One-electron integrals computed using PRISM.
 NBasis=    82 RedAO= F EigKep=  0.00D+00  NBF=    82
 NBsUse=    82 1.00D-04 EigRej=  0.00D+00 NBFU=    82
 Simple Huckel Guess.
 Overlap will be assumed to be unity.
 Keep J ints in memory in canonical form, NReq=936458.
 Requested convergence on RMS density matrix=1.00D-08 within 128 cycles.
 Requested convergence on MAX density matrix=1.00D-06.
 Requested convergence on             energy=1.00D-06.
 No special actions if energy rises.
 SCF Done:  E(RAM1) =  0.303432031274E-03 A.U. after   16 cycles
            NFock= 15  Conv=0.69D-08     -V/T= 1.0000

 **********************************************************************

            Population analysis using the SCF density.

 **********************************************************************

 Orbital symmetries:
       Occupied  (A) (A) (A) (A) (A) (A) (A) (A) (A) (A) (A) (A)
                 (A) (A) (A) (A) (A) (A) (A) (A) (A) (A) (A) (A)
                 (A) (A) (A) (A) (A) (A) (A) (A) (A) (A) (A) (A)
                 (A) (A) (A) (A) (A) (A) (A) (A)
       Virtual   (A) (A) (A) (A) (A) (A) (A) (A) (A) (A) (A) (A)
                 (A) (A) (A) (A) (A) (A) (A) (A) (A) (A) (A) (A)
                 (A) (A) (A) (A) (A) (A) (A) (A) (A) (A) (A) (A)
                 (A) (A)
 The electronic state is 1-A.
 Alpha  occ. eigenvalues --   -1.53837  -1.46730  -1.46234  -1.40159  -1.35006
 Alpha  occ. eigenvalues --   -1.26332  -1.21276  -1.16832  -1.15416  -1.03964
 Alpha  occ. eigenvalues --   -0.96938  -0.92827  -0.89907  -0.82869  -0.79348
 Alpha  occ. eigenvalues --   -0.75435  -0.70454  -0.66865  -0.66064  -0.64572
 Alpha  occ. eigenvalues --   -0.61108  -0.60726  -0.60129  -0.58942  -0.57883
 Alpha  occ. eigenvalues --   -0.56908  -0.54834  -0.54655  -0.54345  -0.52505
 Alpha  occ. eigenvalues --   -0.51802  -0.50318  -0.48673  -0.48626  -0.47982
 Alpha  occ. eigenvalues --   -0.47121  -0.45317  -0.40327  -0.38616  -0.38116
 Alpha  occ. eigenvalues --   -0.37280  -0.36848  -0.36505  -0.28538
 Alpha virt. eigenvalues --   -0.04188  -0.00164   0.00170   0.02310   0.05863
 Alpha virt. eigenvalues --    0.06323   0.09566   0.10055   0.10251   0.10881
 Alpha virt. eigenvalues --    0.10928   0.11562   0.13309   0.13915   0.14034
 Alpha virt. eigenvalues --    0.14349   0.14969   0.15095   0.15370   0.15820
 Alpha virt. eigenvalues --    0.15988   0.16823   0.17045   0.17811   0.17944
 Alpha virt. eigenvalues --    0.18075   0.18607   0.19086   0.19341   0.19531
 Alpha virt. eigenvalues --    0.19891   0.20980   0.23276   0.23568   0.23778
 Alpha virt. eigenvalues --    0.24212   0.25013   0.25184
          Condensed to atoms (all electrons):
               1          2          3          4          5          6
     1  C    3.675004   0.000000   0.000000   0.000000   0.000000   0.000000
     2  C    0.000000   4.105700   0.000000   0.000000   0.000000   0.000000
     3  C    0.000000   0.000000   4.163247   0.000000   0.000000   0.000000
     4  O    0.000000   0.000000   0.000000   6.324123   0.000000   0.000000
     5  C    0.000000   0.000000   0.000000   0.000000   3.674961   0.000000
     6  C    0.000000   0.000000   0.000000   0.000000   0.000000   4.163261
     7  O    0.000000   0.000000   0.000000   0.000000   0.000000   0.000000
     8  C    0.000000   0.000000   0.000000   0.000000   0.000000   0.000000
     9  C    0.000000   0.000000   0.000000   0.000000   0.000000   0.000000
    10  C    0.000000   0.000000   0.000000   0.000000   0.000000   0.000000
    11  C    0.000000   0.000000   0.000000   0.000000   0.000000   0.000000
    12  C    0.000000   0.000000   0.000000   0.000000   0.000000   0.000000
    13  C    0.000000   0.000000   0.000000   0.000000   0.000000   0.000000
    14  C    0.000000   0.000000   0.000000   0.000000   0.000000   0.000000
    15  C    0.000000   0.000000   0.000000   0.000000   0.000000   0.000000
    16  C    0.000000   0.000000   0.000000   0.000000   0.000000   0.000000
    17  H    0.000000   0.000000   0.000000   0.000000   0.000000   0.000000
    18  H    0.000000   0.000000   0.000000   0.000000   0.000000   0.000000
    19  H    0.000000   0.000000   0.000000   0.000000   0.000000   0.000000
    20  H    0.000000   0.000000   0.000000   0.000000   0.000000   0.000000
    21  H    0.000000   0.000000   0.000000   0.000000   0.000000   0.000000
    22  H    0.000000   0.000000   0.000000   0.000000   0.000000   0.000000
    23  N    0.000000   0.000000   0.000000   0.000000   0.000000   0.000000
    24  N    0.000000   0.000000   0.000000   0.000000   0.000000   0.000000
    25  H    0.000000   0.000000   0.000000   0.000000   0.000000   0.000000
    26  H    0.000000   0.000000   0.000000   0.000000   0.000000   0.000000
    27  H    0.000000   0.000000   0.000000   0.000000   0.000000   0.000000
    28  H    0.000000   0.000000   0.000000   0.000000   0.000000   0.000000
               7          8          9         10         11         12
     1  C    0.000000   0.000000   0.000000   0.000000   0.000000   0.000000
     2  C    0.000000   0.000000   0.000000   0.000000   0.000000   0.000000
     3  C    0.000000   0.000000   0.000000   0.000000   0.000000   0.000000
     4  O    0.000000   0.000000   0.000000   0.000000   0.000000   0.000000
     5  C    0.000000   0.000000   0.000000   0.000000   0.000000   0.000000
     6  C    0.000000   0.000000   0.000000   0.000000   0.000000   0.000000
     7  O    6.324176   0.000000   0.000000   0.000000   0.000000   0.000000
     8  C    0.000000   4.105683   0.000000   0.000000   0.000000   0.000000
     9  C    0.000000   0.000000   4.086581   0.000000   0.000000   0.000000
    10  C    0.000000   0.000000   0.000000   3.872688   0.000000   0.000000
    11  C    0.000000   0.000000   0.000000   0.000000   4.086571   0.000000
    12  C    0.000000   0.000000   0.000000   0.000000   0.000000   3.872725
    13  C    0.000000   0.000000   0.000000   0.000000   0.000000   0.000000
    14  C    0.000000   0.000000   0.000000   0.000000   0.000000   0.000000
    15  C    0.000000   0.000000   0.000000   0.000000   0.000000   0.000000
    16  C    0.000000   0.000000   0.000000   0.000000   0.000000   0.000000
    17  H    0.000000   0.000000   0.000000   0.000000   0.000000   0.000000
    18  H    0.000000   0.000000   0.000000   0.000000   0.000000   0.000000
    19  H    0.000000   0.000000   0.000000   0.000000   0.000000   0.000000
    20  H    0.000000   0.000000   0.000000   0.000000   0.000000   0.000000
    21  H    0.000000   0.000000   0.000000   0.000000   0.000000   0.000000
    22  H    0.000000   0.000000   0.000000   0.000000   0.000000   0.000000
    23  N    0.000000   0.000000   0.000000   0.000000   0.000000   0.000000
    24  N    0.000000   0.000000   0.000000   0.000000   0.000000   0.000000
    25  H    0.000000   0.000000   0.000000   0.000000   0.000000   0.000000
    26  H    0.000000   0.000000   0.000000   0.000000   0.000000   0.000000
    27  H    0.000000   0.000000   0.000000   0.000000   0.000000   0.000000
    28  H    0.000000   0.000000   0.000000   0.000000   0.000000   0.000000
              13         14         15         16         17         18
     1  C    0.000000   0.000000   0.000000   0.000000   0.000000   0.000000
     2  C    0.000000   0.000000   0.000000   0.000000   0.000000   0.000000
     3  C    0.000000   0.000000   0.000000   0.000000   0.000000   0.000000
     4  O    0.000000   0.000000   0.000000   0.000000   0.000000   0.000000
     5  C    0.000000   0.000000   0.000000   0.000000   0.000000   0.000000
     6  C    0.000000   0.000000   0.000000   0.000000   0.000000   0.000000
     7  O    0.000000   0.000000   0.000000   0.000000   0.000000   0.000000
     8  C    0.000000   0.000000   0.000000   0.000000   0.000000   0.000000
     9  C    0.000000   0.000000   0.000000   0.000000   0.000000   0.000000
    10  C    0.000000   0.000000   0.000000   0.000000   0.000000   0.000000
    11  C    0.000000   0.000000   0.000000   0.000000   0.000000   0.000000
    12  C    0.000000   0.000000   0.000000   0.000000   0.000000   0.000000
    13  C    4.120454   0.000000   0.000000   0.000000   0.000000   0.000000
    14  C    0.000000   4.120458   0.000000   0.000000   0.000000   0.000000
    15  C    0.000000   0.000000   4.156177   0.000000   0.000000   0.000000
    16  C    0.000000   0.000000   0.000000   4.156220   0.000000   0.000000
    17  H    0.000000   0.000000   0.000000   0.000000   0.843712   0.000000
    18  H    0.000000   0.000000   0.000000   0.000000   0.000000   0.843706
    19  H    0.000000   0.000000   0.000000   0.000000   0.000000   0.000000
    20  H    0.000000   0.000000   0.000000   0.000000   0.000000   0.000000
    21  H    0.000000   0.000000   0.000000   0.000000   0.000000   0.000000
    22  H    0.000000   0.000000   0.000000   0.000000   0.000000   0.000000
    23  N    0.000000   0.000000   0.000000   0.000000   0.000000   0.000000
    24  N    0.000000   0.000000   0.000000   0.000000   0.000000   0.000000
    25  H    0.000000   0.000000   0.000000   0.000000   0.000000   0.000000
    26  H    0.000000   0.000000   0.000000   0.000000   0.000000   0.000000
    27  H    0.000000   0.000000   0.000000   0.000000   0.000000   0.000000
    28  H    0.000000   0.000000   0.000000   0.000000   0.000000   0.000000
              19         20         21         22         23         24
     1  C    0.000000   0.000000   0.000000   0.000000   0.000000   0.000000
     2  C    0.000000   0.000000   0.000000   0.000000   0.000000   0.000000
     3  C    0.000000   0.000000   0.000000   0.000000   0.000000   0.000000
     4  O    0.000000   0.000000   0.000000   0.000000   0.000000   0.000000
     5  C    0.000000   0.000000   0.000000   0.000000   0.000000   0.000000
     6  C    0.000000   0.000000   0.000000   0.000000   0.000000   0.000000
     7  O    0.000000   0.000000   0.000000   0.000000   0.000000   0.000000
     8  C    0.000000   0.000000   0.000000   0.000000   0.000000   0.000000
     9  C    0.000000   0.000000   0.000000   0.000000   0.000000   0.000000
    10  C    0.000000   0.000000   0.000000   0.000000   0.000000   0.000000
    11  C    0.000000   0.000000   0.000000   0.000000   0.000000   0.000000
    12  C    0.000000   0.000000   0.000000   0.000000   0.000000   0.000000
    13  C    0.000000   0.000000   0.000000   0.000000   0.000000   0.000000
    14  C    0.000000   0.000000   0.000000   0.000000   0.000000   0.000000
    15  C    0.000000   0.000000   0.000000   0.000000   0.000000   0.000000
    16  C    0.000000   0.000000   0.000000   0.000000   0.000000   0.000000
    17  H    0.000000   0.000000   0.000000   0.000000   0.000000   0.000000
    18  H    0.000000   0.000000   0.000000   0.000000   0.000000   0.000000
    19  H    0.861778   0.000000   0.000000   0.000000   0.000000   0.000000
    20  H    0.000000   0.861778   0.000000   0.000000   0.000000   0.000000
    21  H    0.000000   0.000000   0.862664   0.000000   0.000000   0.000000
    22  H    0.000000   0.000000   0.000000   0.862663   0.000000   0.000000
    23  N    0.000000   0.000000   0.000000   0.000000   5.402979   0.000000
    24  N    0.000000   0.000000   0.000000   0.000000   0.000000   5.403020
    25  H    0.000000   0.000000   0.000000   0.000000   0.000000   0.000000
    26  H    0.000000   0.000000   0.000000   0.000000   0.000000   0.000000
    27  H    0.000000   0.000000   0.000000   0.000000   0.000000   0.000000
    28  H    0.000000   0.000000   0.000000   0.000000   0.000000   0.000000
              25         26         27         28
     1  C    0.000000   0.000000   0.000000   0.000000
     2  C    0.000000   0.000000   0.000000   0.000000
     3  C    0.000000   0.000000   0.000000   0.000000
     4  O    0.000000   0.000000   0.000000   0.000000
     5  C    0.000000   0.000000   0.000000   0.000000
     6  C    0.000000   0.000000   0.000000   0.000000
     7  O    0.000000   0.000000   0.000000   0.000000
     8  C    0.000000   0.000000   0.000000   0.000000
     9  C    0.000000   0.000000   0.000000   0.000000
    10  C    0.000000   0.000000   0.000000   0.000000
    11  C    0.000000   0.000000   0.000000   0.000000
    12  C    0.000000   0.000000   0.000000   0.000000
    13  C    0.000000   0.000000   0.000000   0.000000
    14  C    0.000000   0.000000   0.000000   0.000000
    15  C    0.000000   0.000000   0.000000   0.000000
    16  C    0.000000   0.000000   0.000000   0.000000
    17  H    0.000000   0.000000   0.000000   0.000000
    18  H    0.000000   0.000000   0.000000   0.000000
    19  H    0.000000   0.000000   0.000000   0.000000
    20  H    0.000000   0.000000   0.000000   0.000000
    21  H    0.000000   0.000000   0.000000   0.000000
    22  H    0.000000   0.000000   0.000000   0.000000
    23  N    0.000000   0.000000   0.000000   0.000000
    24  N    0.000000   0.000000   0.000000   0.000000
    25  H    0.743093   0.000000   0.000000   0.000000
    26  H    0.000000   0.781715   0.000000   0.000000
    27  H    0.000000   0.000000   0.781699   0.000000
    28  H    0.000000   0.000000   0.000000   0.743166
 Mulliken charges:
               1
     1  C    0.324996
     2  C   -0.105700
     3  C   -0.163247
     4  O   -0.324123
     5  C    0.325039
     6  C   -0.163261
     7  O   -0.324176
     8  C   -0.105683
     9  C   -0.086581
    10  C    0.127312
    11  C   -0.086571
    12  C    0.127275
    13  C   -0.120454
    14  C   -0.120458
    15  C   -0.156177
    16  C   -0.156220
    17  H    0.156288
    18  H    0.156294
    19  H    0.138222
    20  H    0.138222
    21  H    0.137336
    22  H    0.137337
    23  N   -0.402979
    24  N   -0.403020
    25  H    0.256907
    26  H    0.218285
    27  H    0.218301
    28  H    0.256834
 Sum of Mulliken charges =  -0.00000
 Mulliken charges with hydrogens summed into heavy atoms:
               1
     1  C    0.324996
     2  C   -0.105700
     3  C   -0.163247
     4  O   -0.324123
     5  C    0.325039
     6  C   -0.163261
     7  O   -0.324176
     8  C   -0.105683
     9  C    0.069708
    10  C    0.127312
    11  C    0.069723
    12  C    0.127275
    13  C    0.017768
    14  C    0.017764
    15  C   -0.018840
    16  C   -0.018883
    23  N    0.072155
    24  N    0.072172
 Charge=              0.0000 electrons
 Dipole moment (field-independent basis, Debye):
    X=              1.2684    Y=             -0.0009    Z=             -0.0359  Tot=              1.2689
 N-N= 6.691960704274D+02 E-N=-1.210806768442D+03  KE=-6.240144037873D+01
 Calling FoFJK, ICntrl=      2127 FMM=F ISym2X=0 I1Cent= 0 IOpClX= 0 NMat=1 NMatS=1 NMatT=0.
 ***** Axes restored to original set *****
 -------------------------------------------------------------------
 Center     Atomic                   Forces (Hartrees/Bohr)
 Number     Number              X              Y              Z
 -------------------------------------------------------------------
      1        6          -0.013885299   -0.035645383    0.000967179
      2        6           0.005303510    0.004876258   -0.000308190
      3        6           0.023488219   -0.000510733    0.000481889
      4        8           0.011942103    0.042349480    0.000070364
      5        6          -0.013251437    0.035916083   -0.001246510
      6        6           0.023521215    0.000080433   -0.000392049
      7        8           0.011233061   -0.042535388    0.000498964
      8        6           0.005193804   -0.004976882    0.000218713
      9        6           0.001831756   -0.008213708    0.000056095
     10        6           0.017065777   -0.025223779    0.001853873
     11        6           0.001982346    0.008171540   -0.000090565
     12        6           0.017535812    0.024892509   -0.001807028
     13        6          -0.009488863   -0.001152465   -0.000040146
     14        6          -0.009468606    0.001316426    0.000068788
     15        6          -0.018451961   -0.042533323    0.002737533
     16        6          -0.017668826    0.042856239   -0.002866226
     17        1          -0.002344175    0.009272934   -0.000227488
     18        1          -0.002509271   -0.009224855    0.000242115
     19        1           0.007643876    0.004709840   -0.000103845
     20        1           0.007554501   -0.004846410    0.000070320
     21        1          -0.009265115   -0.004946041    0.000336946
     22        1          -0.009172251    0.005112188   -0.000339031
     23        7          -0.010108711    0.014985207   -0.001542636
     24        7          -0.010392411   -0.014786375    0.001393581
     25        1          -0.002950702   -0.009035044    0.000741433
     26        1          -0.001293741   -0.000622693   -0.000122592
     27        1          -0.001278885    0.000650500    0.000103974
     28        1          -0.002765727    0.009063440   -0.000755461
 -------------------------------------------------------------------
 Cartesian Forces:  Max     0.042856239 RMS     0.013766952

 GradGradGradGradGradGradGradGradGradGradGradGradGradGradGradGradGradGrad
 Berny optimization.
 FormGI is forming the generalized inverse of G from B-inverse, IUseBI=4.
 Internal  Forces:  Max     0.042977031 RMS     0.010504158
 Search for a local minimum.
 Step number   1 out of a maximum of  160
 All quantities printed in internal units (Hartrees-Bohrs-Radians)
 Mixed Optimization -- RFO/linear search
 Second derivative matrix not updated -- first step.
 ITU=  0
     Eigenvalues ---    0.01000   0.01001   0.01007   0.01483   0.01565
     Eigenvalues ---    0.01729   0.01782   0.01814   0.01930   0.02048
     Eigenvalues ---    0.02074   0.02085   0.02085   0.02090   0.02092
     Eigenvalues ---    0.02142   0.02142   0.02142   0.02142   0.02157
     Eigenvalues ---    0.02162   0.02169   0.02173   0.02176   0.02196
     Eigenvalues ---    0.16000   0.16000   0.16000   0.16000   0.16000
     Eigenvalues ---    0.16000   0.16000   0.16000   0.16000   0.16000
     Eigenvalues ---    0.22000   0.22490   0.22588   0.24500   0.24506
     Eigenvalues ---    0.24991   0.24995   0.24997   0.24999   0.24999
     Eigenvalues ---    0.25000   0.25000   0.25000   0.32418   0.32995
     Eigenvalues ---    0.34732   0.34868   0.34920   0.34921   0.35099
     Eigenvalues ---    0.35099   0.35196   0.35196   0.39796   0.41271
     Eigenvalues ---    0.41429   0.41943   0.44054   0.45339   0.45545
     Eigenvalues ---    0.45762   0.45831   0.46485   0.46854   0.46987
     Eigenvalues ---    0.50520   0.50521   0.50521   0.50521   0.51764
     Eigenvalues ---    0.51765   0.93060   0.93060
 RFO step:  Lambda=-3.72072357D-02 EMin= 1.00004988D-02
 Linear search not attempted -- first point.
 Maximum step size (   0.300) exceeded in Quadratic search.
    -- Step size scaled by   0.955
 Iteration  1 RMS(Cart)=  0.08630315 RMS(Int)=  0.00332381
 Iteration  2 RMS(Cart)=  0.00525603 RMS(Int)=  0.00003254
 Iteration  3 RMS(Cart)=  0.00002272 RMS(Int)=  0.00003116
 Iteration  4 RMS(Cart)=  0.00000000 RMS(Int)=  0.00003116
 Variable       Old X    -DE/DX   Delta X   Delta X   Delta X     New X
                                 (Linear)    (Quad)   (Total)
    R1        2.78507   0.00345   0.00000   0.00718   0.00717   2.79224
    R2        2.81500   0.00309   0.00000   0.00922   0.00923   2.82423
    R3        2.31554   0.04298   0.00000   0.04242   0.04242   2.35796
    R4        2.62190   0.00687   0.00000   0.01070   0.01069   2.63259
    R5        2.65291  -0.00209   0.00000  -0.00417  -0.00417   2.64874
    R6        2.65413   0.03503   0.00000   0.07473   0.07483   2.72896
    R7        2.66272   0.03621   0.00000   0.07415   0.07420   2.73692
    R8        2.81506   0.00310   0.00000   0.00926   0.00927   2.82433
    R9        2.31554   0.04296   0.00000   0.04240   0.04240   2.35794
   R10        2.78516   0.00344   0.00000   0.00715   0.00714   2.79230
   R11        2.66274   0.03627   0.00000   0.07429   0.07433   2.73706
   R12        2.65291  -0.00209   0.00000  -0.00417  -0.00417   2.64873
   R13        2.63732  -0.00109   0.00000  -0.00201  -0.00201   2.63531
   R14        2.05803   0.00923   0.00000   0.02282   0.02282   2.08086
   R15        2.63679   0.03317   0.00000   0.06134   0.06129   2.69808
   R16        2.58126   0.02514   0.00000   0.04328   0.04328   2.62454
   R17        2.63733  -0.00110   0.00000  -0.00203  -0.00203   2.63531
   R18        2.05804   0.00923   0.00000   0.02281   0.02281   2.08086
   R19        2.63676   0.03315   0.00000   0.06130   0.06125   2.69802
   R20        2.58125   0.02515   0.00000   0.04329   0.04329   2.62454
   R21        2.63120   0.00462   0.00000   0.00886   0.00886   2.64006
   R22        2.05514   0.00897   0.00000   0.02208   0.02208   2.07722
   R23        2.05515   0.00897   0.00000   0.02207   0.02207   2.07722
   R24        2.62594  -0.01866   0.00000  -0.03856  -0.03865   2.58729
   R25        2.05358   0.01051   0.00000   0.02579   0.02579   2.07937
   R26        2.05358   0.01051   0.00000   0.02579   0.02579   2.07937
   R27        1.86043   0.00143   0.00000   0.00252   0.00252   1.86295
   R28        1.86044   0.00239   0.00000   0.00420   0.00420   1.86464
   R29        1.86043   0.00238   0.00000   0.00420   0.00420   1.86463
   R30        1.86044   0.00143   0.00000   0.00252   0.00252   1.86295
    A1        2.08734  -0.00224   0.00000  -0.00600  -0.00598   2.08136
    A2        2.05420  -0.00980   0.00000  -0.03330  -0.03331   2.02089
    A3        2.14160   0.01204   0.00000   0.03931   0.03931   2.18091
    A4        2.10427   0.00398   0.00000   0.00975   0.00974   2.11401
    A5        2.08845  -0.00424   0.00000  -0.01160  -0.01159   2.07686
    A6        2.09047   0.00026   0.00000   0.00185   0.00185   2.09232
    A7        2.09120  -0.00174   0.00000  -0.00388  -0.00390   2.08730
    A8        2.11271   0.00230   0.00000  -0.00091  -0.00099   2.11172
    A9        2.07923  -0.00056   0.00000   0.00478   0.00490   2.08413
   A10        2.14167   0.01208   0.00000   0.03945   0.03944   2.18111
   A11        2.08736  -0.00222   0.00000  -0.00593  -0.00591   2.08145
   A12        2.05412  -0.00986   0.00000  -0.03352  -0.03353   2.02059
   A13        2.09120  -0.00179   0.00000  -0.00404  -0.00407   2.08714
   A14        2.07914  -0.00060   0.00000   0.00465   0.00476   2.08390
   A15        2.11281   0.00239   0.00000  -0.00061  -0.00070   2.11211
   A16        2.10428   0.00400   0.00000   0.00984   0.00983   2.11411
   A17        2.09041   0.00026   0.00000   0.00185   0.00186   2.09227
   A18        2.08849  -0.00426   0.00000  -0.01169  -0.01169   2.07680
   A19        2.10093  -0.00080   0.00000  -0.00365  -0.00365   2.09728
   A20        2.09889  -0.00218   0.00000  -0.01066  -0.01066   2.08824
   A21        2.08336   0.00298   0.00000   0.01431   0.01431   2.09767
   A22        2.11300  -0.01108   0.00000  -0.03685  -0.03685   2.07615
   A23        2.11406   0.03166   0.00000   0.10530   0.10530   2.21936
   A24        2.05611  -0.02058   0.00000  -0.06844  -0.06845   1.98766
   A25        2.10095  -0.00080   0.00000  -0.00365  -0.00365   2.09730
   A26        2.09889  -0.00218   0.00000  -0.01066  -0.01066   2.08823
   A27        2.08335   0.00298   0.00000   0.01431   0.01431   2.09765
   A28        2.11298  -0.01106   0.00000  -0.03683  -0.03683   2.07615
   A29        2.11401   0.03158   0.00000   0.10504   0.10504   2.21905
   A30        2.05617  -0.02052   0.00000  -0.06821  -0.06822   1.98796
   A31        2.09179   0.00054   0.00000   0.00180   0.00180   2.09359
   A32        2.09391  -0.00059   0.00000  -0.00245  -0.00245   2.09146
   A33        2.09749   0.00005   0.00000   0.00064   0.00065   2.09814
   A34        2.09180   0.00054   0.00000   0.00180   0.00180   2.09360
   A35        2.09391  -0.00059   0.00000  -0.00245  -0.00245   2.09146
   A36        2.09747   0.00005   0.00000   0.00066   0.00066   2.09813
   A37        2.09087   0.01164   0.00000   0.03202   0.03189   2.12276
   A38        2.11445  -0.00575   0.00000  -0.01566  -0.01559   2.09885
   A39        2.07787  -0.00589   0.00000  -0.01636  -0.01630   2.06157
   A40        2.09090   0.01166   0.00000   0.03210   0.03198   2.12288
   A41        2.11443  -0.00576   0.00000  -0.01570  -0.01564   2.09879
   A42        2.07784  -0.00590   0.00000  -0.01640  -0.01633   2.06151
   A43        2.09439  -0.00576   0.00000  -0.02792  -0.02792   2.06648
   A44        2.09439   0.01144   0.00000   0.05541   0.05541   2.14981
   A45        2.09440  -0.00568   0.00000  -0.02750  -0.02750   2.06690
   A46        2.09440   0.01148   0.00000   0.05561   0.05561   2.15000
   A47        2.09440  -0.00579   0.00000  -0.02804  -0.02804   2.06636
   A48        2.09439  -0.00569   0.00000  -0.02757  -0.02757   2.06683
    D1       -0.00899  -0.00024   0.00000  -0.00343  -0.00345  -0.01244
    D2        3.13252  -0.00027   0.00000  -0.00372  -0.00374   3.12879
    D3        3.12286  -0.00009   0.00000  -0.00179  -0.00183   3.12103
    D4       -0.01881  -0.00011   0.00000  -0.00208  -0.00212  -0.02093
    D5        0.03550   0.00030   0.00000   0.00696   0.00695   0.04245
    D6       -3.11565   0.00030   0.00000   0.00686   0.00687  -3.10878
    D7       -3.09585   0.00027   0.00000   0.00567   0.00563  -3.09022
    D8        0.03619   0.00027   0.00000   0.00558   0.00554   0.04173
    D9       -0.00907  -0.00003   0.00000   0.00023   0.00021  -0.00886
   D10        3.13440   0.00002   0.00000   0.00078   0.00077   3.13517
   D11        3.13260  -0.00001   0.00000   0.00052   0.00050   3.13310
   D12       -0.00712   0.00004   0.00000   0.00107   0.00106  -0.00606
   D13       -3.13702   0.00000   0.00000  -0.00024  -0.00023  -3.13725
   D14        0.00456  -0.00001   0.00000  -0.00037  -0.00037   0.00419
   D15        0.00450  -0.00002   0.00000  -0.00052  -0.00051   0.00398
   D16       -3.13711  -0.00004   0.00000  -0.00066  -0.00065  -3.13776
   D17       -0.04259  -0.00040   0.00000  -0.00777  -0.00780  -0.05039
   D18        3.10742  -0.00039   0.00000  -0.00740  -0.00744   3.09998
   D19        3.10838  -0.00041   0.00000  -0.00765  -0.00769   3.10069
   D20       -0.02480  -0.00040   0.00000  -0.00727  -0.00732  -0.03213
   D21       -3.11606   0.00034   0.00000   0.00560   0.00556  -3.11050
   D22        0.03223   0.00042   0.00000   0.00612   0.00611   0.03834
   D23        0.01604   0.00032   0.00000   0.00546   0.00543   0.02147
   D24       -3.11885   0.00041   0.00000   0.00598   0.00598  -3.11288
   D25       -3.10804   0.00023   0.00000   0.00456   0.00454  -3.10349
   D26        0.02498   0.00020   0.00000   0.00420   0.00420   0.02918
   D27        0.02466   0.00021   0.00000   0.00476   0.00475   0.02942
   D28       -3.12551   0.00018   0.00000   0.00440   0.00441  -3.12110
   D29        0.00193  -0.00011   0.00000  -0.00113  -0.00114   0.00079
   D30       -3.14154  -0.00016   0.00000  -0.00166  -0.00168   3.13996
   D31        3.13507  -0.00002   0.00000  -0.00058  -0.00059   3.13448
   D32       -0.00840  -0.00006   0.00000  -0.00112  -0.00113  -0.00953
   D33        0.01646   0.00028   0.00000   0.00480   0.00477   0.02123
   D34       -3.11986   0.00036   0.00000   0.00535   0.00536  -3.11451
   D35       -3.11661   0.00031   0.00000   0.00519   0.00516  -3.11146
   D36        0.03025   0.00039   0.00000   0.00575   0.00575   0.03599
   D37        0.00441  -0.00004   0.00000  -0.00077  -0.00076   0.00365
   D38       -3.13770  -0.00004   0.00000  -0.00072  -0.00072  -3.13843
   D39       -3.13532   0.00000   0.00000  -0.00024  -0.00023  -3.13556
   D40        0.00575  -0.00000   0.00000  -0.00020  -0.00019   0.00556
   D41        0.00094  -0.00003   0.00000  -0.00040  -0.00040   0.00053
   D42       -3.14142  -0.00001   0.00000   0.00001   0.00000  -3.14141
   D43       -3.14064  -0.00001   0.00000  -0.00027  -0.00026  -3.14091
   D44        0.00019   0.00001   0.00000   0.00014   0.00014   0.00033
   D45        0.00144  -0.00006   0.00000  -0.00064  -0.00065   0.00079
   D46        3.13897  -0.00006   0.00000  -0.00064  -0.00064   3.13833
   D47        3.13793   0.00002   0.00000  -0.00067  -0.00065   3.13728
   D48       -0.00773   0.00002   0.00000  -0.00067  -0.00064  -0.00837
   D49       -0.00511   0.00007   0.00000   0.00134   0.00132  -0.00379
   D50        3.13649   0.00011   0.00000   0.00200   0.00199   3.13848
   D51        3.14159   0.00012   0.00000   0.00180   0.00182  -3.13978
   D52        0.00000   0.00016   0.00000   0.00247   0.00249   0.00249
   D53        0.00102  -0.00001   0.00000  -0.00016  -0.00015   0.00087
   D54        3.14135   0.00001   0.00000   0.00028   0.00027  -3.14157
   D55       -3.14005  -0.00001   0.00000  -0.00019  -0.00019  -3.14024
   D56        0.00027   0.00002   0.00000   0.00024   0.00024   0.00051
   D57        0.00186  -0.00010   0.00000  -0.00130  -0.00131   0.00055
   D58        3.14081  -0.00013   0.00000  -0.00153  -0.00153   3.13928
   D59        3.13697   0.00001   0.00000  -0.00115  -0.00115   3.13582
   D60       -0.00727  -0.00002   0.00000  -0.00138  -0.00136  -0.00863
   D61       -3.14159   0.00009   0.00000   0.00179   0.00177  -3.13982
   D62        0.00000   0.00007   0.00000   0.00146   0.00144   0.00144
   D63        0.00649   0.00015   0.00000   0.00220   0.00222   0.00871
   D64       -3.13510   0.00013   0.00000   0.00187   0.00189  -3.13321
   D65       -0.00367   0.00003   0.00000   0.00072   0.00072  -0.00295
   D66        3.13920   0.00001   0.00000   0.00029   0.00029   3.13948
   D67        3.13868   0.00001   0.00000   0.00031   0.00031   3.13899
   D68       -0.00164  -0.00001   0.00000  -0.00012  -0.00012  -0.00175
   D69       -0.01062  -0.00007   0.00000  -0.00127  -0.00124  -0.01186
   D70        3.13495  -0.00007   0.00000  -0.00127  -0.00125   3.13371
   D71        3.13356  -0.00005   0.00000  -0.00104  -0.00103   3.13253
   D72       -0.00405  -0.00005   0.00000  -0.00104  -0.00104  -0.00509
         Item               Value     Threshold  Converged?
 Maximum Force            0.042977     0.000450     NO 
 RMS     Force            0.010504     0.000300     NO 
 Maximum Displacement     0.398537     0.001800     NO 
 RMS     Displacement     0.088457     0.001200     NO 
 Predicted change in Energy=-2.025265D-02
 GradGradGradGradGradGradGradGradGradGradGradGradGradGradGradGradGradGrad

                          Input orientation:                          
 ---------------------------------------------------------------------
 Center     Atomic      Atomic             Coordinates (Angstroms)
 Number     Number       Type             X           Y           Z
 ---------------------------------------------------------------------
      1          6           0        0.104860    1.482561   -0.029955
      2          6           0        1.362894    0.707761   -0.012493
      3          6           0       -1.200779    0.755318   -0.032582
      4          8           0        0.231807    2.723860   -0.032421
      5          6           0        0.078905   -1.437215    0.041715
      6          6           0       -1.213798   -0.687133    0.035211
      7          8           0        0.184266   -2.680414    0.058564
      8          6           0        1.350473   -0.684989    0.016347
      9          6           0        2.584387    1.395076   -0.025806
     10          6           0       -2.481922   -1.385158    0.084839
     11          6           0        2.559533   -1.394023    0.024588
     12          6           0       -2.455739    1.475991   -0.090208
     13          6           0        3.786407    0.688116   -0.015057
     14          6           0        3.773950   -0.708690    0.008393
     15          6           0       -3.678185    0.739413   -0.051630
     16          6           0       -3.690678   -0.626674    0.038846
     17          1           0        2.589707    2.496038   -0.044939
     18          1           0        2.545254   -2.494895    0.044377
     19          1           0        4.741186    1.232692   -0.025415
     20          1           0        4.718866   -1.270265    0.014938
     21          1           0       -4.665880   -1.135260    0.072053
     22          1           0       -4.643875    1.265342   -0.091889
     23          7           0       -2.629742    2.850267   -0.190136
     24          7           0       -2.681662   -2.756142    0.181783
     25          1           0       -1.942147   -3.407986    0.224546
     26          1           0       -3.607302   -3.094283    0.208603
     27          1           0       -3.548833    3.205706   -0.218361
     28          1           0       -1.878003    3.487918   -0.233961
 ---------------------------------------------------------------------
                    Distance matrix (angstroms):
                    1          2          3          4          5
     1  C    0.000000
     2  C    1.477589   0.000000
     3  C    1.494517   2.564192   0.000000
     4  O    1.247777   2.311798   2.434638   0.000000
     5  C    2.920770   2.500498   2.539747   4.164543   0.000000
     6  C    2.539818   2.930418   1.444102   3.705297   1.494573
     7  O    4.164673   3.588028   3.705525   5.405249   1.247770
     8  C    2.500394   1.393105   2.930147   3.588042   1.477623
     9  C    2.481074   1.401651   3.838856   2.701915   3.782045
    10  C    3.863732   4.378629   2.497349   4.925658   2.561719
    11  C    3.781948   2.418846   4.331614   4.730594   2.481063
    12  C    2.561316   3.895918   1.448315   2.963684   3.863754
    13  C    3.766319   2.423594   4.987669   4.096308   4.273853
    14  C    4.273789   2.796420   5.185839   4.932630   3.766326
    15  C    3.855407   5.041330   2.477531   4.384796   4.343058
    16  C    4.342777   5.227039   2.848614   5.159171   3.855742
    17  H    2.683622   2.168883   4.171095   2.368913   4.667131
    18  H    4.667034   3.414413   4.960098   5.709058   2.683574
    19  H    4.643057   3.418857   5.961115   4.749540   5.373060
    20  H    5.372999   3.895625   6.256792   6.007410   4.643040
    21  H    5.442733   6.304759   3.948691   6.236270   4.754480
    22  H    4.754104   6.033115   3.481171   5.089508   5.443006
    23  N    3.061752   4.534647   2.540781   2.868678   5.076714
    24  N    5.077021   5.328678   3.816978   6.210041   3.062666
    25  H    5.307773   5.283830   4.236608   6.510887   2.828784
    26  H    5.897843   6.261571   4.546312   6.974786   4.044978
    27  H    4.044032   5.514269   3.398863   3.815755   5.897867
    28  H    2.827511   4.275714   2.822461   2.252932   5.306827
                    6          7          8          9         10
     6  C    0.000000
     7  O    2.434810   0.000000
     8  C    2.564341   2.311610   0.000000
     9  C    4.331920   4.730467   2.418882   0.000000
    10  C    1.448392   2.964277   3.896431   5.780089   0.000000
    11  C    3.838989   2.701453   1.401650   2.789664   5.041822
    12  C    2.497449   4.926202   4.378178   5.041187   2.866619
    13  C    5.186124   4.932325   2.796458   1.394546   6.603059
    14  C    4.987867   4.095857   2.423606   2.417035   6.292804
    15  C    2.848820   5.160028   5.226944   6.296854   2.442022
    16  C    2.477620   4.385594   5.041538   6.593034   1.427762
    17  H    4.960408   5.708985   3.414438   1.101141   6.387639
    18  H    4.171158   2.368307   2.168882   3.890801   5.148363
    19  H    6.257096   6.007077   3.895662   2.162903   7.683657
    20  H    5.961288   4.749002   3.418863   3.414924   7.202043
    21  H    3.481241   5.090344   6.033436   7.679749   2.198246
    22  H    3.948891   6.237193   6.304579   7.229728   3.424971
    23  N    3.816919   6.210388   5.327549   5.415877   4.246914
    24  N    2.541045   2.869576   4.535985   6.708724   1.388846
    25  H    2.823009   2.253562   4.277780   6.604664   2.098264
    26  H    3.399014   3.817039   5.515540   7.651555   2.050099
    27  H    4.546524   6.975609   6.260654   6.397800   4.722950
    28  H    4.236115   6.510518   5.281937   4.933178   4.920693
                   11         12         13         14         15
    11  C    0.000000
    12  C    5.779543   0.000000
    13  C    2.417042   6.292121   0.000000
    14  C    1.394544   6.602392   1.397058   0.000000
    15  C    6.592912   1.427729   7.464858   7.591767   0.000000
    16  C    6.297155   2.441911   7.591994   7.465141   1.369137
    17  H    3.890799   5.147724   2.168310   3.416951   6.509397
    18  H    1.101143   6.387173   3.416951   2.168299   7.014354
    19  H    3.414930   7.201328   1.099215   2.169252   8.433850
    20  H    2.162898   7.682964   2.169248   1.099216   8.634449
    21  H    7.230201   3.424862   8.647164   8.450843   2.122554
    22  H    7.679510   2.198253   8.450370   8.646770   1.100354
    23  N    6.707360   1.388847   6.772925   7.328905   2.360957
    24  N    5.417583   4.246878   7.330592   6.774737   3.642313
    25  H    4.935701   4.920984   7.046402   6.325084   4.504556
    26  H    6.399577   4.722583   8.308038   7.759769   3.843172
    27  H    7.650403   2.050168   7.757921   8.306447   2.475304
    28  H    6.602417   2.098164   6.322369   7.043779   3.290620
                   16         17         18         19         20
    16  C    0.000000
    17  H    7.014384   0.000000
    18  H    6.509771   4.991930   0.000000
    19  H    8.634681   2.495053   4.326881   0.000000
    20  H    8.434169   4.326886   2.495030   2.503382   0.000000
    21  H    1.100355   8.114403   7.338244   9.701010   9.385891
    22  H    2.122593   7.337678   8.114279   9.385354   9.700600
    23  N    3.642408   5.233470   7.443543   7.548130   8.427507
    24  N    2.360758   7.444738   5.235244   8.429259   7.550065
    25  H    3.290524   7.447672   4.582898   8.140351   6.998777
    26  H    2.474846   8.349783   6.183864   9.406101   8.525820
    27  H    3.843619   6.181858   8.348879   8.523757   9.404445
    28  H    4.504451   4.580391   7.445584   6.995942   8.137625
                   21         22         23         24         25
    21  H    0.000000
    22  H    2.406294   0.000000
    23  N    4.483193   2.564833   0.000000
    24  N    2.564453   4.483025   5.618971   0.000000
    25  H    3.550671   5.407353   6.309554   0.986718   0.000000
    26  H    2.230921   4.491226   6.037573   0.985833   1.694522
    27  H    4.491783   2.231619   0.985831   6.037858   6.820449
    28  H    5.407372   3.551067   0.986727   6.309278   6.911428
                   26         27         28
    26  H    0.000000
    27  H    6.314711   0.000000
    28  H    6.819949   1.694568   0.000000
 Stoichiometry    C14H10N2O2
 Framework group  C1[X(C14H10N2O2)]
 Deg. of freedom    78
 Full point group                 C1      NOp   1
 Largest Abelian subgroup         C1      NOp   1
 Largest concise Abelian subgroup C1      NOp   1
                         Standard orientation:                         
 ---------------------------------------------------------------------
 Center     Atomic      Atomic             Coordinates (Angstroms)
 Number     Number       Type             X           Y           Z
 ---------------------------------------------------------------------
      1          6           0       -0.368280   -1.459956    0.030256
      2          6           0       -1.633105   -0.696246    0.014997
      3          6           0        0.930900   -0.721949   -0.002280
      4          8           0       -0.484281   -2.701351    0.079513
      5          6           0       -0.368108    1.460385   -0.019878
      6          6           0        0.931160    0.722133    0.005309
      7          8           0       -0.484433    2.702226   -0.054918
      8          6           0       -1.632979    0.696552   -0.014260
      9          6           0       -2.848485   -1.394281    0.029969
     10          6           0        2.193048    1.432796    0.026189
     11          6           0       -2.848247    1.394604   -0.035975
     12          6           0        2.192202   -1.433284   -0.029407
     13          6           0       -4.056695   -0.698134    0.010849
     14          6           0       -4.056565    0.698490   -0.023963
     15          6           0        3.408082   -0.684967   -0.021191
     16          6           0        3.408473    0.683761    0.012247
     17          1           0       -2.844088   -2.495088    0.056759
     18          1           0       -2.843684    2.495427   -0.062104
     19          1           0       -5.006631   -1.251082    0.022905
     20          1           0       -5.006398    1.251481   -0.041139
     21          1           0        4.379132    1.201885    0.024527
     22          1           0        4.378397   -1.203566   -0.039178
     23          7           0        2.378378   -2.808939   -0.071887
     24          7           0        2.380631    2.808341    0.065944
     25          1           0        1.635370    3.454843    0.081254
     26          1           0        3.303236    3.155470    0.078934
     27          1           0        3.300585   -3.157113   -0.084976
     28          1           0        1.632319   -3.454479   -0.089323
 ---------------------------------------------------------------------
 Rotational constants (GHZ):      0.7099795      0.3685734      0.2427149
 Standard basis: VSTO-6G (5D, 7F)
 There are    82 symmetry adapted cartesian basis functions of A   symmetry.
 There are    82 symmetry adapted basis functions of A   symmetry.
    82 basis functions,   492 primitive gaussians,    82 cartesian basis functions
    44 alpha electrons       44 beta electrons
       nuclear repulsion energy       662.0309263292 Hartrees.
 Integral buffers will be    131072 words long.
 Regular integral format.
 Two-electron integral symmetry is turned off.
 Do NDO integrals.
 One-electron integrals computed using PRISM.
 NBasis=    82 RedAO= F EigKep=  0.00D+00  NBF=    82
 NBsUse=    82 1.00D-04 EigRej=  0.00D+00 NBFU=    82
 Initial guess from the checkpoint file:  "anthracene-1-4-opt.chk"
 B after Tr=    -0.000000    0.000000   -0.000000
         Rot=    1.000000    0.000093    0.000031    0.000035 Ang=   0.01 deg.
 Overlap will be assumed to be unity.
 Keep J ints in memory in canonical form, NReq=936458.
 Requested convergence on RMS density matrix=1.00D-08 within 128 cycles.
 Requested convergence on MAX density matrix=1.00D-06.
 Requested convergence on             energy=1.00D-06.
 No special actions if energy rises.
 SCF Done:  E(RAM1) =  0.690385143685E-03 A.U. after   15 cycles
            NFock= 14  Conv=0.78D-08     -V/T= 1.0000
 Calling FoFJK, ICntrl=      2127 FMM=F ISym2X=0 I1Cent= 0 IOpClX= 0 NMat=1 NMatS=1 NMatT=0.
 ***** Axes restored to original set *****
 -------------------------------------------------------------------
 Center     Atomic                   Forces (Hartrees/Bohr)
 Number     Number              X              Y              Z
 -------------------------------------------------------------------
      1        6          -0.013213215    0.001470384    0.000274540
      2        6          -0.001098678   -0.001612098   -0.000212067
      3        6          -0.013224357    0.004407114   -0.000284376
      4        8          -0.019161813   -0.003195029   -0.000783172
      5        6          -0.013266926   -0.001223471   -0.000300478
      6        6          -0.013315650   -0.004202925    0.000233674
      7        8          -0.019198765    0.003497261    0.000636373
      8        6          -0.001076188    0.001660460    0.000168093
      9        6           0.003383603   -0.001900763   -0.000103988
     10        6           0.019865005   -0.004331530    0.000623274
     11        6           0.003425295    0.001835814    0.000030777
     12        6           0.019919833    0.003999933   -0.000564707
     13        6          -0.001765541   -0.002357431    0.000016842
     14        6          -0.001720240    0.002391453   -0.000005655
     15        6           0.003719506   -0.012756251    0.000991739
     16        6           0.003962487    0.012699951   -0.000991341
     17        1          -0.000817395    0.000971111   -0.000032395
     18        1          -0.000832168   -0.000958002    0.000044816
     19        1           0.000576891    0.000136518   -0.000011467
     20        1           0.000574302   -0.000147113    0.000000019
     21        1          -0.001295608   -0.001780013    0.000113733
     22        1          -0.001256847    0.001808122   -0.000076542
     23        7           0.017753508   -0.015400935    0.001093272
     24        7           0.018103277    0.015065702   -0.001023202
     25        1           0.005813943    0.004256118   -0.000693477
     26        1          -0.000782867   -0.000161173   -0.000163032
     27        1          -0.000776474    0.000166178    0.000159335
     28        1           0.005705081   -0.004339384    0.000859412
 -------------------------------------------------------------------
 Cartesian Forces:  Max     0.019919833 RMS     0.006874372

 GradGradGradGradGradGradGradGradGradGradGradGradGradGradGradGradGradGrad
 Berny optimization.
 Using GEDIIS/GDIIS optimizer.
 FormGI is forming the generalized inverse of G from B-inverse, IUseBI=4.
 Internal  Forces:  Max     0.051820083 RMS     0.010936845
 Search for a local minimum.
 Step number   2 out of a maximum of  160
 All quantities printed in internal units (Hartrees-Bohrs-Radians)
 Mixed Optimization -- RFO/linear search
 Update second derivatives using D2CorX and points    2    1
 DE=  3.87D-04 DEPred=-2.03D-02 R=-1.91D-02
 Trust test=-1.91D-02 RLast= 3.01D-01 DXMaxT set to 1.50D-01
 ITU= -1  0
 Use linear search instead of GDIIS.
 Energy rises -- skip Quadratic/GDIIS search.
 Quartic linear search produced a step of -0.53469.
 Iteration  1 RMS(Cart)=  0.04710673 RMS(Int)=  0.00101248
 Iteration  2 RMS(Cart)=  0.00140309 RMS(Int)=  0.00000761
 Iteration  3 RMS(Cart)=  0.00000026 RMS(Int)=  0.00000760
 Variable       Old X    -DE/DX   Delta X   Delta X   Delta X     New X
                                 (Linear)    (Quad)   (Total)
    R1        2.79224   0.00489  -0.00383   0.00000  -0.00383   2.78841
    R2        2.82423  -0.03325  -0.00494   0.00000  -0.00494   2.81929
    R3        2.35796  -0.00513  -0.02268   0.00000  -0.02268   2.33528
    R4        2.63259   0.00558  -0.00572   0.00000  -0.00571   2.62687
    R5        2.64874   0.00036   0.00223   0.00000   0.00223   2.65097
    R6        2.72896  -0.03145  -0.04001   0.00000  -0.04003   2.68892
    R7        2.73692  -0.05168  -0.03967   0.00000  -0.03968   2.69724
    R8        2.82433  -0.03336  -0.00496   0.00000  -0.00496   2.81938
    R9        2.35794  -0.00510  -0.02267   0.00000  -0.02267   2.33527
   R10        2.79230   0.00489  -0.00382   0.00000  -0.00382   2.78849
   R11        2.73706  -0.05182  -0.03974   0.00000  -0.03975   2.69731
   R12        2.64873   0.00038   0.00223   0.00000   0.00223   2.65097
   R13        2.63531  -0.00061   0.00107   0.00000   0.00107   2.63638
   R14        2.08086   0.00097  -0.01220   0.00000  -0.01220   2.06865
   R15        2.69808   0.00286  -0.03277   0.00000  -0.03276   2.66532
   R16        2.62454  -0.02237  -0.02314   0.00000  -0.02314   2.60140
   R17        2.63531  -0.00060   0.00108   0.00000   0.00108   2.63639
   R18        2.08086   0.00097  -0.01220   0.00000  -0.01220   2.06866
   R19        2.69802   0.00287  -0.03275   0.00000  -0.03274   2.66528
   R20        2.62454  -0.02236  -0.02315   0.00000  -0.02315   2.60139
   R21        2.64006  -0.00142  -0.00474   0.00000  -0.00474   2.63532
   R22        2.07722   0.00057  -0.01181   0.00000  -0.01181   2.06541
   R23        2.07722   0.00057  -0.01180   0.00000  -0.01180   2.06542
   R24        2.58729  -0.00134   0.02066   0.00000   0.02068   2.60798
   R25        2.07937   0.00197  -0.01379   0.00000  -0.01379   2.06558
   R26        2.07937   0.00197  -0.01379   0.00000  -0.01379   2.06558
   R27        1.86295   0.00078  -0.00135   0.00000  -0.00135   1.86160
   R28        1.86464   0.00150  -0.00225   0.00000  -0.00225   1.86240
   R29        1.86463   0.00152  -0.00224   0.00000  -0.00224   1.86238
   R30        1.86295   0.00079  -0.00135   0.00000  -0.00135   1.86161
    A1        2.08136  -0.00586   0.00320   0.00000   0.00319   2.08455
    A2        2.02089   0.02503   0.01781   0.00000   0.01781   2.03870
    A3        2.18091  -0.01916  -0.02102   0.00000  -0.02101   2.15989
    A4        2.11401  -0.00475  -0.00521   0.00000  -0.00521   2.10880
    A5        2.07686   0.00531   0.00620   0.00000   0.00620   2.08305
    A6        2.09232  -0.00056  -0.00099   0.00000  -0.00099   2.09133
    A7        2.08730   0.01059   0.00209   0.00000   0.00209   2.08939
    A8        2.11172  -0.02068   0.00053   0.00000   0.00055   2.11227
    A9        2.08413   0.01009  -0.00262   0.00000  -0.00264   2.08148
   A10        2.18111  -0.01928  -0.02109   0.00000  -0.02108   2.16003
   A11        2.08145  -0.00587   0.00316   0.00000   0.00315   2.08461
   A12        2.02059   0.02514   0.01793   0.00000   0.01793   2.03852
   A13        2.08714   0.01068   0.00217   0.00000   0.00218   2.08932
[...]
    18  H    6.333676   4.999866   0.000000
    19  H    8.401200   2.506507   4.331788   0.000000
    20  H    8.192943   4.331727   2.505306   2.496979   0.000000
    21  H    1.102579   7.949389   7.137281   9.445945   9.115006
    22  H    2.136618   7.100573   7.906614   9.057648   9.383915
    23  N    3.683295   4.873779   7.186115   7.129103   8.045700
    24  N    2.409679   7.315560   5.064048   8.257238   7.365156
    25  H    3.305111   7.216834   4.330895   7.878056   6.738437
    26  H    2.564327   8.148972   5.836162   9.087387   8.149082
    27  H    3.912799   5.797690   8.107641   8.100586   9.035538
    28  H    4.460627   4.196098   7.122861   6.582807   7.737127
                   21         22         23         24         25
    21  H    0.000000
    22  H    2.447638   0.000000
    23  N    4.557517   2.644546   0.000000
    24  N    2.629031   4.544671   5.623973   0.000000
    25  H    3.611801   5.423161   6.211010   0.995119   0.000000
    26  H    2.370310   4.625420   6.099846   0.992328   1.685135
    27  H    4.616324   2.371572   0.995515   6.071427   6.761447
    28  H    5.404563   3.604969   0.996789   6.176993   6.659724
                   26         27         28
    26  H    0.000000
    27  H    6.448173   0.000000
    28  H    6.760408   1.666740   0.000000
 Stoichiometry    C14H10N2O2
 Framework group  C1[X(C14H10N2O2)]
 Deg. of freedom    78
 Full point group                 C1      NOp   1
 Largest Abelian subgroup         C1      NOp   1
 Largest concise Abelian subgroup C1      NOp   1
                         Standard orientation:                         
 ---------------------------------------------------------------------
 Center     Atomic      Atomic             Coordinates (Angstroms)
 Number     Number       Type             X           Y           Z
 ---------------------------------------------------------------------
      1          6           0       -0.347523   -1.401045    0.460863
      2          6           0       -1.588468   -0.679154    0.112354
      3          6           0        0.916884   -0.712171    0.123336
      4          8           0       -0.394899   -2.513323    1.008625
      5          6           0       -0.311474    1.452237    0.325517
      6          6           0        0.947537    0.708108    0.130026
      7          8           0       -0.366903    2.642602    0.677606
      8          6           0       -1.566483    0.719616    0.041016
      9          6           0       -2.775794   -1.374973   -0.130565
     10          6           0        2.168684    1.391030   -0.077504
     11          6           0       -2.735633    1.417961   -0.275841
     12          6           0        2.068648   -1.461597   -0.188512
     13          6           0       -3.935418   -0.673570   -0.463349
     14          6           0       -3.914950    0.718803   -0.535990
     15          6           0        3.277227   -0.750671   -0.462438
     16          6           0        3.325747    0.614693   -0.405182
     17          1           0       -2.784105   -2.473627   -0.050494
     18          1           0       -2.714084    2.519065   -0.308916
     19          1           0       -4.868059   -1.222560   -0.662494
     20          1           0       -4.831687    1.270757   -0.792694
     21          1           0        4.280285    1.129118   -0.604950
     22          1           0        4.188936   -1.314038   -0.721466
     23          7           0        2.066462   -2.846128   -0.345391
     24          7           0        2.329898    2.755988    0.074086
     25          1           0        1.515042    3.318632    0.172588
     26          1           0        3.084842    3.167629   -0.421218
     27          1           0        2.955332   -3.276052   -0.218400
     28          1           0        1.319473   -3.337767    0.094935
 ---------------------------------------------------------------------
 Rotational constants (GHZ):      0.6922743      0.3856287      0.2588815

 **********************************************************************

            Population analysis using the SCF density.

 **********************************************************************

 Orbital symmetries:
       Occupied  (A) (A) (A) (A) (A) (A) (A) (A) (A) (A) (A) (A)
                 (A) (A) (A) (A) (A) (A) (A) (A) (A) (A) (A) (A)
                 (A) (A) (A) (A) (A) (A) (A) (A) (A) (A) (A) (A)
                 (A) (A) (A) (A) (A) (A) (A) (A)
       Virtual   (A) (A) (A) (A) (A) (A) (A) (A) (A) (A) (A) (A)
                 (A) (A) (A) (A) (A) (A) (A) (A) (A) (A) (A) (A)
                 (A) (A) (A) (A) (A) (A) (A) (A) (A) (A) (A) (A)
                 (A) (A)
 The electronic state is 1-A.
 Alpha  occ. eigenvalues --   -1.53130  -1.45760  -1.44594  -1.39400  -1.34223
 Alpha  occ. eigenvalues --   -1.26341  -1.21738  -1.17265  -1.14879  -1.04931
 Alpha  occ. eigenvalues --   -0.97065  -0.92964  -0.89057  -0.82916  -0.78976
 Alpha  occ. eigenvalues --   -0.75330  -0.69691  -0.67144  -0.65874  -0.64397
 Alpha  occ. eigenvalues --   -0.61250  -0.60865  -0.59800  -0.58752  -0.58165
 Alpha  occ. eigenvalues --   -0.57083  -0.54809  -0.54724  -0.53219  -0.52397
 Alpha  occ. eigenvalues --   -0.51896  -0.51303  -0.48590  -0.48297  -0.48025
 Alpha  occ. eigenvalues --   -0.46491  -0.45539  -0.40617  -0.39498  -0.38506
 Alpha  occ. eigenvalues --   -0.37636  -0.36790  -0.36717  -0.29815
 Alpha virt. eigenvalues --   -0.04059  -0.00510   0.00055   0.01108   0.05100
 Alpha virt. eigenvalues --    0.05328   0.08953   0.09590   0.10094   0.10304
 Alpha virt. eigenvalues --    0.10602   0.11213   0.12592   0.13575   0.13620
 Alpha virt. eigenvalues --    0.13702   0.14361   0.14646   0.14921   0.15412
 Alpha virt. eigenvalues --    0.15577   0.16357   0.16771   0.17201   0.17454
 Alpha virt. eigenvalues --    0.17587   0.18330   0.18726   0.19021   0.19063
 Alpha virt. eigenvalues --    0.19377   0.20744   0.21952   0.22541   0.22865
 Alpha virt. eigenvalues --    0.23128   0.23416   0.24000
          Condensed to atoms (all electrons):
               1          2          3          4          5          6
     1  C    3.678733   0.000000   0.000000   0.000000   0.000000   0.000000
     2  C    0.000000   4.106922   0.000000   0.000000   0.000000   0.000000
     3  C    0.000000   0.000000   4.145371   0.000000   0.000000   0.000000
     4  O    0.000000   0.000000   0.000000   6.312357   0.000000   0.000000
     5  C    0.000000   0.000000   0.000000   0.000000   3.683937   0.000000
     6  C    0.000000   0.000000   0.000000   0.000000   0.000000   4.165261
     7  O    0.000000   0.000000   0.000000   0.000000   0.000000   0.000000
     8  C    0.000000   0.000000   0.000000   0.000000   0.000000   0.000000
     9  C    0.000000   0.000000   0.000000   0.000000   0.000000   0.000000
    10  C    0.000000   0.000000   0.000000   0.000000   0.000000   0.000000
    11  C    0.000000   0.000000   0.000000   0.000000   0.000000   0.000000
    12  C    0.000000   0.000000   0.000000   0.000000   0.000000   0.000000
    13  C    0.000000   0.000000   0.000000   0.000000   0.000000   0.000000
    14  C    0.000000   0.000000   0.000000   0.000000   0.000000   0.000000
    15  C    0.000000   0.000000   0.000000   0.000000   0.000000   0.000000
    16  C    0.000000   0.000000   0.000000   0.000000   0.000000   0.000000
    17  H    0.000000   0.000000   0.000000   0.000000   0.000000   0.000000
    18  H    0.000000   0.000000   0.000000   0.000000   0.000000   0.000000
    19  H    0.000000   0.000000   0.000000   0.000000   0.000000   0.000000
    20  H    0.000000   0.000000   0.000000   0.000000   0.000000   0.000000
    21  H    0.000000   0.000000   0.000000   0.000000   0.000000   0.000000
    22  H    0.000000   0.000000   0.000000   0.000000   0.000000   0.000000
    23  N    0.000000   0.000000   0.000000   0.000000   0.000000   0.000000
    24  N    0.000000   0.000000   0.000000   0.000000   0.000000   0.000000
    25  H    0.000000   0.000000   0.000000   0.000000   0.000000   0.000000
    26  H    0.000000   0.000000   0.000000   0.000000   0.000000   0.000000
    27  H    0.000000   0.000000   0.000000   0.000000   0.000000   0.000000
    28  H    0.000000   0.000000   0.000000   0.000000   0.000000   0.000000
               7          8          9         10         11         12
     1  C    0.000000   0.000000   0.000000   0.000000   0.000000   0.000000
     2  C    0.000000   0.000000   0.000000   0.000000   0.000000   0.000000
     3  C    0.000000   0.000000   0.000000   0.000000   0.000000   0.000000
     4  O    0.000000   0.000000   0.000000   0.000000   0.000000   0.000000
     5  C    0.000000   0.000000   0.000000   0.000000   0.000000   0.000000
     6  C    0.000000   0.000000   0.000000   0.000000   0.000000   0.000000
     7  O    6.318062   0.000000   0.000000   0.000000   0.000000   0.000000
     8  C    0.000000   4.105844   0.000000   0.000000   0.000000   0.000000
     9  C    0.000000   0.000000   4.086664   0.000000   0.000000   0.000000
    10  C    0.000000   0.000000   0.000000   3.892304   0.000000   0.000000
    11  C    0.000000   0.000000   0.000000   0.000000   4.087543   0.000000
    12  C    0.000000   0.000000   0.000000   0.000000   0.000000   3.924612
    13  C    0.000000   0.000000   0.000000   0.000000   0.000000   0.000000
    14  C    0.000000   0.000000   0.000000   0.000000   0.000000   0.000000
    15  C    0.000000   0.000000   0.000000   0.000000   0.000000   0.000000
    16  C    0.000000   0.000000   0.000000   0.000000   0.000000   0.000000
    17  H    0.000000   0.000000   0.000000   0.000000   0.000000   0.000000
    18  H    0.000000   0.000000   0.000000   0.000000   0.000000   0.000000
    19  H    0.000000   0.000000   0.000000   0.000000   0.000000   0.000000
    20  H    0.000000   0.000000   0.000000   0.000000   0.000000   0.000000
    21  H    0.000000   0.000000   0.000000   0.000000   0.000000   0.000000
    22  H    0.000000   0.000000   0.000000   0.000000   0.000000   0.000000
    23  N    0.000000   0.000000   0.000000   0.000000   0.000000   0.000000
    24  N    0.000000   0.000000   0.000000   0.000000   0.000000   0.000000
    25  H    0.000000   0.000000   0.000000   0.000000   0.000000   0.000000
    26  H    0.000000   0.000000   0.000000   0.000000   0.000000   0.000000
    27  H    0.000000   0.000000   0.000000   0.000000   0.000000   0.000000
    28  H    0.000000   0.000000   0.000000   0.000000   0.000000   0.000000
              13         14         15         16         17         18
     1  C    0.000000   0.000000   0.000000   0.000000   0.000000   0.000000
     2  C    0.000000   0.000000   0.000000   0.000000   0.000000   0.000000
     3  C    0.000000   0.000000   0.000000   0.000000   0.000000   0.000000
     4  O    0.000000   0.000000   0.000000   0.000000   0.000000   0.000000
     5  C    0.000000   0.000000   0.000000   0.000000   0.000000   0.000000
     6  C    0.000000   0.000000   0.000000   0.000000   0.000000   0.000000
     7  O    0.000000   0.000000   0.000000   0.000000   0.000000   0.000000
     8  C    0.000000   0.000000   0.000000   0.000000   0.000000   0.000000
     9  C    0.000000   0.000000   0.000000   0.000000   0.000000   0.000000
    10  C    0.000000   0.000000   0.000000   0.000000   0.000000   0.000000
    11  C    0.000000   0.000000   0.000000   0.000000   0.000000   0.000000
    12  C    0.000000   0.000000   0.000000   0.000000   0.000000   0.000000
    13  C    4.119056   0.000000   0.000000   0.000000   0.000000   0.000000
    14  C    0.000000   4.119567   0.000000   0.000000   0.000000   0.000000
    15  C    0.000000   0.000000   4.130600   0.000000   0.000000   0.000000
    16  C    0.000000   0.000000   0.000000   4.150011   0.000000   0.000000
    17  H    0.000000   0.000000   0.000000   0.000000   0.845250   0.000000
    18  H    0.000000   0.000000   0.000000   0.000000   0.000000   0.844554
    19  H    0.000000   0.000000   0.000000   0.000000   0.000000   0.000000
    20  H    0.000000   0.000000   0.000000   0.000000   0.000000   0.000000
    21  H    0.000000   0.000000   0.000000   0.000000   0.000000   0.000000
    22  H    0.000000   0.000000   0.000000   0.000000   0.000000   0.000000
    23  N    0.000000   0.000000   0.000000   0.000000   0.000000   0.000000
    24  N    0.000000   0.000000   0.000000   0.000000   0.000000   0.000000
    25  H    0.000000   0.000000   0.000000   0.000000   0.000000   0.000000
    26  H    0.000000   0.000000   0.000000   0.000000   0.000000   0.000000
    27  H    0.000000   0.000000   0.000000   0.000000   0.000000   0.000000
    28  H    0.000000   0.000000   0.000000   0.000000   0.000000   0.000000
              19         20         21         22         23         24
     1  C    0.000000   0.000000   0.000000   0.000000   0.000000   0.000000
     2  C    0.000000   0.000000   0.000000   0.000000   0.000000   0.000000
     3  C    0.000000   0.000000   0.000000   0.000000   0.000000   0.000000
     4  O    0.000000   0.000000   0.000000   0.000000   0.000000   0.000000
     5  C    0.000000   0.000000   0.000000   0.000000   0.000000   0.000000
     6  C    0.000000   0.000000   0.000000   0.000000   0.000000   0.000000
     7  O    0.000000   0.000000   0.000000   0.000000   0.000000   0.000000
     8  C    0.000000   0.000000   0.000000   0.000000   0.000000   0.000000
     9  C    0.000000   0.000000   0.000000   0.000000   0.000000   0.000000
    10  C    0.000000   0.000000   0.000000   0.000000   0.000000   0.000000
    11  C    0.000000   0.000000   0.000000   0.000000   0.000000   0.000000
    12  C    0.000000   0.000000   0.000000   0.000000   0.000000   0.000000
    13  C    0.000000   0.000000   0.000000   0.000000   0.000000   0.000000
    14  C    0.000000   0.000000   0.000000   0.000000   0.000000   0.000000
    15  C    0.000000   0.000000   0.000000   0.000000   0.000000   0.000000
    16  C    0.000000   0.000000   0.000000   0.000000   0.000000   0.000000
    17  H    0.000000   0.000000   0.000000   0.000000   0.000000   0.000000
    18  H    0.000000   0.000000   0.000000   0.000000   0.000000   0.000000
    19  H    0.860562   0.000000   0.000000   0.000000   0.000000   0.000000
    20  H    0.000000   0.860777   0.000000   0.000000   0.000000   0.000000
    21  H    0.000000   0.000000   0.861715   0.000000   0.000000   0.000000
    22  H    0.000000   0.000000   0.000000   0.861112   0.000000   0.000000
    23  N    0.000000   0.000000   0.000000   0.000000   5.334027   0.000000
    24  N    0.000000   0.000000   0.000000   0.000000   0.000000   5.348759
    25  H    0.000000   0.000000   0.000000   0.000000   0.000000   0.000000
    26  H    0.000000   0.000000   0.000000   0.000000   0.000000   0.000000
    27  H    0.000000   0.000000   0.000000   0.000000   0.000000   0.000000
    28  H    0.000000   0.000000   0.000000   0.000000   0.000000   0.000000
              25         26         27         28
     1  C    0.000000   0.000000   0.000000   0.000000
     2  C    0.000000   0.000000   0.000000   0.000000
     3  C    0.000000   0.000000   0.000000   0.000000
     4  O    0.000000   0.000000   0.000000   0.000000
     5  C    0.000000   0.000000   0.000000   0.000000
     6  C    0.000000   0.000000   0.000000   0.000000
     7  O    0.000000   0.000000   0.000000   0.000000
     8  C    0.000000   0.000000   0.000000   0.000000
     9  C    0.000000   0.000000   0.000000   0.000000
    10  C    0.000000   0.000000   0.000000   0.000000
    11  C    0.000000   0.000000   0.000000   0.000000
    12  C    0.000000   0.000000   0.000000   0.000000
    13  C    0.000000   0.000000   0.000000   0.000000
    14  C    0.000000   0.000000   0.000000   0.000000
    15  C    0.000000   0.000000   0.000000   0.000000
    16  C    0.000000   0.000000   0.000000   0.000000
    17  H    0.000000   0.000000   0.000000   0.000000
    18  H    0.000000   0.000000   0.000000   0.000000
    19  H    0.000000   0.000000   0.000000   0.000000
    20  H    0.000000   0.000000   0.000000   0.000000
    21  H    0.000000   0.000000   0.000000   0.000000
    22  H    0.000000   0.000000   0.000000   0.000000
    23  N    0.000000   0.000000   0.000000   0.000000
    24  N    0.000000   0.000000   0.000000   0.000000
    25  H    0.764905   0.000000   0.000000   0.000000
    26  H    0.000000   0.799435   0.000000   0.000000
    27  H    0.000000   0.000000   0.810638   0.000000
    28  H    0.000000   0.000000   0.000000   0.781424
 Mulliken charges:
               1
     1  C    0.321267
     2  C   -0.106922
     3  C   -0.145371
     4  O   -0.312357
     5  C    0.316063
     6  C   -0.165261
     7  O   -0.318062
     8  C   -0.105844
     9  C   -0.086664
    10  C    0.107696
    11  C   -0.087543
    12  C    0.075388
    13  C   -0.119056
    14  C   -0.119567
    15  C   -0.130600
    16  C   -0.150011
    17  H    0.154750
    18  H    0.155446
    19  H    0.139438
    20  H    0.139223
    21  H    0.138285
    22  H    0.138888
    23  N   -0.334027
    24  N   -0.348759
    25  H    0.235095
    26  H    0.200565
    27  H    0.189362
    28  H    0.218576
 Sum of Mulliken charges =  -0.00000
 Mulliken charges with hydrogens summed into heavy atoms:
               1
     1  C    0.321267
     2  C   -0.106922
     3  C   -0.145371
     4  O   -0.312357
     5  C    0.316063
     6  C   -0.165261
     7  O   -0.318062
     8  C   -0.105844
     9  C    0.068087
    10  C    0.107696
    11  C    0.067903
    12  C    0.075388
    13  C    0.020382
    14  C    0.019656
    15  C    0.008289
    16  C   -0.011726
    23  N    0.073911
    24  N    0.086901
 Charge=             -0.0000 electrons
 Dipole moment (field-independent basis, Debye):
    X=              1.2249    Y=              0.1405    Z=             -2.4127  Tot=              2.7095
 N-N= 6.673684459268D+02 E-N=-1.207406966417D+03  KE=-6.223060589944D+01
 1\1\GINC-GTX1080DELTA\FOpt\RAM1\ZDO\C14H10N2O2\MVEROT\12-Apr-2022\0\\#
 n AM1 Opt\\Geometry optimization\\0,1\C,0.035593573,1.454456358,0.5017
 936512\C,1.2829163323,0.7224995513,0.2002073158\C,-1.2226294826,0.7380
 209905,0.2004746642\O,0.0730372586,2.597008481,0.9841044352\C,0.020047
 4712,-1.4020541189,0.5324916488\C,-1.2433666794,-0.6796508509,0.289645
 3983\O,0.0824267354,-2.5695085882,0.9534053816\C,1.2710017816,-0.67817
 46373,0.2102621645\C,2.4662851331,1.4115685405,-0.0786071646\C,-2.4588
 815844,-1.3822752078,0.1179077593\C,2.4462435,-1.3853043901,-0.0613470
 172\C,-2.3783801602,1.4597219658,-0.1584629196\C,3.6320843693,0.700392
 5107,-0.3659723643\C,3.6216475078,-0.6939600648,-0.3575842616\C,-3.580
 8710908,0.7253734619,-0.3948114136\C,-3.6200576032,-0.6346687479,-0.25
 84169814\H,2.4665922146,2.5130510662,-0.0625383312\H,2.4325312278,-2.4
 865953885,-0.0304034417\H,4.5616329468,1.243592716,-0.5934399386\H,4.5
 43223774,-1.2532741926,-0.5785403916\H,-4.5701812706,-1.1667094187,-0.
 431271761\H,-4.4954793558,1.2661370989,-0.6893576302\N,-2.3852708696,2
 .8327722572,-0.3955888644\N,-2.6111303527,-2.7372408385,0.3480574611\H
 ,-1.7927475748,-3.2873133912,0.4819687984\H,-3.3612283381,-3.182414599
 9,-0.1251097566\H,-3.2776181549,3.2629266972,-0.2969301892\H,-1.643471
 3083,3.3545527401,0.0180137481\\Version=AM64L-G09RevD.01\State=1-A\HF=
 -0.0149407\RMSD=5.522e-09\RMSF=3.276e-06\Dipole=-0.477807,-0.1138514,-
 0.9460985\PG=C01 [X(C14H10N2O2)]\\@


 IT IS WELL TO REMEMBER THAT MAN IS A PART OF NATURE AND THAT HIS WORKS,
 WHATEVER THEY MAY BE, ARE NO MORE "UNNATURAL" THAN 
 THE FLIGHT OF AN EAGLE OR THE PASSAGE OF A TORNADO.

                                    -- CHARLES MCCARRY IN "THE GREAT SOUTHWEST"
 Job cpu time:       0 days  0 hours  0 minutes 20.4 seconds.
 File lengths (MBytes):  RWF=    132 Int=      0 D2E=      0 Chk=      4 Scr=      2
 Normal termination of Gaussian 09 at Tue Apr 12 01:06:58 2022.
