 Entering Gaussian System, Link 0=g09
 Input=/scratch/mverot/cis-SP/cis-SP.com
 Output=/scratch/mverot/cis-SP/cis-SP.log
 Initial command:
 /opt/g09/l1.exe "/scratch/mverot/cis-SP/Gau-2845136.inp" -scrdir="/scratch/mverot/cis-SP/"
 Entering Link 1 = /opt/g09/l1.exe PID=   2845138.
  
 Copyright (c) 1988,1990,1992,1993,1995,1998,2003,2009,2013,
            Gaussian, Inc.  All Rights Reserved.
  
 This is part of the Gaussian(R) 09 program.  It is based on
 the Gaussian(R) 03 system (copyright 2003, Gaussian, Inc.),
 the Gaussian(R) 98 system (copyright 1998, Gaussian, Inc.),
 the Gaussian(R) 94 system (copyright 1995, Gaussian, Inc.),
 the Gaussian 92(TM) system (copyright 1992, Gaussian, Inc.),
 the Gaussian 90(TM) system (copyright 1990, Gaussian, Inc.),
 the Gaussian 88(TM) system (copyright 1988, Gaussian, Inc.),
 the Gaussian 86(TM) system (copyright 1986, Carnegie Mellon
 University), and the Gaussian 82(TM) system (copyright 1983,
 Carnegie Mellon University). Gaussian is a federally registered
 trademark of Gaussian, Inc.
  
 This software contains proprietary and confidential information,
 including trade secrets, belonging to Gaussian, Inc.
  
 This software is provided under written license and may be
 used, copied, transmitted, or stored only in accord with that
 written license.
  
 The following legend is applicable only to US Government
 contracts under FAR:
  
                    RESTRICTED RIGHTS LEGEND
  
 Use, reproduction and disclosure by the US Government is
 subject to restrictions as set forth in subparagraphs (a)
 and (c) of the Commercial Computer Software - Restricted
 Rights clause in FAR 52.227-19.
  
 Gaussian, Inc.
 340 Quinnipiac St., Bldg. 40, Wallingford CT 06492
  
  
 ---------------------------------------------------------------
 Warning -- This program may not be used in any manner that
 competes with the business of Gaussian, Inc. or will provide
 assistance to any competitor of Gaussian, Inc.  The licensee
 of this program is prohibited from giving any competitor of
 Gaussian, Inc. access to this program.  By using this program,
 the user acknowledges that Gaussian, Inc. is engaged in the
 business of creating and licensing software in the field of
 computational chemistry and represents and warrants to the
 licensee that it is not a competitor of Gaussian, Inc. and that
 it will not use this program in any manner prohibited above.
 ---------------------------------------------------------------
  

 Cite this work as:
 Gaussian 09, Revision D.01,
 M. J. Frisch, G. W. Trucks, H. B. Schlegel, G. E. Scuseria, 
 M. A. Robb, J. R. Cheeseman, G. Scalmani, V. Barone, B. Mennucci, 
 G. A. Petersson, H. Nakatsuji, M. Caricato, X. Li, H. P. Hratchian, 
 A. F. Izmaylov, J. Bloino, G. Zheng, J. L. Sonnenberg, M. Hada, 
 M. Ehara, K. Toyota, R. Fukuda, J. Hasegawa, M. Ishida, T. Nakajima, 
 Y. Honda, O. Kitao, H. Nakai, T. Vreven, J. A. Montgomery, Jr., 
 J. E. Peralta, F. Ogliaro, M. Bearpark, J. J. Heyd, E. Brothers, 
 K. N. Kudin, V. N. Staroverov, T. Keith, R. Kobayashi, J. Normand, 
 K. Raghavachari, A. Rendell, J. C. Burant, S. S. Iyengar, J. Tomasi, 
 M. Cossi, N. Rega, J. M. Millam, M. Klene, J. E. Knox, J. B. Cross, 
 V. Bakken, C. Adamo, J. Jaramillo, R. Gomperts, R. E. Stratmann, 
 O. Yazyev, A. J. Austin, R. Cammi, C. Pomelli, J. W. Ochterski, 
 R. L. Martin, K. Morokuma, V. G. Zakrzewski, G. A. Voth, 
 P. Salvador, J. J. Dannenberg, S. Dapprich, A. D. Daniels, 
 O. Farkas, J. B. Foresman, J. V. Ortiz, J. Cioslowski, 
 and D. J. Fox, Gaussian, Inc., Wallingford CT, 2013.
 
 ******************************************
 Gaussian 09:  AM64L-G09RevD.01 24-Apr-2013
                12-Apr-2022 
 ******************************************
 %chk=cis-SP
 -----------------
 #n AM1 freq=RAMAN
 -----------------
 1/10=4,30=1,38=1/1,3;
 2/12=2,17=6,18=5,40=1/2;
 3/5=2,16=1,25=1,41=700000,71=2,140=1/1,2,3;
 4/35=1/1;
 5/5=2,35=1,38=5,98=1/2;
 8/6=4,10=90,11=11/1;
 10/13=10,15=4/2;
 11/6=3,8=1,9=11,15=111,16=1/1,2,10;
 10/6=1/2;
 6/7=2,8=2,9=2,10=2,18=1,28=1/1;
 7/8=1,10=1,25=1/1,2,3,16;
 1/10=4,30=1/3;
 99//99;
 ----------
 UV-spectra
 ----------
 Symbolic Z-matrix:
 Charge =  0 Multiplicity = 1
 N                    -0.16306   3.74352   3.24412 
 C                     0.88713   4.13046   4.14232 
 C                     1.78205   5.17481   3.83325 
 C                     2.70589   5.60321   4.78264 
 C                     2.75946   5.01155   6.0435 
 C                     1.87997   3.97611   6.35516 
 C                     0.95543   3.52709   5.41758 
 N                     0.16306   3.74352   1.90588 
 C                    -0.88713   4.13046   1.00768 
 C                    -1.78205   5.17481   1.31675 
 C                    -0.95543   3.52709  -0.26758 
 C                    -2.70589   5.60321   0.36736 
 C                    -1.87997   3.97611  -1.20516 
 C                    -2.75946   5.01155  -0.8935 
 H                    -0.54737   2.85238   3.54075 
 H                     1.7542    5.66117   2.84594 
 H                     3.39847   6.42049   4.53057 
 H                     3.49046   5.35849   6.78732 
 H                     1.91652   3.50402   7.34836 
 H                     0.2727    2.70679   5.6865 
 H                     0.54737   2.85238   1.60925 
 H                    -1.7542    5.66117   2.30406 
 H                    -0.2727    2.70679  -0.5365 
 H                    -3.39847   6.42049   0.61943 
 H                    -1.91652   3.50402  -2.19836 
 H                    -3.49046   5.35849  -1.63732 
 

 GradGradGradGradGradGradGradGradGradGradGradGradGradGradGradGradGradGrad
 Berny optimization.
 Initialization pass.
 Trust Radius=3.00D-01 FncErr=1.00D-07 GrdErr=1.00D-07
 Number of steps in this run=      2 maximum allowed number of steps=      2.
 GradGradGradGradGradGradGradGradGradGradGradGradGradGradGradGradGradGrad

                          Input orientation:                          
 ---------------------------------------------------------------------
 Center     Atomic      Atomic             Coordinates (Angstroms)
 Number     Number       Type             X           Y           Z
 ---------------------------------------------------------------------
      1          7           0       -0.163058    3.743523    3.244120
      2          6           0        0.887131    4.130460    4.142321
      3          6           0        1.782050    5.174815    3.833252
      4          6           0        2.705892    5.603211    4.782642
      5          6           0        2.759459    5.011549    6.043498
      6          6           0        1.879973    3.976108    6.355156
      7          6           0        0.955429    3.527086    5.417583
      8          7           0        0.163058    3.743523    1.905880
      9          6           0       -0.887131    4.130460    1.007679
     10          6           0       -1.782050    5.174815    1.316748
     11          6           0       -0.955429    3.527086   -0.267583
     12          6           0       -2.705892    5.603211    0.367358
     13          6           0       -1.879973    3.976108   -1.205156
     14          6           0       -2.759459    5.011549   -0.893498
     15          1           0       -0.547366    2.852379    3.540752
     16          1           0        1.754199    5.661171    2.845942
     17          1           0        3.398475    6.420491    4.530570
     18          1           0        3.490465    5.358487    6.787323
     19          1           0        1.916523    3.504017    7.348356
     20          1           0        0.272699    2.706794    5.686496
     21          1           0        0.547366    2.852379    1.609248
     22          1           0       -1.754199    5.661171    2.304058
     23          1           0       -0.272699    2.706794   -0.536496
     24          1           0       -3.398475    6.420491    0.619430
     25          1           0       -1.916523    3.504017   -2.198356
     26          1           0       -3.490465    5.358487   -1.637323
 ---------------------------------------------------------------------
                    Distance matrix (angstroms):
                    1          2          3          4          5
     1  N    0.000000
     2  C    1.435055   0.000000
     3  C    2.485783   1.409639   0.000000
     4  C    3.749182   2.426294   1.392247   0.000000
     5  C    4.240932   2.810053   2.422224   1.393804   0.000000
     6  C    3.729158   2.430267   2.794010   2.408819   1.393831
     7  C    2.453935   1.412450   2.430723   2.788829   2.418661
     8  N    1.377402   2.382367   2.895599   4.266170   5.046688
     9  C    2.382367   3.601943   4.024807   5.415641   6.279602
    10  C    2.895599   4.024807   4.362980   5.686613   6.556990
    11  C    3.606488   4.817296   5.198620   6.574218   7.472199
    12  C    4.266170   5.415641   5.686613   6.984422   7.901815
    13  C    4.774720   6.022973   6.342938   7.715657   8.668301
    14  C    5.046688   6.279602   6.556990   7.901815   8.864556
    15  H    1.014801   2.013245   3.302338   4.437686   4.675557
    16  H    2.740765   2.185288   1.100954   2.158677   3.414223
    17  H    4.637416   3.420793   2.156569   1.100526   2.163887
    18  H    5.339534   3.909147   3.417448   2.166607   1.099096
    19  H    4.607253   3.425017   3.894304   3.407728   2.164682
    20  H    2.688846   2.188339   3.435663   3.889295   3.409298
    21  H    1.992898   2.857515   3.444466   4.721943   5.405362
    22  H    2.663235   3.563554   3.883301   5.102857   5.897332
    23  H    3.921720   5.026267   5.422898   6.749405   7.602775
    24  H    4.952078   6.001785   6.222395   7.433948   8.326210
    25  H    5.722984   6.961114   7.269890   8.631783   9.595083
    26  H    6.124396   7.353617   7.600022   8.925843   9.908426
                    6          7          8          9         10
     6  C    0.000000
     7  C    1.391203   0.000000
     8  N    4.774720   3.606488   0.000000
     9  C    6.022973   4.817296   1.435055   0.000000
    10  C    6.342938   5.198620   2.485783   1.409639   0.000000
    11  C    7.218158   5.997707   2.453935   1.412450   2.430723
    12  C    7.715657   6.574218   3.749182   2.426294   1.392247
    13  C    8.443668   7.218158   3.729158   2.430267   2.794010
    14  C    8.668301   7.472199   4.240932   2.810053   2.422224
    15  H    3.882732   2.497222   1.992898   2.857515   3.444466
    16  H    3.894849   3.435941   2.663235   3.563554   3.883301
    17  H    3.407341   3.889351   4.952078   6.001785   6.222395
    18  H    2.165969   3.414179   6.124396   7.353617   7.600022
    19  H    1.100296   2.156877   5.722984   6.961114   7.269890
    20  H    2.154435   1.100597   3.921720   5.026267   5.422898
    21  H    5.055913   3.889108   1.014801   2.013245   3.302338
    22  H    5.697196   4.646551   2.740765   2.185288   1.100954
    23  H    7.330759   6.134512   2.688846   2.188339   3.435663
    24  H    8.169185   7.095812   4.637416   3.420793   2.156569
    25  H    9.370103   8.139482   4.607253   3.425017   3.894304
    26  H    9.727913   8.537663   5.339534   3.909147   3.417448
                   11         12         13         14         15
    11  C    0.000000
    12  C    2.788829   0.000000
    13  C    1.391203   2.408819   0.000000
    14  C    2.418661   1.393804   1.393831   0.000000
    15  H    3.889108   4.721943   5.055913   5.405362   0.000000
    16  H    4.646551   5.102857   5.697196   5.897332   3.697198
    17  H    7.095812   7.433948   8.169185   8.326210   5.411175
    18  H    8.537663   8.925843   9.727913   9.908426   5.755421
    19  H    8.139482   8.631783   9.370103   9.595083   4.581837
    20  H    6.134512   6.749405   7.330759   7.602775   2.301721
    21  H    2.497222   4.437686   3.882732   4.675557   2.220168
    22  H    3.435941   2.158677   3.894849   3.414223   3.297752
    23  H    1.100597   3.889295   2.154435   3.409298   4.089082
    24  H    3.889351   1.100526   3.407341   2.163887   5.421657
    25  H    2.156877   3.407728   1.100296   2.164682   5.936041
    26  H    3.414179   2.166607   2.165969   1.099096   6.461800
                   16         17         18         19         20
    16  H    0.000000
    17  H    2.473496   0.000000
    18  H    4.317490   2.495846   0.000000
    19  H    4.995138   4.317629   2.496219   0.000000
    20  H    4.357974   4.989808   4.312460   2.469717   0.000000
    21  H    3.297752   5.421657   6.461800   5.936041   4.089082
    22  H    3.549999   5.664271   6.906358   6.600944   4.927225
    23  H    4.927225   7.276278   8.650503   8.221871   6.246847
    24  H    5.664271   7.841909   9.307429   9.057233   7.276278
    25  H    6.600944   9.057233  10.649742  10.287466   8.221871
    26  H    6.906358   9.307429  10.941116  10.649742   8.650503
                   21         22         23         24         25
    21  H    0.000000
    22  H    3.697198   0.000000
    23  H    2.301721   4.357974   0.000000
    24  H    5.411175   2.473496   4.989808   0.000000
    25  H    4.581837   4.995138   2.469717   4.317629   0.000000
    26  H    5.755421   4.317490   4.312460   2.495846   2.496219
                   26
    26  H    0.000000
 Stoichiometry    C12H12N2
 Framework group  C2[X(C12H12N2)]
 Deg. of freedom    37
 Full point group                 C2      NOp   2
 Largest Abelian subgroup         C2      NOp   2
 Largest concise Abelian subgroup C2      NOp   2
                         Standard orientation:                         
 ---------------------------------------------------------------------
 Center     Atomic      Atomic             Coordinates (Angstroms)
 Number     Number       Type             X           Y           Z
 ---------------------------------------------------------------------
      1          7           0        0.479947    0.493923   -0.690097
      2          6           0        0.030542    1.800712   -0.303160
      3          6           0       -0.897468    1.988328    0.741195
      4          6           0       -1.212024    3.275139    1.169591
      5          6           0       -0.618589    4.388899    0.577929
      6          6           0        0.297435    4.211343   -0.457512
      7          6           0        0.618589    2.934360   -0.906533
      8          7           0       -0.479947   -0.493923   -0.690097
      9          6           0       -0.030542   -1.800712   -0.303160
     10          6           0        0.897468   -1.988328    0.741195
     11          6           0       -0.618589   -2.934360   -0.906533
     12          6           0        1.212024   -3.275139    1.169591
     13          6           0       -0.297435   -4.211343   -0.457512
     14          6           0        0.618589   -4.388899    0.577929
     15          1           0        0.961611    0.554608   -1.581240
     16          1           0       -1.374302    1.123351    1.227552
     17          1           0       -1.936750    3.409235    1.986871
     18          1           0       -0.871238    5.400736    0.924867
     19          1           0        0.769760    5.085810   -0.929603
     20          1           0        1.343368    2.819776   -1.726826
     21          1           0       -0.961611   -0.554608   -1.581240
     22          1           0        1.374302   -1.123351    1.227552
     23          1           0       -1.343368   -2.819776   -1.726826
     24          1           0        1.936750   -3.409235    1.986871
     25          1           0       -0.769760   -5.085810   -0.929603
     26          1           0        0.871238   -5.400736    0.924867
 ---------------------------------------------------------------------
 Rotational constants (GHZ):      2.4040490      0.2829252      0.2783371
 Standard basis: VSTO-6G (5D, 7F)
 There are    34 symmetry adapted cartesian basis functions of A   symmetry.
 There are    34 symmetry adapted cartesian basis functions of B   symmetry.
 There are    34 symmetry adapted basis functions of A   symmetry.
 There are    34 symmetry adapted basis functions of B   symmetry.
    68 basis functions,   408 primitive gaussians,    68 cartesian basis functions
    35 alpha electrons       35 beta electrons
       nuclear repulsion energy       432.8762305376 Hartrees.
 Integral buffers will be    131072 words long.
 Regular integral format.
 Two-electron integral symmetry is turned off.
 Do NDO integrals.
 One-electron integrals computed using PRISM.
 NBasis=    68 RedAO= T EigKep=  7.07D-01  NBF=    34    34
 NBsUse=    68 1.00D-06 EigRej= -1.00D+00 NBFU=    34    34
 Simple Huckel Guess.
 Initial guess orbital symmetries:
       Occupied  (A) (B) (A) (B) (A) (B) (A) (B) (A) (B) (A) (B)
                 (A) (B) (A) (B) (A) (A) (B) (B) (A) (B) (B) (A)
                 (A) (A) (B) (B) (A) (B) (A) (B) (A) (A) (B)
       Virtual   (A) (B) (A) (B) (B) (A) (B) (A) (B) (A) (B) (A)
                 (B) (A) (B) (A) (B) (A) (B) (A) (B) (A) (B) (A)
                 (B) (A) (B) (A) (A) (B) (B) (A) (B)
 The electronic state of the initial guess is 1-A.
 Overlap will be assumed to be unity.
 Keep J ints in memory in canonical form, NReq=921852.
 Requested convergence on RMS density matrix=1.00D-08 within 128 cycles.
 Requested convergence on MAX density matrix=1.00D-06.
 Requested convergence on             energy=1.00D-06.
 No special actions if energy rises.
 Fock symm off for IB=2 I1=    1 I=   35 J=   30 Cut=1.00D-07 Err=7.83D-03
 Fock matrix is not symmetric: symmetry in diagonalization turned off.
 SCF Done:  E(RAM1) =  0.136960376721     A.U. after   15 cycles
            NFock= 14  Conv=0.98D-08     -V/T= 1.0029
 Range of M.O.s used for correlation:     1    68
 NBasis=    68 NAE=    35 NBE=    35 NFC=     0 NFV=     0
 NROrb=     68 NOA=    35 NOB=    35 NVA=    33 NVB=    33
          Differentiating once with respect to electric field.
                with respect to dipole field.
          Electric field/nuclear overlap derivatives assumed to be zero.
 Keep J ints in memory in canonical form, NReq=897494.
          There are     3 degrees of freedom in the 1st order CPHF.  IDoFFX=0 NUNeed=     3.
 LinEq1:  Iter=  0 NonCon=     3 RMS=2.72D-01 Max=4.76D+00 NDo=     3
 AX will form     3 AO Fock derivatives at one time.
 LinEq1:  Iter=  1 NonCon=     3 RMS=5.24D-02 Max=4.64D-01 NDo=     3
 LinEq1:  Iter=  2 NonCon=     3 RMS=7.67D-03 Max=7.29D-02 NDo=     3
 LinEq1:  Iter=  3 NonCon=     3 RMS=1.51D-03 Max=1.72D-02 NDo=     3
 LinEq1:  Iter=  4 NonCon=     3 RMS=2.78D-04 Max=3.44D-03 NDo=     3
 LinEq1:  Iter=  5 NonCon=     3 RMS=5.64D-05 Max=8.77D-04 NDo=     3
 LinEq1:  Iter=  6 NonCon=     3 RMS=1.23D-05 Max=1.78D-04 NDo=     3
 LinEq1:  Iter=  7 NonCon=     3 RMS=1.78D-06 Max=1.65D-05 NDo=     3
 LinEq1:  Iter=  8 NonCon=     3 RMS=2.76D-07 Max=2.38D-06 NDo=     3
 LinEq1:  Iter=  9 NonCon=     3 RMS=3.62D-08 Max=5.38D-07 NDo=     3
 LinEq1:  Iter= 10 NonCon=     0 RMS=4.92D-09 Max=6.82D-08 NDo=     3
 Linear equations converged to 1.000D-08 1.000D-07 after    10 iterations.
 End of Minotr F.D. properties file   721 does not exist.
 End of Minotr F.D. properties file   722 does not exist.
 End of Minotr F.D. properties file   788 does not exist.
 Symmetrizing basis deriv contribution to polar:
 IMax=3 JMax=2 DiffMx= 0.00D+00
 G2DrvN: will do    27 centers at a time, making    1 passes.
 PxScal for G2LodP:  IOpCl= 0 ISclPx=1 IMOff=     1 NMtTot=     4 NTT=    2346 ScalPx= 2.28D+00
 Calling FoFCou, ICntrl=  3107 FMM=F I1Cent=   0 AccDes= 0.00D+00.
 End of G2Drv F.D. properties file   721 does not exist.
 End of G2Drv F.D. properties file   722 does not exist.
 End of G2Drv F.D. properties file   788 does not exist.
          IDoAtm=11111111111111111111111111
          Differentiating once with respect to electric field.
                with respect to dipole field.
          Differentiating once with respect to nuclear coordinates.
          Electric field/nuclear overlap derivatives assumed to be zero.
 Keep J ints in memory in canonical form, NReq=898095.
          There are    42 degrees of freedom in the 1st order CPHF.  IDoFFX=4 NUNeed=    42.
 Recover   3 previous solutions.
 LinEq1:  Iter=  0 NonCon=    39 RMS=9.06D-03 Max=7.34D-02 NDo=    39
 AX will form    39 AO Fock derivatives at one time.
 LinEq1:  Iter=  1 NonCon=    39 RMS=1.78D-03 Max=1.81D-02 NDo=    39
 LinEq1:  Iter=  2 NonCon=    39 RMS=3.64D-04 Max=6.41D-03 NDo=    39
 LinEq1:  Iter=  3 NonCon=    39 RMS=9.82D-05 Max=1.25D-03 NDo=    39
 LinEq1:  Iter=  4 NonCon=    39 RMS=1.85D-05 Max=1.52D-04 NDo=    39
 LinEq1:  Iter=  5 NonCon=    39 RMS=3.11D-06 Max=3.17D-05 NDo=    39
 LinEq1:  Iter=  6 NonCon=    39 RMS=6.43D-07 Max=7.90D-06 NDo=    39
 LinEq1:  Iter=  7 NonCon=    37 RMS=1.33D-07 Max=1.67D-06 NDo=    39
 LinEq1:  Iter=  8 NonCon=    18 RMS=2.23D-08 Max=2.26D-07 NDo=    39
 LinEq1:  Iter=  9 NonCon=     0 RMS=4.12D-09 Max=5.43D-08 NDo=    39
 Linear equations converged to 1.000D-08 1.000D-07 after     9 iterations.
 Isotropic polarizability for W=    0.000000      125.73 Bohr**3.
 End of Minotr F.D. properties file   721 does not exist.
 End of Minotr F.D. properties file   722 does not exist.
 End of Minotr F.D. properties file   788 does not exist.

 **********************************************************************

            Population analysis using the SCF density.

 **********************************************************************

 Orbital symmetries:
       Occupied  (A) (B) (A) (B) (A) (B) (A) (B) (A) (B) (A) (B)
                 (A) (B) (A) (B) (A) (B) (A) (A) (B) (A) (B) (B)
                 (A) (B) (A) (B) (A) (B) (A) (B) (A) (B) (A)
       Virtual   (B) (A) (B) (A) (B) (B) (A) (A) (B) (A) (B) (A)
                 (A) (B) (B) (A) (B) (A) (B) (A) (B) (A) (B) (A)
                 (B) (A) (B) (A) (B) (A) (B) (A) (B)
 The electronic state is 1-A.
 Alpha  occ. eigenvalues --   -1.47366  -1.44007  -1.36802  -1.21340  -1.15617
 Alpha  occ. eigenvalues --   -1.15356  -1.10433  -1.00656  -0.86241  -0.85255
 Alpha  occ. eigenvalues --   -0.83800  -0.80462  -0.67520  -0.66474  -0.66386
 Alpha  occ. eigenvalues --   -0.61667  -0.61287  -0.56600  -0.55071  -0.54559
 Alpha  occ. eigenvalues --   -0.54455  -0.51993  -0.51940  -0.50370  -0.49603
 Alpha  occ. eigenvalues --   -0.45692  -0.45656  -0.43924  -0.43385  -0.41643
 Alpha  occ. eigenvalues --   -0.41172  -0.35648  -0.35641  -0.32703  -0.32351
 Alpha virt. eigenvalues --    0.01181   0.01922   0.02084   0.02245   0.07346
 Alpha virt. eigenvalues --    0.10726   0.10826   0.12160   0.14385   0.14635
 Alpha virt. eigenvalues --    0.14689   0.14699   0.15371   0.15382   0.16246
 Alpha virt. eigenvalues --    0.16379   0.16820   0.16944   0.17337   0.17405
 Alpha virt. eigenvalues --    0.18602   0.18972   0.19510   0.19834   0.20161
 Alpha virt. eigenvalues --    0.20452   0.20778   0.20890   0.21118   0.21262
 Alpha virt. eigenvalues --    0.22682   0.22853   0.24996
          Condensed to atoms (all electrons):
               1          2          3          4          5          6
     1  N    5.176752   0.000000   0.000000   0.000000   0.000000   0.000000
     2  C    0.000000   3.975851   0.000000   0.000000   0.000000   0.000000
     3  C    0.000000   0.000000   4.128801   0.000000   0.000000   0.000000
     4  C    0.000000   0.000000   0.000000   4.115333   0.000000   0.000000
     5  C    0.000000   0.000000   0.000000   0.000000   4.150520   0.000000
     6  C    0.000000   0.000000   0.000000   0.000000   0.000000   4.110119
     7  C    0.000000   0.000000   0.000000   0.000000   0.000000   0.000000
     8  N    0.000000   0.000000   0.000000   0.000000   0.000000   0.000000
     9  C    0.000000   0.000000   0.000000   0.000000   0.000000   0.000000
    10  C    0.000000   0.000000   0.000000   0.000000   0.000000   0.000000
    11  C    0.000000   0.000000   0.000000   0.000000   0.000000   0.000000
    12  C    0.000000   0.000000   0.000000   0.000000   0.000000   0.000000
    13  C    0.000000   0.000000   0.000000   0.000000   0.000000   0.000000
    14  C    0.000000   0.000000   0.000000   0.000000   0.000000   0.000000
    15  H    0.000000   0.000000   0.000000   0.000000   0.000000   0.000000
    16  H    0.000000   0.000000   0.000000   0.000000   0.000000   0.000000
    17  H    0.000000   0.000000   0.000000   0.000000   0.000000   0.000000
    18  H    0.000000   0.000000   0.000000   0.000000   0.000000   0.000000
    19  H    0.000000   0.000000   0.000000   0.000000   0.000000   0.000000
    20  H    0.000000   0.000000   0.000000   0.000000   0.000000   0.000000
    21  H    0.000000   0.000000   0.000000   0.000000   0.000000   0.000000
    22  H    0.000000   0.000000   0.000000   0.000000   0.000000   0.000000
    23  H    0.000000   0.000000   0.000000   0.000000   0.000000   0.000000
    24  H    0.000000   0.000000   0.000000   0.000000   0.000000   0.000000
    25  H    0.000000   0.000000   0.000000   0.000000   0.000000   0.000000
    26  H    0.000000   0.000000   0.000000   0.000000   0.000000   0.000000
               7          8          9         10         11         12
     1  N    0.000000   0.000000   0.000000   0.000000   0.000000   0.000000
     2  C    0.000000   0.000000   0.000000   0.000000   0.000000   0.000000
     3  C    0.000000   0.000000   0.000000   0.000000   0.000000   0.000000
     4  C    0.000000   0.000000   0.000000   0.000000   0.000000   0.000000
     5  C    0.000000   0.000000   0.000000   0.000000   0.000000   0.000000
     6  C    0.000000   0.000000   0.000000   0.000000   0.000000   0.000000
     7  C    4.174009   0.000000   0.000000   0.000000   0.000000   0.000000
     8  N    0.000000   5.176752   0.000000   0.000000   0.000000   0.000000
     9  C    0.000000   0.000000   3.975851   0.000000   0.000000   0.000000
    10  C    0.000000   0.000000   0.000000   4.128801   0.000000   0.000000
    11  C    0.000000   0.000000   0.000000   0.000000   4.174009   0.000000
    12  C    0.000000   0.000000   0.000000   0.000000   0.000000   4.115333
    13  C    0.000000   0.000000   0.000000   0.000000   0.000000   0.000000
    14  C    0.000000   0.000000   0.000000   0.000000   0.000000   0.000000
    15  H    0.000000   0.000000   0.000000   0.000000   0.000000   0.000000
    16  H    0.000000   0.000000   0.000000   0.000000   0.000000   0.000000
    17  H    0.000000   0.000000   0.000000   0.000000   0.000000   0.000000
    18  H    0.000000   0.000000   0.000000   0.000000   0.000000   0.000000
    19  H    0.000000   0.000000   0.000000   0.000000   0.000000   0.000000
    20  H    0.000000   0.000000   0.000000   0.000000   0.000000   0.000000
    21  H    0.000000   0.000000   0.000000   0.000000   0.000000   0.000000
    22  H    0.000000   0.000000   0.000000   0.000000   0.000000   0.000000
    23  H    0.000000   0.000000   0.000000   0.000000   0.000000   0.000000
    24  H    0.000000   0.000000   0.000000   0.000000   0.000000   0.000000
    25  H    0.000000   0.000000   0.000000   0.000000   0.000000   0.000000
    26  H    0.000000   0.000000   0.000000   0.000000   0.000000   0.000000
              13         14         15         16         17         18
     1  N    0.000000   0.000000   0.000000   0.000000   0.000000   0.000000
     2  C    0.000000   0.000000   0.000000   0.000000   0.000000   0.000000
     3  C    0.000000   0.000000   0.000000   0.000000   0.000000   0.000000
     4  C    0.000000   0.000000   0.000000   0.000000   0.000000   0.000000
     5  C    0.000000   0.000000   0.000000   0.000000   0.000000   0.000000
     6  C    0.000000   0.000000   0.000000   0.000000   0.000000   0.000000
     7  C    0.000000   0.000000   0.000000   0.000000   0.000000   0.000000
     8  N    0.000000   0.000000   0.000000   0.000000   0.000000   0.000000
     9  C    0.000000   0.000000   0.000000   0.000000   0.000000   0.000000
    10  C    0.000000   0.000000   0.000000   0.000000   0.000000   0.000000
    11  C    0.000000   0.000000   0.000000   0.000000   0.000000   0.000000
    12  C    0.000000   0.000000   0.000000   0.000000   0.000000   0.000000
    13  C    4.110119   0.000000   0.000000   0.000000   0.000000   0.000000
    14  C    0.000000   4.150520   0.000000   0.000000   0.000000   0.000000
    15  H    0.000000   0.000000   0.846372   0.000000   0.000000   0.000000
    16  H    0.000000   0.000000   0.000000   0.846448   0.000000   0.000000
    17  H    0.000000   0.000000   0.000000   0.000000   0.867621   0.000000
    18  H    0.000000   0.000000   0.000000   0.000000   0.000000   0.868094
    19  H    0.000000   0.000000   0.000000   0.000000   0.000000   0.000000
    20  H    0.000000   0.000000   0.000000   0.000000   0.000000   0.000000
    21  H    0.000000   0.000000   0.000000   0.000000   0.000000   0.000000
    22  H    0.000000   0.000000   0.000000   0.000000   0.000000   0.000000
    23  H    0.000000   0.000000   0.000000   0.000000   0.000000   0.000000
    24  H    0.000000   0.000000   0.000000   0.000000   0.000000   0.000000
    25  H    0.000000   0.000000   0.000000   0.000000   0.000000   0.000000
    26  H    0.000000   0.000000   0.000000   0.000000   0.000000   0.000000
              19         20         21         22         23         24
     1  N    0.000000   0.000000   0.000000   0.000000   0.000000   0.000000
     2  C    0.000000   0.000000   0.000000   0.000000   0.000000   0.000000
     3  C    0.000000   0.000000   0.000000   0.000000   0.000000   0.000000
     4  C    0.000000   0.000000   0.000000   0.000000   0.000000   0.000000
     5  C    0.000000   0.000000   0.000000   0.000000   0.000000   0.000000
     6  C    0.000000   0.000000   0.000000   0.000000   0.000000   0.000000
     7  C    0.000000   0.000000   0.000000   0.000000   0.000000   0.000000
     8  N    0.000000   0.000000   0.000000   0.000000   0.000000   0.000000
     9  C    0.000000   0.000000   0.000000   0.000000   0.000000   0.000000
    10  C    0.000000   0.000000   0.000000   0.000000   0.000000   0.000000
    11  C    0.000000   0.000000   0.000000   0.000000   0.000000   0.000000
    12  C    0.000000   0.000000   0.000000   0.000000   0.000000   0.000000
    13  C    0.000000   0.000000   0.000000   0.000000   0.000000   0.000000
    14  C    0.000000   0.000000   0.000000   0.000000   0.000000   0.000000
    15  H    0.000000   0.000000   0.000000   0.000000   0.000000   0.000000
    16  H    0.000000   0.000000   0.000000   0.000000   0.000000   0.000000
    17  H    0.000000   0.000000   0.000000   0.000000   0.000000   0.000000
    18  H    0.000000   0.000000   0.000000   0.000000   0.000000   0.000000
    19  H    0.869219   0.000000   0.000000   0.000000   0.000000   0.000000
    20  H    0.000000   0.870861   0.000000   0.000000   0.000000   0.000000
    21  H    0.000000   0.000000   0.846372   0.000000   0.000000   0.000000
    22  H    0.000000   0.000000   0.000000   0.846448   0.000000   0.000000
    23  H    0.000000   0.000000   0.000000   0.000000   0.870861   0.000000
    24  H    0.000000   0.000000   0.000000   0.000000   0.000000   0.867621
    25  H    0.000000   0.000000   0.000000   0.000000   0.000000   0.000000
    26  H    0.000000   0.000000   0.000000   0.000000   0.000000   0.000000
              25         26
     1  N    0.000000   0.000000
     2  C    0.000000   0.000000
     3  C    0.000000   0.000000
     4  C    0.000000   0.000000
     5  C    0.000000   0.000000
     6  C    0.000000   0.000000
     7  C    0.000000   0.000000
     8  N    0.000000   0.000000
     9  C    0.000000   0.000000
    10  C    0.000000   0.000000
    11  C    0.000000   0.000000
    12  C    0.000000   0.000000
    13  C    0.000000   0.000000
    14  C    0.000000   0.000000
    15  H    0.000000   0.000000
    16  H    0.000000   0.000000
    17  H    0.000000   0.000000
    18  H    0.000000   0.000000
    19  H    0.000000   0.000000
    20  H    0.000000   0.000000
    21  H    0.000000   0.000000
    22  H    0.000000   0.000000
    23  H    0.000000   0.000000
    24  H    0.000000   0.000000
    25  H    0.869219   0.000000
    26  H    0.000000   0.868094
 Mulliken charges:
               1
     1  N   -0.176752
     2  C    0.024149
     3  C   -0.128801
     4  C   -0.115333
     5  C   -0.150520
     6  C   -0.110119
     7  C   -0.174009
     8  N   -0.176752
     9  C    0.024149
    10  C   -0.128801
    11  C   -0.174009
    12  C   -0.115333
    13  C   -0.110119
    14  C   -0.150520
    15  H    0.153628
    16  H    0.153552
    17  H    0.132379
    18  H    0.131906
    19  H    0.130781
    20  H    0.129139
    21  H    0.153628
    22  H    0.153552
    23  H    0.129139
    24  H    0.132379
    25  H    0.130781
    26  H    0.131906
 Sum of Mulliken charges =  -0.00000
 Mulliken charges with hydrogens summed into heavy atoms:
               1
     1  N   -0.023124
     2  C    0.024149
     3  C    0.024751
     4  C    0.017046
     5  C   -0.018614
     6  C    0.020662
     7  C   -0.044870
     8  N   -0.023124
     9  C    0.024149
    10  C    0.024751
    11  C   -0.044870
    12  C    0.017046
    13  C    0.020662
    14  C   -0.018614
 APT charges:
               1
     1  N   -0.352164
     2  C    0.361283
     3  C   -0.218059
     4  C   -0.015420
     5  C   -0.224000
     6  C   -0.055666
     7  C   -0.226739
     8  N   -0.352164
     9  C    0.361283
    10  C   -0.218059
    11  C   -0.226739
    12  C   -0.015420
    13  C   -0.055666
    14  C   -0.224000
    15  H    0.091868
    16  H    0.146487
    17  H    0.120455
    18  H    0.133782
    19  H    0.121139
    20  H    0.117028
    21  H    0.091868
    22  H    0.146487
    23  H    0.117028
    24  H    0.120455
    25  H    0.121139
    26  H    0.133782
 Sum of APT charges =  -0.00001
 APT charges with hydrogens summed into heavy atoms:
               1
     1  N   -0.260296
     2  C    0.361283
     3  C   -0.071571
     4  C    0.105036
     5  C   -0.090218
     6  C    0.065474
     7  C   -0.109711
     8  N   -0.260296
     9  C    0.361283
    10  C   -0.071571
    11  C   -0.109711
    12  C    0.105036
    13  C    0.065474
    14  C   -0.090218
 Charge=              0.0000 electrons
 Dipole moment (field-independent basis, Debye):
    X=              0.0000    Y=             -0.0000    Z=             -1.6955  Tot=              1.6955
 N-N= 4.328762305376D+02 E-N=-7.687044786187D+02  KE=-4.731251485700D+01
 Symmetry A    KE=-2.452592650532D+01
 Symmetry B    KE=-2.278658835168D+01
  Exact polarizability:  78.244  -3.899 206.628   0.000  -0.000  92.329
 Approx polarizability:  66.609   0.275 143.802   0.000  -0.000  78.187
 Calling FoFJK, ICntrl=    100127 FMM=F ISym2X=1 I1Cent= 0 IOpClX= 0 NMat=1 NMatS=1 NMatT=0.
 Full mass-weighted force constant matrix:
 Low frequencies ---   -1.1262   -0.6419   -0.5533    0.1090    0.2421    0.5137
 Low frequencies ---   19.8941   31.7408   41.6612
 Diagonal vibrational polarizability:
       23.7223104      26.8891966      14.7535995
 Diagonal vibrational hyperpolarizability:
        0.0000000      -0.0000000    2424.5522906
 Harmonic frequencies (cm**-1), IR intensities (KM/Mole), Raman scattering
 activities (A**4/AMU), depolarization ratios for plane and unpolarized
 incident light, reduced masses (AMU), force constants (mDyne/A),
 and normal coordinates:
                      1                      2                      3
                      A                      A                      B
 Frequencies --     19.8941                31.7408                41.6612
 Red. masses --      4.7636                 3.7184                 4.2064
 Frc consts  --      0.0011                 0.0022                 0.0043
 IR Inten    --      0.1074                 0.0761                 0.7791
 Raman Activ --     10.7883                24.1730                 9.0342
 Depolar (P) --      0.7453                 0.7499                 0.7500
 Depolar (U) --      0.8541                 0.8571                 0.8571
  Atom  AN      X      Y      Z        X      Y      Z        X      Y      Z
     1   7     0.01  -0.01   0.21    -0.01   0.01  -0.06    -0.18  -0.03  -0.07
     2   6    -0.00   0.03   0.08    -0.01  -0.00  -0.02    -0.09  -0.01  -0.04
     3   6    -0.07   0.11   0.01    -0.13  -0.02  -0.13    -0.11   0.05  -0.07
     4   6    -0.09   0.15  -0.11    -0.13  -0.03  -0.09     0.01   0.06  -0.03
     5   6    -0.05   0.10  -0.16    -0.01  -0.03   0.05     0.16   0.02   0.04
     6   6     0.02   0.01  -0.08     0.11  -0.01   0.15     0.17  -0.03   0.06
     7   6     0.05  -0.02   0.04     0.11   0.01   0.11     0.05  -0.05   0.03
     8   7    -0.01   0.01   0.21     0.01  -0.01  -0.06    -0.18  -0.03   0.07
     9   6     0.00  -0.03   0.08     0.01   0.00  -0.02    -0.09  -0.01   0.04
    10   6     0.07  -0.11   0.01     0.13   0.02  -0.13    -0.11   0.05   0.07
    11   6    -0.05   0.02   0.04    -0.11  -0.01   0.11     0.05  -0.05  -0.03
    12   6     0.09  -0.15  -0.11     0.13   0.03  -0.09     0.01   0.06   0.03
    13   6    -0.02  -0.01  -0.08    -0.11   0.01   0.15     0.17  -0.03  -0.06
    14   6     0.05  -0.10  -0.16     0.01   0.03   0.05     0.16   0.02  -0.04
    15   1     0.07  -0.07   0.24    -0.02   0.03  -0.06    -0.27  -0.06  -0.13
    16   1    -0.11   0.15   0.04    -0.22  -0.03  -0.23    -0.22   0.08  -0.11
    17   1    -0.15   0.22  -0.17    -0.22  -0.05  -0.17    -0.00   0.11  -0.05
    18   1    -0.06   0.13  -0.26    -0.01  -0.03   0.07     0.26   0.04   0.08
    19   1     0.06  -0.03  -0.12     0.21   0.00   0.25     0.28  -0.07   0.12
    20   1     0.10  -0.09   0.10     0.20   0.02   0.19     0.07  -0.09   0.05
    21   1    -0.07   0.07   0.24     0.02  -0.03  -0.06    -0.27  -0.06   0.13
    22   1     0.11  -0.15   0.04     0.22   0.03  -0.23    -0.22   0.08   0.11
    23   1    -0.10   0.09   0.10    -0.20  -0.02   0.19     0.07  -0.09  -0.05
    24   1     0.15  -0.22  -0.17     0.22   0.05  -0.17    -0.00   0.11   0.05
    25   1    -0.06   0.03  -0.12    -0.21  -0.00   0.25     0.28  -0.07  -0.12
    26   1     0.06  -0.13  -0.26     0.01   0.03   0.07     0.26   0.04  -0.08
                      4                      5                      6
                      A                      B                      B
 Frequencies --    157.8464               181.7455               204.9693
 Red. masses --      4.2498                 3.1071                 3.5722
 Frc consts  --      0.0624                 0.0605                 0.0884
 IR Inten    --      0.0165                11.4200                 0.8010
 Raman Activ --     10.0044                 0.0751                 3.1780
 Depolar (P) --      0.6586                 0.7500                 0.7500
 Depolar (U) --      0.7942                 0.8571                 0.8571
  Atom  AN      X      Y      Z        X      Y      Z        X      Y      Z
     1   7     0.05  -0.05  -0.04     0.01  -0.03   0.20    -0.11  -0.02  -0.04
     2   6     0.15  -0.04   0.06    -0.05  -0.03   0.09     0.03  -0.02   0.11
     3   6     0.15  -0.09   0.07    -0.05   0.05   0.07     0.08   0.02   0.15
     4   6    -0.01  -0.09  -0.03     0.02   0.08   0.03     0.00   0.05   0.01
     5   6    -0.14  -0.07  -0.11     0.07   0.04  -0.01    -0.09   0.03  -0.12
     6   6    -0.02  -0.04  -0.01     0.02  -0.04  -0.04     0.02  -0.02  -0.01
     7   6     0.14  -0.03   0.08    -0.04  -0.07   0.01     0.10  -0.05   0.13
     8   7    -0.05   0.05  -0.04     0.01  -0.03  -0.20    -0.11  -0.02   0.04
     9   6    -0.15   0.04   0.06    -0.05  -0.03  -0.09     0.03  -0.02  -0.11
    10   6    -0.15   0.09   0.07    -0.05   0.05  -0.07     0.08   0.02  -0.15
    11   6    -0.14   0.03   0.08    -0.04  -0.07  -0.01     0.10  -0.05  -0.13
    12   6     0.01   0.09  -0.03     0.02   0.08  -0.03     0.00   0.05  -0.01
    13   6     0.02   0.04  -0.01     0.02  -0.04   0.04     0.02  -0.02   0.01
    14   6     0.14   0.07  -0.11     0.07   0.04   0.01    -0.09   0.03   0.12
    15   1     0.00  -0.04  -0.06     0.38  -0.03   0.41    -0.23   0.02  -0.10
    16   1     0.24  -0.11   0.12    -0.09   0.08   0.08     0.15   0.04   0.25
    17   1    -0.05  -0.12  -0.07     0.04   0.15   0.04    -0.01   0.09  -0.00
    18   1    -0.31  -0.07  -0.24     0.13   0.06  -0.03    -0.23   0.06  -0.29
    19   1    -0.06  -0.02  -0.02     0.03  -0.08  -0.10     0.03  -0.05  -0.05
    20   1     0.23  -0.01   0.16    -0.07  -0.13  -0.01     0.19  -0.09   0.21
    21   1    -0.00   0.04  -0.06     0.38  -0.03  -0.41    -0.23   0.02   0.10
    22   1    -0.24   0.11   0.12    -0.09   0.08  -0.08     0.15   0.04  -0.25
    23   1    -0.23   0.01   0.16    -0.07  -0.13   0.01     0.19  -0.09  -0.21
    24   1     0.05   0.12  -0.07     0.04   0.15  -0.04    -0.01   0.09   0.00
    25   1     0.06   0.02  -0.02     0.03  -0.08   0.10     0.03  -0.05   0.05
    26   1     0.31   0.07  -0.24     0.13   0.06   0.03    -0.23   0.06   0.29
                      7                      8                      9
                      A                      B                      A
 Frequencies --    295.9006               370.3314               370.8631
 Red. masses --      4.8813                 2.3416                 2.3629
 Frc consts  --      0.2518                 0.1892                 0.1915
 IR Inten    --      0.0256                 0.4505                 0.1341
 Raman Activ --      5.6244                 0.1099                 0.0540
 Depolar (P) --      0.4684                 0.7500                 0.5831
 Depolar (U) --      0.6380                 0.8571                 0.7367
  Atom  AN      X      Y      Z        X      Y      Z        X      Y      Z
     1   7    -0.06   0.07  -0.16    -0.01  -0.00  -0.00    -0.01   0.01  -0.02
     2   6    -0.01   0.08  -0.02     0.00   0.00  -0.01    -0.01  -0.00   0.01
     3   6     0.07   0.12   0.04    -0.09   0.00  -0.09     0.08  -0.00   0.10
     4   6     0.03   0.13   0.03     0.09  -0.01   0.08    -0.09   0.01  -0.08
     5   6    -0.09   0.16  -0.01    -0.00  -0.00   0.00    -0.00   0.00  -0.01
     6   6    -0.02   0.15   0.05    -0.09   0.01  -0.08     0.10  -0.01   0.08
     7   6     0.04   0.14   0.09     0.10   0.00   0.08    -0.09  -0.01  -0.07
     8   7     0.06  -0.07  -0.16    -0.01  -0.00   0.00     0.01  -0.01  -0.02
     9   6     0.01  -0.08  -0.02     0.00   0.00   0.01     0.01   0.00   0.01
    10   6    -0.07  -0.12   0.04    -0.09   0.00   0.09    -0.08   0.00   0.10
    11   6    -0.04  -0.14   0.09     0.10   0.00  -0.08     0.09   0.01  -0.07
    12   6    -0.03  -0.13   0.03     0.09  -0.01  -0.08     0.09  -0.01  -0.08
    13   6     0.02  -0.15   0.05    -0.09   0.01   0.08    -0.10   0.01   0.08
    14   6     0.09  -0.16  -0.01    -0.00  -0.00  -0.00     0.00  -0.00  -0.01
    15   1    -0.17   0.18  -0.21     0.01  -0.01   0.01    -0.03   0.03  -0.03
    16   1     0.12   0.12   0.08    -0.24   0.01  -0.22     0.24  -0.01   0.24
    17   1     0.07   0.09   0.07     0.25  -0.02   0.22    -0.24   0.04  -0.21
    18   1    -0.21   0.16  -0.10    -0.01  -0.00  -0.00    -0.00   0.01  -0.02
    19   1    -0.00   0.14   0.06    -0.24   0.02  -0.21     0.26  -0.03   0.21
    20   1     0.12   0.18   0.16     0.26  -0.00   0.22    -0.25  -0.01  -0.21
    21   1     0.17  -0.18  -0.21     0.01  -0.01  -0.01     0.03  -0.03  -0.03
    22   1    -0.12  -0.12   0.08    -0.24   0.01   0.22    -0.24   0.01   0.24
    23   1    -0.12  -0.18   0.16     0.26  -0.00  -0.22     0.25   0.01  -0.21
    24   1    -0.07  -0.09   0.07     0.25  -0.02  -0.22     0.24  -0.04  -0.21
    25   1     0.00  -0.14   0.06    -0.24   0.02   0.21    -0.26   0.03   0.21
    26   1     0.21  -0.16  -0.10    -0.01  -0.00   0.00     0.00  -0.01  -0.02
                     10                     11                     12
                      A                      B                      A
 Frequencies --    374.6551               461.6734               486.6870
 Red. masses --      4.1538                 2.5878                 2.5949
 Frc consts  --      0.3435                 0.3250                 0.3621
 IR Inten    --      0.0701                47.5094                 2.3129
 Raman Activ --      2.6146                 0.0737                 1.4329
 Depolar (P) --      0.4305                 0.7500                 0.3333
 Depolar (U) --      0.6019                 0.8571                 0.5000
  Atom  AN      X      Y      Z        X      Y      Z        X      Y      Z
     1   7     0.08  -0.04   0.14     0.09   0.01  -0.07     0.02  -0.02  -0.07
     2   6     0.14   0.07  -0.08     0.06  -0.04   0.14     0.11  -0.03   0.12
     3   6     0.10   0.02  -0.11    -0.05   0.01   0.03     0.01   0.01   0.02
     4   6    -0.02  -0.04  -0.05    -0.06   0.04  -0.04    -0.07   0.03  -0.07
     5   6    -0.02   0.03   0.09     0.08   0.02   0.05     0.09   0.03   0.08
     6   6    -0.04   0.11   0.05    -0.05  -0.02  -0.06    -0.08   0.01  -0.06
     7   6     0.01   0.15  -0.07    -0.03  -0.04   0.04    -0.01  -0.01   0.04
     8   7    -0.08   0.04   0.14     0.09   0.01   0.07    -0.02   0.02  -0.07
     9   6    -0.14  -0.07  -0.08     0.06  -0.04  -0.14    -0.11   0.03   0.12
    10   6    -0.10  -0.02  -0.11    -0.05   0.01  -0.03    -0.01  -0.01   0.02
    11   6    -0.01  -0.15  -0.07    -0.03  -0.04  -0.04     0.01   0.01   0.04
    12   6     0.02   0.04  -0.05    -0.06   0.04   0.04     0.07  -0.03  -0.07
    13   6     0.04  -0.11   0.05    -0.05  -0.02   0.06     0.08  -0.01  -0.06
    14   6     0.02  -0.03   0.09     0.08   0.02  -0.05    -0.09  -0.03   0.08
    15   1     0.19  -0.21   0.20    -0.27   0.17  -0.27    -0.15   0.09  -0.16
    16   1     0.14  -0.02  -0.13    -0.16   0.04  -0.02    -0.10   0.03  -0.04
    17   1    -0.09  -0.15  -0.09    -0.18   0.09  -0.16    -0.26   0.05  -0.24
    18   1    -0.01  -0.01   0.20     0.22   0.03   0.14     0.24   0.03   0.21
    19   1    -0.09   0.17   0.10    -0.17  -0.04  -0.22    -0.25   0.00  -0.25
    20   1    -0.04   0.25  -0.13    -0.10  -0.06  -0.02    -0.09   0.00  -0.03
    21   1    -0.19   0.21   0.20    -0.27   0.17   0.27     0.15  -0.09  -0.16
    22   1    -0.14   0.02  -0.13    -0.16   0.04   0.02     0.10  -0.03  -0.04
    23   1     0.04  -0.25  -0.13    -0.10  -0.06   0.02     0.09  -0.00  -0.03
    24   1     0.09   0.15  -0.09    -0.18   0.09   0.16     0.26  -0.05  -0.24
    25   1     0.09  -0.17   0.10    -0.17  -0.04   0.22     0.25  -0.00  -0.25
    26   1     0.01   0.01   0.20     0.22   0.03  -0.14    -0.24  -0.03   0.21
                     13                     14                     15
                      B                      B                      A
 Frequencies --    539.0381               576.7820               626.0418
 Red. masses --      2.8874                 7.1466                 2.4056
 Frc consts  --      0.4943                 1.4008                 0.5555
 IR Inten    --     22.5538                 0.0349                 3.8764
 Raman Activ --      0.0622                 4.7132                 2.5677
 Depolar (P) --      0.7500                 0.7500                 0.6701
 Depolar (U) --      0.8571                 0.8571                 0.8025
  Atom  AN      X      Y      Z        X      Y      Z        X      Y      Z
     1   7     0.16   0.02  -0.04    -0.03   0.26   0.01     0.07  -0.05  -0.02
     2   6    -0.09  -0.03  -0.01    -0.06   0.17   0.09     0.10  -0.06   0.08
     3   6    -0.08  -0.00   0.00    -0.11  -0.10   0.10    -0.04   0.01  -0.06
     4   6     0.06   0.03   0.06    -0.06  -0.10   0.06     0.07   0.02   0.03
     5   6    -0.06   0.03  -0.08     0.07  -0.24  -0.09    -0.06   0.06  -0.03
     6   6     0.07  -0.03   0.05     0.10  -0.02  -0.11     0.03  -0.01   0.07
     7   6    -0.08  -0.04   0.01     0.08   0.01  -0.09    -0.09  -0.02  -0.01
     8   7     0.16   0.02   0.04    -0.03   0.26  -0.01    -0.07   0.05  -0.02
     9   6    -0.09  -0.03   0.01    -0.06   0.17  -0.09    -0.10   0.06   0.08
    10   6    -0.08  -0.00  -0.00    -0.11  -0.10  -0.10     0.04  -0.01  -0.06
    11   6    -0.08  -0.04  -0.01     0.08   0.01   0.09     0.09   0.02  -0.01
    12   6     0.06   0.03  -0.06    -0.06  -0.10  -0.06    -0.07  -0.02   0.03
    13   6     0.07  -0.03  -0.05     0.10  -0.02   0.11    -0.03   0.01   0.07
    14   6    -0.06   0.03   0.08     0.07  -0.24   0.09     0.06  -0.06  -0.03
    15   1    -0.16   0.17  -0.22     0.01   0.29   0.03    -0.08   0.01  -0.10
    16   1    -0.11   0.03   0.02    -0.04  -0.18   0.02    -0.30   0.05  -0.23
    17   1     0.24   0.06   0.22    -0.03   0.08   0.04     0.12  -0.01   0.08
    18   1    -0.17   0.05  -0.22     0.07  -0.23  -0.09    -0.23   0.07  -0.18
    19   1     0.27  -0.07   0.17     0.02   0.06  -0.04     0.12  -0.05   0.08
    20   1    -0.08  -0.06   0.01     0.07  -0.15  -0.07    -0.31   0.02  -0.21
    21   1    -0.16   0.17   0.22     0.01   0.29  -0.03     0.08  -0.01  -0.10
    22   1    -0.11   0.03  -0.02    -0.04  -0.18  -0.02     0.30  -0.05  -0.23
    23   1    -0.08  -0.06  -0.01     0.07  -0.15   0.07     0.31  -0.02  -0.21
    24   1     0.24   0.06  -0.22    -0.03   0.08  -0.04    -0.12   0.01   0.08
    25   1     0.27  -0.07  -0.17     0.02   0.06   0.04    -0.12   0.05   0.08
    26   1    -0.17   0.05   0.22     0.07  -0.23   0.09     0.23  -0.07  -0.18
                     16                     17                     18
                      A                      B                      B
 Frequencies --    655.5391               657.3284               660.2541
 Red. masses --      6.6559                 5.3695                 2.1361
 Frc consts  --      1.6852                 1.3669                 0.5486
 IR Inten    --      0.0168                 2.8709                14.3473
 Raman Activ --      9.7712                 3.5950                 4.0469
 Depolar (P) --      0.7426                 0.7500                 0.7500
 Depolar (U) --      0.8523                 0.8571                 0.8571
  Atom  AN      X      Y      Z        X      Y      Z        X      Y      Z
     1   7    -0.01   0.03   0.04     0.00   0.01  -0.01    -0.06  -0.01   0.01
     2   6    -0.05   0.01   0.07     0.11   0.03   0.01     0.12  -0.01   0.11
     3   6    -0.07  -0.22   0.06     0.03   0.18  -0.06    -0.03  -0.04  -0.03
     4   6     0.14  -0.12  -0.16    -0.11   0.08   0.18     0.07  -0.03  -0.00
     5   6     0.07  -0.01  -0.08    -0.07  -0.04   0.04    -0.02   0.00  -0.03
     6   6     0.09   0.25  -0.08    -0.03  -0.20   0.07     0.05   0.05   0.03
     7   6    -0.11   0.12   0.13     0.10  -0.07  -0.16    -0.04   0.03  -0.01
     8   7     0.01  -0.03   0.04     0.00   0.01   0.01    -0.06  -0.01  -0.01
     9   6     0.05  -0.01   0.07     0.11   0.03  -0.01     0.12  -0.01  -0.11
    10   6     0.07   0.22   0.06     0.03   0.18   0.06    -0.03  -0.04   0.03
    11   6     0.11  -0.12   0.13     0.10  -0.07   0.16    -0.04   0.03   0.01
    12   6    -0.14   0.12  -0.16    -0.11   0.08  -0.18     0.07  -0.03   0.00
    13   6    -0.09  -0.25  -0.08    -0.03  -0.20  -0.07     0.05   0.05  -0.03
    14   6    -0.07   0.01  -0.08    -0.07  -0.04  -0.04    -0.02   0.00   0.03
    15   1    -0.05   0.06   0.03    -0.02   0.00  -0.03     0.01  -0.04   0.05
    16   1    -0.12  -0.18   0.07    -0.09   0.14  -0.24    -0.31  -0.01  -0.27
    17   1     0.15   0.01  -0.16    -0.13  -0.00   0.16     0.03  -0.02  -0.04
    18   1    -0.13  -0.11   0.09    -0.02   0.06  -0.21    -0.24  -0.01  -0.15
    19   1     0.10   0.21  -0.11    -0.09  -0.13   0.11     0.01   0.05  -0.01
    20   1    -0.15   0.00   0.10    -0.05   0.01  -0.29    -0.33   0.04  -0.27
    21   1     0.05  -0.06   0.03    -0.02   0.00   0.03     0.01  -0.04  -0.05
    22   1     0.12   0.18   0.07    -0.09   0.14   0.24    -0.31  -0.01   0.27
    23   1     0.15  -0.00   0.10    -0.05   0.01   0.29    -0.33   0.04   0.27
    24   1    -0.15  -0.01  -0.16    -0.13  -0.00  -0.16     0.03  -0.02   0.04
    25   1    -0.10  -0.21  -0.11    -0.09  -0.13  -0.11     0.01   0.05   0.01
    26   1     0.13   0.11   0.09    -0.02   0.06   0.21    -0.24  -0.01   0.15
                     19                     20                     21
                      A                      A                      B
 Frequencies --    691.5379               786.6943               807.6852
 Red. masses --      3.3882                 1.2751                 1.3748
 Frc consts  --      0.9547                 0.4649                 0.5284
 IR Inten    --      7.0769                69.9145                70.2520
 Raman Activ --      1.5875                23.0000                 0.1462
 Depolar (P) --      0.1958                 0.5432                 0.7500
 Depolar (U) --      0.3275                 0.7040                 0.8571
  Atom  AN      X      Y      Z        X      Y      Z        X      Y      Z
     1   7    -0.08   0.09   0.01    -0.06   0.01  -0.02    -0.02  -0.02   0.01
     2   6     0.07   0.13   0.09    -0.02  -0.02  -0.03     0.07   0.00   0.06
     3   6    -0.03   0.02   0.03     0.02  -0.01   0.01    -0.02   0.00  -0.02
     4   6    -0.05  -0.02   0.10     0.03  -0.00  -0.00    -0.03  -0.00  -0.02
     5   6     0.01  -0.13  -0.04     0.02   0.02   0.03    -0.04  -0.00  -0.04
     6   6     0.07   0.03  -0.03     0.01  -0.01   0.03    -0.02   0.01  -0.03
     7   6     0.08   0.07  -0.10     0.01  -0.01   0.03    -0.02   0.01  -0.03
     8   7     0.08  -0.09   0.01     0.06  -0.01  -0.02    -0.02  -0.02  -0.01
     9   6    -0.07  -0.13   0.09     0.02   0.02  -0.03     0.07   0.00  -0.06
    10   6     0.03  -0.02   0.03    -0.02   0.01   0.01    -0.02   0.00   0.02
    11   6    -0.08  -0.07  -0.10    -0.01   0.01   0.03    -0.02   0.01   0.03
    12   6     0.05   0.02   0.10    -0.03   0.00  -0.00    -0.03  -0.00   0.02
    13   6    -0.07  -0.03  -0.03    -0.01   0.01   0.03    -0.02   0.01   0.03
    14   6    -0.01   0.13  -0.04    -0.02  -0.02   0.03    -0.04  -0.00   0.04
    15   1    -0.21   0.17  -0.05     0.33  -0.13   0.20    -0.06   0.01  -0.01
    16   1    -0.19  -0.05  -0.24    -0.11   0.01  -0.09     0.08  -0.01   0.06
    17   1    -0.13   0.05   0.00    -0.19  -0.01  -0.20     0.27  -0.02   0.24
    18   1    -0.13  -0.11  -0.18    -0.24   0.03  -0.20     0.30  -0.03   0.28
    19   1    -0.11   0.14  -0.01    -0.22  -0.02  -0.21     0.28   0.00   0.26
    20   1    -0.15   0.02  -0.30    -0.15   0.01  -0.12     0.10   0.00   0.08
    21   1     0.21  -0.17  -0.05    -0.33   0.13   0.20    -0.06   0.01   0.01
    22   1     0.19   0.05  -0.24     0.11  -0.01  -0.09     0.08  -0.01  -0.06
    23   1     0.15  -0.02  -0.30     0.15  -0.01  -0.12     0.10   0.00  -0.08
    24   1     0.13  -0.05   0.00     0.19   0.01  -0.20     0.27  -0.02  -0.24
    25   1     0.11  -0.14  -0.01     0.22   0.02  -0.21     0.28   0.00  -0.26
    26   1     0.13   0.11  -0.18     0.24  -0.03  -0.20     0.30  -0.03  -0.28
                     22                     23                     24
                      A                      B                      B
 Frequencies --    842.1993               857.9662               882.4861
 Red. masses --      1.5258                 2.3300                 1.2543
 Frc consts  --      0.6377                 1.0105                 0.5755
 IR Inten    --     12.0555               274.9036                 0.4516
 Raman Activ --     16.1519                 3.5706                 0.4161
 Depolar (P) --      0.4598                 0.7500                 0.7500
 Depolar (U) --      0.6300                 0.8571                 0.8571
  Atom  AN      X      Y      Z        X      Y      Z        X      Y      Z
     1   7    -0.08   0.03  -0.05     0.02  -0.12   0.13     0.00   0.00  -0.00
     2   6     0.07  -0.00   0.06    -0.02   0.03  -0.01    -0.00  -0.00  -0.00
     3   6    -0.01  -0.00   0.00     0.00   0.03  -0.01    -0.04   0.00  -0.03
     4   6    -0.02   0.00  -0.02    -0.04   0.00   0.05    -0.04   0.00  -0.03
     5   6    -0.03   0.01  -0.03     0.02  -0.06  -0.00    -0.01   0.00  -0.00
     6   6    -0.02   0.00  -0.01     0.04   0.08  -0.03     0.03  -0.00   0.03
     7   6    -0.00   0.00  -0.01     0.02   0.05  -0.02     0.05  -0.00   0.04
     8   7     0.08  -0.03  -0.05     0.02  -0.12  -0.13     0.00   0.00   0.00
     9   6    -0.07   0.00   0.06    -0.02   0.03   0.01    -0.00  -0.00   0.00
    10   6     0.01   0.00   0.00     0.00   0.03   0.01    -0.04   0.00   0.03
    11   6     0.00  -0.00  -0.01     0.02   0.05   0.02     0.05  -0.00  -0.04
    12   6     0.02  -0.00  -0.02    -0.04   0.00  -0.05    -0.04   0.00   0.03
    13   6     0.02  -0.00  -0.01     0.04   0.08   0.03     0.03  -0.00  -0.03
    14   6     0.03  -0.01  -0.03     0.02  -0.06   0.00    -0.01   0.00   0.00
    15   1     0.44  -0.13   0.25    -0.57   0.15  -0.22     0.01  -0.00   0.00
    16   1    -0.02  -0.00  -0.01     0.07  -0.02  -0.02     0.26  -0.02   0.22
    17   1     0.18  -0.00   0.16    -0.07   0.03   0.01     0.26  -0.01   0.23
    18   1     0.23  -0.01   0.21    -0.08  -0.06  -0.05     0.03   0.00   0.03
    19   1     0.17  -0.01   0.15    -0.08   0.15  -0.01    -0.23   0.01  -0.21
    20   1    -0.03   0.00  -0.02     0.01   0.02  -0.02    -0.29   0.01  -0.26
    21   1    -0.44   0.13   0.25    -0.57   0.15   0.22     0.01  -0.00  -0.00
    22   1     0.02   0.00  -0.01     0.07  -0.02   0.02     0.26  -0.02  -0.22
    23   1     0.03  -0.00  -0.02     0.01   0.02   0.02    -0.29   0.01   0.26
    24   1    -0.18   0.00   0.16    -0.07   0.03  -0.01     0.26  -0.01  -0.23
    25   1    -0.17   0.01   0.15    -0.08   0.15   0.01    -0.23   0.01   0.21
    26   1    -0.23   0.01   0.21    -0.08  -0.06   0.05     0.03   0.00  -0.03
                     25                     26                     27
                      A                      A                      B
 Frequencies --    883.6232               940.1644               941.4902
 Red. masses --      1.2548                 1.8497                 1.6085
 Frc consts  --      0.5773                 0.9633                 0.8400
 IR Inten    --      0.0102                 3.2197                 6.1782
 Raman Activ --     11.7328                 7.5311                 5.1853
 Depolar (P) --      0.7464                 0.6139                 0.7500
 Depolar (U) --      0.8548                 0.7607                 0.8571
  Atom  AN      X      Y      Z        X      Y      Z        X      Y      Z
     1   7     0.01  -0.00   0.00     0.03  -0.04  -0.05    -0.02   0.01   0.01
     2   6    -0.00   0.00  -0.00     0.04  -0.02   0.03     0.05   0.00   0.05
     3   6    -0.04   0.00  -0.03    -0.07   0.03  -0.03    -0.06  -0.01  -0.06
     4   6    -0.04   0.00  -0.03    -0.05   0.02   0.05     0.01  -0.00  -0.02
     5   6    -0.00  -0.00  -0.00     0.07  -0.05   0.02     0.05   0.02   0.06
     6   6     0.03  -0.00   0.03     0.04   0.05  -0.01     0.00  -0.02   0.02
     7   6     0.05  -0.00   0.04    -0.07   0.02  -0.03    -0.06  -0.00  -0.06
     8   7    -0.01   0.00   0.00    -0.03   0.04  -0.05    -0.02   0.01  -0.01
     9   6     0.00  -0.00  -0.00    -0.04   0.02   0.03     0.05   0.00  -0.05
    10   6     0.04  -0.00  -0.03     0.07  -0.03  -0.03    -0.06  -0.01   0.06
    11   6    -0.05   0.00   0.04     0.07  -0.02  -0.03    -0.06  -0.00   0.06
    12   6     0.04  -0.00  -0.03     0.05  -0.02   0.05     0.01  -0.00   0.02
    13   6    -0.03   0.00   0.03    -0.04  -0.05  -0.01     0.00  -0.02  -0.02
    14   6     0.00   0.00  -0.00    -0.07   0.05   0.02     0.05   0.02  -0.06
    15   1    -0.03   0.01  -0.02     0.23  -0.10   0.07    -0.03   0.04   0.00
    16   1     0.26  -0.02   0.22     0.25  -0.00   0.23     0.30  -0.03   0.25
    17   1     0.26  -0.01   0.23    -0.01   0.09   0.07     0.05  -0.03   0.02
    18   1     0.03  -0.00   0.02    -0.25  -0.02  -0.27    -0.31   0.03  -0.26
    19   1    -0.23   0.01  -0.21    -0.05   0.07  -0.05    -0.06  -0.02  -0.05
    20   1    -0.29   0.01  -0.26     0.23  -0.01   0.24     0.29  -0.02   0.24
    21   1     0.03  -0.01  -0.02    -0.23   0.10   0.07    -0.03   0.04  -0.00
    22   1    -0.26   0.02   0.22    -0.25   0.00   0.23     0.30  -0.03  -0.25
    23   1     0.29  -0.01  -0.26    -0.23   0.01   0.24     0.29  -0.02  -0.24
    24   1    -0.26   0.01   0.23     0.01  -0.09   0.07     0.05  -0.03  -0.02
    25   1     0.23  -0.01  -0.21     0.05  -0.07  -0.05    -0.06  -0.02   0.05
    26   1    -0.03   0.00   0.02     0.25   0.02  -0.27    -0.31   0.03   0.26
                     28                     29                     30
                      A                      B                      B
 Frequencies --    955.9543               963.4528               983.5101
 Red. masses --      3.0495                 3.0708                 1.5433
 Frc consts  --      1.6419                 1.6794                 0.8796
 IR Inten    --      3.3600                66.5812                 0.4497
 Raman Activ --      9.1356                 3.2912                 0.0671
 Depolar (P) --      0.7317                 0.7500                 0.7500
 Depolar (U) --      0.8450                 0.8571                 0.8571
  Atom  AN      X      Y      Z        X      Y      Z        X      Y      Z
     1   7     0.11  -0.09  -0.04     0.02  -0.07  -0.12     0.00   0.00   0.00
     2   6    -0.05  -0.04  -0.08     0.04  -0.06  -0.01    -0.00   0.00  -0.00
     3   6     0.03   0.05   0.06    -0.03   0.06   0.01     0.06  -0.00   0.05
     4   6    -0.07   0.02   0.11    -0.11   0.03   0.10    -0.05   0.00  -0.05
     5   6    -0.02  -0.08  -0.08     0.05  -0.10  -0.03    -0.01   0.00  -0.01
     6   6     0.04   0.09  -0.05     0.06   0.11  -0.05     0.07  -0.01   0.06
     7   6     0.01   0.02   0.10    -0.06   0.04   0.03    -0.05   0.00  -0.05
     8   7    -0.11   0.09  -0.04     0.02  -0.07   0.12     0.00   0.00  -0.00
     9   6     0.05   0.04  -0.08     0.04  -0.06   0.01    -0.00   0.00   0.00
    10   6    -0.03  -0.05   0.06    -0.03   0.06  -0.01     0.06  -0.00  -0.05
    11   6    -0.01  -0.02   0.10    -0.06   0.04  -0.03    -0.05   0.00   0.05
    12   6     0.07  -0.02   0.11    -0.11   0.03  -0.10    -0.05   0.00   0.05
    13   6    -0.04  -0.09  -0.05     0.06   0.11   0.05     0.07  -0.01  -0.06
    14   6     0.02   0.08  -0.08     0.05  -0.10   0.03    -0.01   0.00   0.01
    15   1     0.22  -0.16   0.02     0.40  -0.33   0.11    -0.02   0.01  -0.01
    16   1    -0.22   0.05  -0.17     0.05   0.05   0.07    -0.26   0.02  -0.22
    17   1    -0.16   0.16   0.01    -0.03   0.18   0.14     0.24  -0.02   0.21
    18   1     0.26  -0.08   0.15    -0.05  -0.08  -0.13     0.06  -0.00   0.05
    19   1     0.05   0.11   0.01     0.00   0.15  -0.02    -0.30   0.02  -0.26
    20   1    -0.26   0.01  -0.15     0.04   0.01   0.12     0.22  -0.01   0.19
    21   1    -0.22   0.16   0.02     0.40  -0.33  -0.11    -0.02   0.01   0.01
    22   1     0.22  -0.05  -0.17     0.05   0.05  -0.07    -0.26   0.02   0.22
    23   1     0.26  -0.01  -0.15     0.04   0.01  -0.12     0.22  -0.01  -0.19
    24   1     0.16  -0.16   0.01    -0.03   0.18  -0.14     0.24  -0.02  -0.21
    25   1    -0.05  -0.11   0.01     0.00   0.15   0.02    -0.30   0.02   0.26
    26   1    -0.26   0.08   0.15    -0.05  -0.08   0.13     0.06  -0.00  -0.05
                     31                     32                     33
                      A                      B                      A
 Frequencies --    984.0063              1002.0836              1002.2838
 Red. masses --      1.5431                 1.7284                 1.7336
 Frc consts  --      0.8803                 1.0226                 1.0261
 IR Inten    --      0.0111                 2.5273                 1.0595
 Raman Activ --      0.4679                 3.4845                 6.7126
 Depolar (P) --      0.6551                 0.7500                 0.7191
 Depolar (U) --      0.7916                 0.8571                 0.8366
  Atom  AN      X      Y      Z        X      Y      Z        X      Y      Z
     1   7    -0.00   0.00  -0.00     0.00   0.00   0.00    -0.01   0.00  -0.00
     2   6     0.00   0.00   0.01    -0.02   0.00  -0.01     0.02   0.00   0.02
     3   6    -0.06   0.00  -0.05     0.04  -0.00   0.04    -0.05   0.00  -0.04
     4   6     0.05  -0.00   0.04    -0.07   0.00  -0.07     0.08  -0.00   0.06
     5   6     0.01   0.00   0.01     0.08  -0.00   0.07    -0.08   0.01  -0.07
     6   6    -0.07   0.00  -0.06    -0.06   0.00  -0.05     0.06  -0.01   0.05
     7   6     0.05  -0.00   0.05     0.03  -0.00   0.02    -0.03   0.00  -0.03
     8   7     0.00  -0.00  -0.00     0.00   0.00  -0.00     0.01  -0.00  -0.00
     9   6    -0.00  -0.00   0.01    -0.02   0.00   0.01    -0.02  -0.00   0.02
    10   6     0.06  -0.00  -0.05     0.04  -0.00  -0.04     0.05  -0.00  -0.04
    11   6    -0.05   0.00   0.05     0.03  -0.00  -0.02     0.03  -0.00  -0.03
    12   6    -0.05   0.00   0.04    -0.07   0.00   0.07    -0.08   0.00   0.06
    13   6     0.07  -0.00  -0.06    -0.06   0.00   0.05    -0.06   0.01   0.05
    14   6    -0.01  -0.00   0.01     0.08  -0.00  -0.07     0.08  -0.01  -0.07
    15   1    -0.00   0.00   0.00    -0.02   0.01  -0.01     0.00   0.00   0.00
    16   1     0.26  -0.02   0.23    -0.17   0.01  -0.14     0.17  -0.01   0.15
    17   1    -0.23   0.01  -0.21     0.29  -0.02   0.25    -0.29   0.01  -0.26
    18   1    -0.07   0.01  -0.06    -0.30   0.02  -0.26     0.29  -0.01   0.26
    19   1     0.30  -0.02   0.27     0.23  -0.02   0.21    -0.23   0.01  -0.20
    20   1    -0.22   0.01  -0.20    -0.10   0.00  -0.09     0.10  -0.00   0.08
    21   1     0.00  -0.00   0.00    -0.02   0.01   0.01    -0.00  -0.00   0.00
    22   1    -0.26   0.02   0.23    -0.17   0.01   0.14    -0.17   0.01   0.15
    23   1     0.22  -0.01  -0.20    -0.10   0.00   0.09    -0.10   0.00   0.08
    24   1     0.23  -0.01  -0.21     0.29  -0.02  -0.25     0.29  -0.01  -0.26
    25   1    -0.30   0.02   0.27     0.23  -0.02  -0.21     0.23  -0.01  -0.20
    26   1     0.07  -0.01  -0.06    -0.30   0.02   0.26    -0.29   0.01   0.26
                     34                     35                     36
                      A                      B                      A
 Frequencies --   1102.9977              1110.3016              1185.9806
 Red. masses --      2.7503                 2.3675                 1.2921
 Frc consts  --      1.9714                 1.7196                 1.0708
 IR Inten    --      0.1559                 2.1182                 0.1516
 Raman Activ --     26.0106                 4.1032                15.4285
 Depolar (P) --      0.0824                 0.7500                 0.3778
 Depolar (U) --      0.1523                 0.8571                 0.5484
  Atom  AN      X      Y      Z        X      Y      Z        X      Y      Z
     1   7     0.08  -0.04  -0.03    -0.02   0.07   0.03    -0.01  -0.01  -0.00
     2   6    -0.01   0.03  -0.01    -0.00  -0.01   0.00    -0.03  -0.04   0.02
     3   6    -0.11  -0.10   0.12     0.10   0.09  -0.10     0.02   0.04  -0.02
     4   6     0.02   0.02  -0.02    -0.02  -0.02   0.02     0.04   0.02  -0.04
     5   6    -0.01   0.06   0.01     0.01  -0.05  -0.01    -0.01  -0.05   0.01
     6   6    -0.04  -0.03   0.04     0.03   0.01  -0.03     0.01  -0.00  -0.01
     7   6     0.10   0.03  -0.10    -0.10  -0.03   0.11     0.01  -0.00  -0.01
     8   7    -0.08   0.04  -0.03    -0.02   0.07  -0.03     0.01   0.01  -0.00
     9   6     0.01  -0.03  -0.01    -0.00  -0.01  -0.00     0.03   0.04   0.02
    10   6     0.11   0.10   0.12     0.10   0.09   0.10    -0.02  -0.04  -0.02
    11   6    -0.10  -0.03  -0.10    -0.10  -0.03  -0.11    -0.01   0.00  -0.01
    12   6    -0.02  -0.02  -0.02    -0.02  -0.02  -0.02    -0.04  -0.02  -0.04
    13   6     0.04   0.03   0.04     0.03   0.01   0.03    -0.01   0.00  -0.01
    14   6     0.01  -0.06   0.01     0.01  -0.05   0.01     0.01   0.05   0.01
    15   1     0.13  -0.10  -0.01    -0.06   0.16   0.01    -0.00   0.02   0.01
    16   1    -0.15  -0.05   0.15     0.14   0.02  -0.16    -0.16   0.27   0.20
    17   1     0.06   0.44  -0.05    -0.06  -0.41   0.04     0.03  -0.04  -0.04
    18   1     0.02   0.09  -0.02     0.01  -0.06  -0.01    -0.15  -0.13   0.16
    19   1    -0.17   0.14   0.19     0.20  -0.20  -0.23    -0.26   0.31   0.31
    20   1     0.10   0.19  -0.12    -0.10  -0.17   0.11    -0.01  -0.16  -0.00
    21   1    -0.13   0.10  -0.01    -0.06   0.16  -0.01     0.00  -0.02   0.01
    22   1     0.15   0.05   0.15     0.14   0.02   0.16     0.16  -0.27   0.20
    23   1    -0.10  -0.19  -0.12    -0.10  -0.17  -0.11     0.01   0.16  -0.00
    24   1    -0.06  -0.44  -0.05    -0.06  -0.41  -0.04    -0.03   0.04  -0.04
    25   1     0.17  -0.14   0.19     0.20  -0.20   0.23     0.26  -0.31   0.31
    26   1    -0.02  -0.09  -0.02     0.01  -0.06   0.01     0.15   0.13   0.16
                     37                     38                     39
                      B                      A                      B
 Frequencies --   1189.5005              1197.3825              1197.4367
 Red. masses --      1.2581                 1.1161                 1.1543
 Frc consts  --      1.0488                 0.9428                 0.9752
 IR Inten    --      0.2736                 1.3273                 1.2454
 Raman Activ --      6.2129                 9.9256                 9.4109
 Depolar (P) --      0.7500                 0.6110                 0.7500
 Depolar (U) --      0.8571                 0.7585                 0.8571
  Atom  AN      X      Y      Z        X      Y      Z        X      Y      Z
     1   7    -0.00  -0.01   0.01     0.00   0.01   0.00     0.01  -0.01  -0.01
     2   6     0.04   0.03  -0.03    -0.01  -0.01   0.01     0.01   0.01  -0.01
     3   6    -0.02  -0.03   0.02     0.01  -0.03  -0.02    -0.02   0.03   0.02
     4   6    -0.03  -0.03   0.03     0.00   0.02  -0.00    -0.01  -0.01   0.01
     5   6     0.02   0.03  -0.02    -0.00  -0.01  -0.00    -0.01   0.03   0.01
     6   6    -0.02  -0.00   0.02     0.00  -0.02  -0.00     0.01   0.03  -0.01
     7   6    -0.02  -0.00   0.02    -0.02   0.04   0.02     0.02  -0.04  -0.03
     8   7    -0.00  -0.01  -0.01    -0.00  -0.01   0.00     0.01  -0.01   0.01
     9   6     0.04   0.03   0.03     0.01   0.01   0.01     0.01   0.01   0.01
    10   6    -0.02  -0.03  -0.02    -0.01   0.03  -0.02    -0.02   0.03  -0.02
    11   6    -0.02  -0.00  -0.02     0.02  -0.04   0.02     0.02  -0.04   0.03
    12   6    -0.03  -0.03  -0.03    -0.00  -0.02  -0.00    -0.01  -0.01  -0.01
    13   6    -0.02  -0.00  -0.02    -0.00   0.02  -0.00     0.01   0.03   0.01
    14   6     0.02   0.03   0.02     0.00   0.01  -0.00    -0.01   0.03  -0.01
    15   1    -0.04  -0.03  -0.01     0.01   0.02   0.01     0.00  -0.03  -0.01
    16   1     0.15  -0.25  -0.20    -0.01  -0.01   0.01     0.00  -0.00  -0.00
    17   1     0.00   0.24   0.01    -0.02  -0.18   0.01     0.00   0.09   0.00
    18   1     0.13   0.10  -0.14     0.39   0.23  -0.42    -0.39  -0.21   0.42
    19   1     0.21  -0.27  -0.25    -0.15   0.16   0.17     0.16  -0.16  -0.19
    20   1     0.01   0.27   0.01    -0.01   0.06   0.02     0.02  -0.12  -0.03
    21   1    -0.04  -0.03   0.01    -0.01  -0.02   0.01     0.00  -0.03   0.01
    22   1     0.15  -0.25   0.20     0.01   0.01   0.01     0.00  -0.00   0.00
    23   1     0.01   0.27  -0.01     0.01  -0.06   0.02     0.02  -0.12   0.03
    24   1     0.00   0.24  -0.01     0.02   0.18   0.01     0.00   0.09  -0.00
    25   1     0.21  -0.27   0.25     0.15  -0.16   0.17     0.16  -0.16   0.19
    26   1     0.13   0.10   0.14    -0.39  -0.23  -0.42    -0.39  -0.21  -0.42
                     40                     41                     42
                      A                      B                      A
 Frequencies --   1199.2806              1199.6777              1262.2921
 Red. masses --      1.6349                 1.7222                 1.0524
 Frc consts  --      1.3855                 1.4604                 0.9879
 IR Inten    --      0.1856                 0.5007                 0.2264
 Raman Activ --     18.1571                 8.8957                21.6973
 Depolar (P) --      0.0460                 0.7500                 0.5655
 Depolar (U) --      0.0879                 0.8571                 0.7225
  Atom  AN      X      Y      Z        X      Y      Z        X      Y      Z
     1   7    -0.03   0.02   0.02     0.01  -0.03  -0.02     0.01   0.00  -0.00
     2   6     0.03  -0.01  -0.02    -0.02   0.01   0.02    -0.00  -0.01   0.00
     3   6     0.02   0.04  -0.02    -0.03  -0.06   0.03    -0.02   0.01   0.02
     4   6     0.03  -0.01  -0.03    -0.04   0.01   0.05     0.00  -0.00  -0.00
     5   6     0.03  -0.08  -0.04    -0.03   0.09   0.04     0.01  -0.02  -0.01
     6   6    -0.05  -0.04   0.05     0.04   0.04  -0.04     0.00  -0.00  -0.00
     7   6    -0.05  -0.00   0.06     0.04   0.01  -0.05     0.01   0.02  -0.01
     8   7     0.03  -0.02   0.02     0.01  -0.03   0.02    -0.01  -0.00  -0.00
     9   6    -0.03   0.01  -0.02    -0.02   0.01  -0.02     0.00   0.01   0.00
    10   6    -0.02  -0.04  -0.02    -0.03  -0.06  -0.03     0.02  -0.01   0.02
    11   6     0.05   0.00   0.06     0.04   0.01   0.05    -0.01  -0.02  -0.01
    12   6    -0.03   0.01  -0.03    -0.04   0.01  -0.05    -0.00   0.00  -0.00
    13   6     0.05   0.04   0.05     0.04   0.04   0.04    -0.00   0.00  -0.00
    14   6    -0.03   0.08  -0.04    -0.03   0.09  -0.04    -0.01   0.02  -0.01
    15   1    -0.07   0.04  -0.00     0.04  -0.09   0.00     0.01   0.02   0.00
    16   1     0.04   0.02  -0.04     0.02  -0.13  -0.04    -0.21   0.25   0.26
    17   1     0.09   0.52  -0.07    -0.10  -0.50   0.08    -0.03  -0.28   0.02
    18   1     0.04  -0.07  -0.05     0.11   0.18  -0.12    -0.01  -0.03   0.01
    19   1    -0.06  -0.02   0.07     0.12  -0.05  -0.13     0.12  -0.14  -0.14
    20   1    -0.01   0.40   0.04     0.02  -0.28  -0.04     0.05   0.43  -0.03
    21   1     0.07  -0.04  -0.00     0.04  -0.09  -0.00    -0.01  -0.02   0.00
    22   1    -0.04  -0.02  -0.04     0.02  -0.13   0.04     0.21  -0.25   0.26
    23   1     0.01  -0.40   0.04     0.02  -0.28   0.04    -0.05  -0.43  -0.03
    24   1    -0.09  -0.52  -0.07    -0.10  -0.50  -0.08     0.03   0.28   0.02
    25   1     0.06   0.02   0.07     0.12  -0.05   0.13    -0.12   0.14  -0.14
    26   1    -0.04   0.07  -0.05     0.11   0.18   0.12     0.01   0.03   0.01
                     43                     44                     45
                      B                      A                      B
 Frequencies --   1262.5749              1334.8891              1335.1297
 Red. masses --      1.0526                 1.4262                 1.4156
 Frc consts  --      0.9886                 1.4974                 1.4867
 IR Inten    --      0.4142                 1.1292                 7.7074
 Raman Activ --     23.6416                30.5195                14.5128
 Depolar (P) --      0.7500                 0.6768                 0.7500
 Depolar (U) --      0.8571                 0.8073                 0.8571
  Atom  AN      X      Y      Z        X      Y      Z        X      Y      Z
     1   7     0.00  -0.01   0.00     0.00   0.01   0.00     0.00   0.00  -0.01
     2   6    -0.00  -0.01  -0.00    -0.00   0.01   0.00    -0.00  -0.00   0.00
     3   6    -0.02   0.01   0.02     0.04  -0.04  -0.05    -0.04   0.05   0.05
     4   6     0.00  -0.00  -0.00     0.00   0.00  -0.00     0.00  -0.00  -0.00
     5   6     0.01  -0.02  -0.01    -0.05  -0.04   0.05     0.05   0.03  -0.06
     6   6     0.00  -0.00  -0.00    -0.00  -0.01   0.00     0.00   0.01  -0.00
     7   6     0.01   0.02  -0.01     0.01   0.08  -0.00    -0.01  -0.08   0.01
     8   7     0.00  -0.01  -0.00    -0.00  -0.01   0.00     0.00   0.00   0.01
     9   6    -0.00  -0.01   0.00     0.00  -0.01   0.00    -0.00  -0.00  -0.00
    10   6    -0.02   0.01  -0.02    -0.04   0.04  -0.05    -0.04   0.05  -0.05
    11   6     0.01   0.02   0.01    -0.01  -0.08  -0.00    -0.01  -0.08  -0.01
    12   6     0.00  -0.00   0.00    -0.00  -0.00  -0.00     0.00  -0.00   0.00
    13   6     0.00  -0.00   0.00     0.00   0.01   0.00     0.00   0.01   0.00
    14   6     0.01  -0.02   0.01     0.05   0.04   0.05     0.05   0.03   0.06
    15   1    -0.00   0.02   0.00     0.01  -0.00   0.00     0.01   0.01  -0.00
    16   1    -0.20   0.24   0.26    -0.18   0.23   0.22     0.18  -0.23  -0.23
    17   1    -0.03  -0.27   0.02     0.04   0.31  -0.02    -0.03  -0.32   0.02
    18   1    -0.00  -0.03   0.00     0.10   0.05  -0.11    -0.10  -0.06   0.11
    19   1     0.12  -0.14  -0.15     0.17  -0.21  -0.20    -0.17   0.21   0.20
    20   1     0.05   0.44  -0.03    -0.03  -0.33   0.02     0.03   0.32  -0.01
    21   1    -0.00   0.02  -0.00    -0.01   0.00   0.00     0.01   0.01   0.00
    22   1    -0.20   0.24  -0.26     0.18  -0.23   0.22     0.18  -0.23   0.23
    23   1     0.05   0.44   0.03     0.03   0.33   0.02     0.03   0.32   0.01
    24   1    -0.03  -0.27  -0.02    -0.04  -0.31  -0.02    -0.03  -0.32  -0.02
    25   1     0.12  -0.14   0.15    -0.17   0.21  -0.20    -0.17   0.21  -0.20
    26   1    -0.00  -0.03  -0.00    -0.10  -0.05  -0.11    -0.10  -0.06  -0.11
                     46                     47                     48
                      A                      B                      A
 Frequencies --   1370.0175              1370.3133              1390.7155
 Red. masses --      2.7004                 2.8173                 4.1814
 Frc consts  --      2.9863                 3.1170                 4.7648
 IR Inten    --      4.7223                 7.8166                 0.0004
 Raman Activ --     12.6872                18.3151                74.1127
 Depolar (P) --      0.7487                 0.7500                 0.1240
 Depolar (U) --      0.8563                 0.8571                 0.2206
  Atom  AN      X      Y      Z        X      Y      Z        X      Y      Z
     1   7    -0.03  -0.00  -0.00    -0.01   0.00  -0.02     0.19   0.08  -0.05
     2   6     0.09   0.07  -0.08    -0.08  -0.09   0.08    -0.04   0.19   0.05
     3   6    -0.05   0.07   0.06     0.05  -0.07  -0.06    -0.02   0.08   0.03
     4   6    -0.00  -0.12  -0.01    -0.00   0.13   0.01     0.08   0.02  -0.08
     5   6     0.05   0.02  -0.06    -0.06  -0.02   0.06     0.03  -0.08  -0.04
     6   6    -0.07   0.07   0.08     0.08  -0.06  -0.09    -0.05  -0.10   0.05
     7   6    -0.01  -0.08   0.01     0.02   0.08  -0.01    -0.04   0.06   0.05
     8   7     0.03   0.00  -0.00    -0.01   0.00   0.02    -0.19  -0.08  -0.05
     9   6    -0.09  -0.07  -0.08    -0.08  -0.09  -0.08     0.04  -0.19   0.05
    10   6     0.05  -0.07   0.06     0.05  -0.07   0.06     0.02  -0.08   0.03
    11   6     0.01   0.08   0.01     0.02   0.08   0.01     0.04  -0.06   0.05
    12   6     0.00   0.12  -0.01    -0.00   0.13  -0.01    -0.08  -0.02  -0.08
    13   6     0.07  -0.07   0.08     0.08  -0.06   0.09     0.05   0.10   0.05
    14   6    -0.05  -0.02  -0.06    -0.06  -0.02  -0.06    -0.03   0.08  -0.04
    15   1    -0.13  -0.22  -0.08     0.09   0.19   0.06     0.37   0.17   0.08
    16   1    -0.19   0.24   0.23     0.19  -0.25  -0.24     0.08  -0.03  -0.10
    17   1     0.00  -0.09  -0.01    -0.01   0.11   0.01     0.04  -0.27  -0.07
    18   1     0.16   0.09  -0.18    -0.16  -0.08   0.17    -0.04  -0.13   0.04
    19   1    -0.02   0.01   0.03     0.03  -0.00  -0.03    -0.01  -0.16  -0.00
[...]
 .00485936,-0.02386292,-0.00022892,0.00012647,-0.00004735,0.00006547,-0
 .00004998,-0.00001254,-0.00001245,0.00000637,-0.00000987,-0.00002341,0
 .00001766,-0.00002410,0.00000176,0.00000238,0.00000722,0.00000170,-0.0
 0000324,-0.00000193,-0.00000445,0.00000234,-0.00000302,0.00004435,0.00
 005332,-0.00002680,-0.00038111,0.00039041,0.00017975,-0.00009396,0.000
 00673,0.00050801,-0.00077535,0.00033183,0.00063018,0.04212427,0.000345
 66,0.00005083,-0.00038863,-0.00366884,0.00205450,0.00056459,0.00004493
 ,0.00016139,-0.00016938,-0.00442695,0.00050036,0.00132985,-0.00750831,
 -0.01466222,0.02539125,0.00571163,-0.09066073,0.10537689,-0.00149556,0
 .00679530,-0.00553806,-0.00022568,-0.00001327,-0.00001387,0.00008206,-
 0.00005283,-0.00000102,-0.00002295,0.00001150,-0.00000989,-0.00001701,
 0.00000964,-0.00002185,0.00000695,-0.00000384,0.00000716,-0.00000488,-
 0.00000098,-0.00000604,-0.00000202,-0.00000670,-0.00001411,0.00000411,
 0.00002913,-0.00002884,0.00038514,-0.00040594,-0.00015287,0.00021534,-
 0.00034073,0.00038245,0.00039566,-0.00094739,-0.00019967,0.00957323,0.
 09802691,0.00039467,0.00002577,-0.00042125,-0.00322799,-0.00020395,-0.
 00009368,0.00016497,0.00005312,0.00031741,-0.00084131,0.00165544,0.000
 74720,0.00478965,0.01274089,-0.00975367,-0.00702260,0.10547057,-0.2620
 9332,-0.01133861,0.00694402,-0.03005851,-0.00005213,0.00011920,0.00003
 746,-0.00008151,0.00004381,-0.00011390,0.00004199,-0.00002103,0.000012
 13,0.00001112,0.00000377,0.00002535,-0.00000818,0.00000285,-0.00000949
 ,0.00000227,-0.00000517,0.00000036,0.00000749,0.00000379,0.00001619,-0
 .00004628,0.00004606,0.00001256,0.00019033,-0.00015892,-0.00019907,0.0
 0009420,-0.00003169,-0.00011726,0.00049462,-0.00032963,0.00016458,0.01
 646047,-0.12570297,0.30182468,-0.00069714,0.00133396,-0.00112095,0.003
 39875,-0.00408024,0.00340750,0.00185001,-0.00228548,-0.00159630,0.0003
 5435,0.00010253,0.00038025,0.00145271,-0.00248125,-0.00356715,-0.01941
 415,-0.02323788,-0.00325492,-0.14414851,-0.12520072,0.04242905,-0.0000
 7956,-0.00009440,0.00017819,0.00009723,-0.00008219,0.00013548,-0.00005
 678,0.00000785,-0.00001314,-0.00003303,0.00000719,-0.00003966,0.000003
 57,0.00000318,0.00001755,0.00000533,0.00000081,0.00000398,-0.00001273,
 0.00000156,-0.00000731,0.00004856,-0.00024400,-0.00023514,-0.00010257,
 0.00021628,0.00010105,-0.00042238,0.00034408,0.00020068,-0.00033371,-0
 .00023130,0.00018525,-0.00095811,0.00061399,0.00003231,0.15892990,0.00
 053654,-0.00032674,0.00123712,-0.01054473,-0.01245038,0.01444474,-0.00
 206554,0.00179369,0.00228138,0.00029311,0.00020764,0.00020634,-0.00295
 328,0.00277796,0.00004746,-0.01717965,-0.01031703,-0.00233236,-0.12468
 111,-0.19117908,0.04871171,-0.00012985,-0.00025867,-0.00010189,0.00013
 876,-0.00007331,-0.00000440,-0.00002482,0.00001886,-0.00000762,-0.0000
 2463,0.00000331,-0.00002346,0.00001004,-0.00001234,0.00000491,-0.00001
 204,-0.00000407,-0.00001034,-0.00000243,-0.00001360,-0.00002215,0.0003
 3516,-0.00026817,0.00060403,-0.00001022,-0.00030753,-0.00006194,0.0003
 3304,-0.00044419,-0.00018871,-0.00000719,-0.00025107,0.00000388,0.0007
 2708,-0.00056916,-0.00063020,0.15524371,0.21160031,0.00019944,0.002181
 89,-0.00436602,0.01573450,0.02609545,-0.01417870,-0.00178933,0.0020378
 0,-0.00235728,-0.00006985,-0.00004107,-0.00003630,-0.00296122,0.000658
 15,-0.00129494,-0.01559471,-0.01482696,0.00411035,0.04234019,0.0495385
 1,-0.05511623,-0.00007710,0.00004410,0.00004483,-0.00011359,0.00008110
 ,-0.00008844,0.00002842,-0.00002400,0.00002071,0.00002472,-0.00002117,
 0.00004205,-0.00000606,-0.00000343,-0.00001249,-0.00000217,-0.00000024
 ,-0.00000036,0.00000907,-0.00000257,0.00001088,-0.00083848,-0.00057233
 ,-0.00122907,0.00048672,0.00035178,-0.00004907,0.00021222,-0.00018119,
 -0.00010631,-0.00023848,-0.00043473,0.00015997,-0.00013555,-0.00081662
 ,-0.00029856,-0.03721452,-0.06408349,0.07473363,-0.00428327,0.00675664
 ,0.02190512,-0.00037165,0.00110550,-0.00054839,-0.00022867,0.00026347,
 -0.00007015,-0.00007641,-0.00007034,-0.00002456,-0.00001996,-0.0000379
 8,0.00008890,0.00012567,0.00008067,-0.00010668,-0.00046304,-0.00017997
 ,-0.00023766,-0.05484778,0.08994178,0.02073029,-0.02906467,0.03579046,
 -0.00680616,-0.00026762,-0.00054438,-0.00385694,-0.00204876,0.00144022
 ,-0.00170401,-0.00119029,0.00094949,-0.00026166,-0.00008665,-0.0004108
 7,0.00003543,0.00018704,0.00022719,0.00074142,-0.00088200,0.00132908,0
 .00161639,0.00019113,-0.00011233,-0.00001655,0.00000728,-0.00003269,-0
 .00002636,-0.00001218,-0.00001472,-0.00001595,-0.00001238,-0.00001766,
 -0.00003577,0.00008014,-0.00000597,0.00000413,0.09329399,0.00161294,-0
 .00172222,-0.00795433,-0.00175698,-0.00030222,-0.00135820,-0.00004947,
 0.00031012,-0.00007420,-0.00006481,-0.00006744,-0.00009001,0.00004373,
 -0.00001579,0.00009781,0.00003026,-0.00003960,-0.00006860,0.00003292,-
 0.00014228,0.00015727,0.13189604,-0.28480555,-0.07646948,0.00476854,-0
 .01447309,0.00140678,0.00038044,-0.00018652,-0.00021016,0.00004352,0.0
 0093924,0.00183101,0.00016931,0.00069312,-0.00055722,0.00051422,0.0000
 2388,-0.00047983,0.00003384,0.00019067,0.00035967,-0.00132908,0.003228
 73,0.00081808,0.00016508,-0.00007298,0.00001273,-0.00000019,-0.0000303
 1,-0.00000318,-0.00003607,-0.00000876,-0.00002356,0.00000070,0.0000149
 7,-0.00002471,0.00005199,0.00005297,-0.00000431,-0.13635278,0.29663868
 ,0.01373344,-0.03678424,-0.04000789,0.00467627,-0.00167370,0.00039974,
 -0.00046734,-0.00025707,0.00006805,0.00011931,0.00017127,0.00023364,-0
 .00007047,0.00001039,-0.00017891,-0.00016942,0.00010267,0.00025814,0.0
 0009578,0.00016859,-0.00022049,0.02477900,-0.06331250,-0.07585806,-0.0
 0819256,0.01903450,0.00927822,-0.00255010,0.00048119,-0.00234379,-0.00
 287159,0.00149587,-0.00276695,-0.00040381,0.00032344,0.00073860,0.0000
 7249,0.00002651,-0.00015643,0.00007068,-0.00015666,-0.00020977,0.00161
 639,-0.00081808,-0.00044673,0.00001111,-0.00002871,-0.00012667,0.00002
 044,0.00000739,0.00000082,0.00006213,-0.00000413,0.00003519,0.00001243
 ,-0.00000999,0.00001617,0.00001367,-0.00012012,0.00001093,-0.03034384,
 0.08200313,0.11284518,-0.00127539,0.00196338,-0.00100358,-0.00022765,0
 .00005262,-0.00010481,0.00009556,-0.00000474,-0.00003907,-0.00002490,-
 0.00002611,-0.00001579,-0.00000514,-0.00003212,0.00005394,0.00002853,0
 .00001466,0.00001961,-0.00002642,-0.00002019,0.00001221,-0.00309491,0.
 00144283,0.00062929,0.00102915,0.01487359,0.01793229,-0.03996154,-0.00
 531597,-0.00518430,0.00054921,0.00385101,-0.00121384,-0.00152999,-0.00
 485577,-0.02345127,0.00013718,-0.00007703,0.00005823,0.00072555,0.0036
 8117,-0.00255381,0.00019113,-0.00016508,0.00001111,-0.00007924,0.00004
 666,-0.00002307,-0.00001484,-0.00000171,0.00000327,-0.00001337,-0.0000
 0629,-0.00000607,0.00000069,0.00000899,-0.00001615,0.00001809,0.000018
 91,0.00000378,0.00013516,-0.00015687,0.00005650,0.04485690,0.00177741,
 -0.00253334,0.00151531,0.00027017,0.00030068,0.00044474,-0.00005247,-0
 .00011626,-0.00007712,0.00003029,-0.00002524,0.00003814,-0.00002321,-0
 .00002107,-0.00002395,0.00003436,-0.00001042,0.00001197,-0.00006185,-0
 .00003621,-0.00013389,0.00082172,-0.00248759,-0.00075800,0.00879833,-0
 .01506423,-0.02459430,-0.00520452,-0.09323922,-0.10767949,0.00385949,0
 .00053545,-0.00139549,0.00131855,0.00684253,0.00454647,0.00019382,-0.0
 0004289,0.00020001,0.00332131,0.00225493,-0.00033767,0.00011233,-0.000
 07298,0.00002871,-0.00004666,0.00007793,-0.00003527,-0.00000943,0.0000
 1969,-0.00000913,0.00000272,0.00000927,0.00001452,-0.00000929,0.000000
 65,0.00000122,0.00000240,-0.00000145,0.00001667,0.00010834,0.00009029,
 -0.00008375,-0.01389191,0.10475238,-0.00037065,0.00128859,-0.00036735,
 -0.00007788,0.00011839,-0.00011676,0.00007452,-0.00002904,-0.00003981,
 0.00000223,-0.00000314,-0.00003501,0.00001092,-0.00001226,0.00000430,0
 .00000518,0.00001165,-0.00001323,0.00000969,-0.00007224,-0.00003131,-0
 .00024584,-0.00060673,-0.00000572,0.00579995,-0.01252036,-0.00741486,-
 0.00487760,-0.10805136,-0.25890301,-0.00108460,-0.00130569,0.00024284,
 -0.01142329,-0.00710488,-0.03007370,0.00029833,-0.00008275,0.00039902,
 -0.00305998,0.00002887,-0.00005466,-0.00001655,-0.00001273,-0.00012667
 ,-0.00002307,0.00003527,0.00010080,-0.00002119,0.00000175,0.00001261,-
 0.00001486,0.00000490,-0.00000468,-0.00001160,0.00001143,-0.00000491,-
 0.00003314,0.00003725,0.00001254,0.00009429,0.00008182,-0.00021151,0.0
 1464631,0.12742583,0.29752516,-0.00007956,0.00009440,0.00017819,0.0000
 9723,0.00008219,0.00013548,-0.00005678,-0.00000785,-0.00001314,0.00000
 357,-0.00000318,0.00001755,-0.00001273,-0.00000156,-0.00000731,0.00000
 533,-0.00000081,0.00000398,-0.00003303,-0.00000719,-0.00003966,-0.0006
 9714,-0.00133396,-0.00112095,0.00339875,0.00408024,0.00340750,0.001850
 01,0.00228548,-0.00159630,-0.14414851,0.12520072,0.04242905,0.00035435
 ,-0.00010253,0.00038025,-0.01941415,0.02323788,-0.00325492,0.00145271,
 0.00248125,-0.00356715,0.00008014,-0.00005199,0.00001367,0.00001809,-0
 .00000240,-0.00003314,0.00000611,0.00000043,-0.00000857,0.00000605,-0.
 00000056,0.00000353,-0.00000011,-0.00000349,-0.00000063,0.00000756,-0.
 00000461,0.00000314,0.00004856,0.00024400,-0.00023514,-0.00010257,-0.0
 0021628,0.00010105,0.15892990,0.00012985,-0.00025867,0.00010189,-0.000
 13876,-0.00007331,0.00000440,0.00002482,0.00001886,0.00000762,-0.00001
 004,-0.00001234,-0.00000491,0.00000243,-0.00001360,0.00002215,0.000012
 04,-0.00000407,0.00001034,0.00002463,0.00000331,0.00002346,-0.00053654
 ,-0.00032674,-0.00123712,0.01054473,-0.01245038,-0.01444474,0.00206554
 ,0.00179369,-0.00228138,0.12468111,-0.19117908,-0.04871171,-0.00029311
 ,0.00020764,-0.00020634,0.01717965,-0.01031703,0.00233236,0.00295328,0
 .00277796,-0.00004746,0.00000597,0.00005297,0.00012012,-0.00001891,-0.
 00000145,-0.00003725,-0.00000342,-0.00000043,-0.00000035,-0.00000720,-
 0.00000154,-0.00000286,0.00000039,0.00000735,-0.00000518,0.00000461,0.
 00001638,0.00000078,-0.00033516,-0.00026817,-0.00060403,0.00001022,-0.
 00030753,0.00006194,-0.15524371,0.21160031,-0.00007710,-0.00004410,0.0
 0004483,-0.00011359,-0.00008110,-0.00008844,0.00002842,0.00002400,0.00
 002071,-0.00000606,0.00000343,-0.00001249,0.00000907,0.00000257,0.0000
 1088,-0.00000217,0.00000024,-0.00000036,0.00002472,0.00002117,0.000042
 05,0.00019944,-0.00218189,-0.00436602,0.01573450,-0.02609545,-0.014178
 70,-0.00178933,-0.00203780,-0.00235728,0.04234019,-0.04953851,-0.05511
 623,-0.00006985,0.00004107,-0.00003630,-0.01559471,0.01482696,0.004110
 35,-0.00296122,-0.00065815,-0.00129494,0.00000413,0.00000431,0.0000109
 3,0.00000378,-0.00001667,0.00001254,-0.00000263,-0.00000566,0.00000506
 ,-0.00000510,-0.00000257,-0.00000586,0.00000270,0.00000252,-0.00000303
 ,0.00000314,-0.00000078,-0.00000824,-0.00083848,0.00057233,-0.00122907
 ,0.00048672,-0.00035178,-0.00004907,-0.03721452,0.06408349,0.07473363,
 0.00005777,-0.00009408,0.00007050,-0.00004798,-0.00002313,-0.00001436,
 0.00002155,0.00000727,0.00000517,-0.00000665,-0.00000551,-0.00000243,-
 0.00000113,-0.00000719,0.00001492,0.00000552,0.00000283,0.00000616,-0.
 00000006,0.00000199,0.00001117,-0.00022310,0.00035375,0.00035584,0.001
 29100,0.00300040,-0.00354307,-0.01906019,0.02243331,-0.00366169,0.0002
 0795,-0.00016657,0.00003608,-0.14858160,0.12617648,0.04068596,0.002496
 90,0.00227451,-0.00157762,0.00261080,0.00517209,0.00394033,0.00000728,
 0.00000019,0.00002044,-0.00001484,0.00000943,-0.00002119,-0.00000220,-
 0.00000060,-0.00000150,-0.00000337,-0.00000267,-0.00000317,0.00000145,
 0.00000233,-0.00000569,0.00000611,0.00000342,-0.00000263,-0.00017600,-
 0.00006240,-0.00005376,-0.00094069,-0.00060198,-0.00001456,-0.00042238
 ,-0.00033304,0.00021222,0.16325569,-0.00010895,0.00004919,-0.00003103,
 0.00011101,0.00007158,0.00010616,-0.00003236,-0.00003390,-0.00002162,0
 .00001110,-0.00000375,0.00001038,-0.00000767,-0.00000467,-0.00001452,0
 .00000271,-0.00000328,0.00000064,-0.00002019,-0.00001390,-0.00004089,-
 0.00013726,-0.00038076,-0.00005679,0.00320391,0.00265441,-0.00056907,0
 .01601696,-0.00912582,0.00260451,-0.00012415,0.00031555,0.00011545,0.1
 2614660,-0.19135135,-0.04564963,0.00207353,0.00218902,-0.00262964,0.01
 167687,-0.01290234,-0.01391345,0.00003269,-0.00003031,-0.00000739,0.00
 000171,0.00001969,-0.00000175,0.00000060,0.00001035,-0.00000383,0.0000
 0405,0.00000501,0.00000681,-0.00000308,-0.00000136,0.00000411,-0.00000
 043,-0.00000043,0.00000566,0.00004497,-0.00002233,0.00004023,-0.000679
 89,-0.00053009,0.00065573,-0.00034408,-0.00044419,0.00018119,-0.157049
 80,0.21044989,-0.00006784,-0.00002110,0.00001182,0.00006479,0.00006007
 ,0.00003631,-0.00001558,-0.00001925,-0.00001500,0.00000934,-0.00000037
 ,0.00000510,-0.00000037,0.00000184,-0.00001338,-0.00000007,-0.00000197
 ,-0.00000508,-0.00000702,-0.00001621,-0.00002635,-0.00011972,0.0006443
 7,0.00032663,-0.00298977,-0.00113999,-0.00156513,-0.01604787,0.0150509
 0,0.00349743,-0.00006726,0.00012804,0.00019773,0.04064044,-0.04564500,
 -0.05295275,-0.00192956,-0.00225890,-0.00256786,0.01658650,-0.02647243
 ,-0.01370588,-0.00002636,0.00000318,0.00000082,0.00000327,0.00000913,0
 .00001261,-0.00000150,0.00000383,0.00000005,0.00000128,0.00000354,0.00
 000354,-0.00000370,-0.00000060,0.00000353,-0.00000857,0.00000035,0.000
 00506,-0.00015452,0.00001861,-0.00016969,-0.00015726,0.00079933,-0.000
 28394,0.00020068,0.00018871,-0.00010631,-0.03686921,0.05906808,0.06802
 200,-0.00022892,-0.00012647,-0.00004735,0.00006547,0.00004998,-0.00001
 254,-0.00001245,-0.00000637,-0.00000987,0.00000176,-0.00000238,0.00000
 722,-0.00000445,-0.00000234,-0.00000302,0.00000170,0.00000324,-0.00000
 193,-0.00002341,-0.00001766,-0.00002410,0.00016709,-0.00023530,-0.0004
 1687,0.00063070,0.00395371,-0.00244358,0.00024551,-0.00015966,0.000035
 97,-0.00203306,-0.00485936,-0.02386292,0.00069043,0.00420636,-0.001326
 20,-0.04004677,-0.00591516,-0.00707149,0.00059570,0.01418267,0.0175584
 0,-0.00001238,-0.00000070,0.00001243,0.00000069,0.00000929,-0.00001160
 ,0.00000145,0.00000308,-0.00000370,0.00000215,0.00000086,0.00000225,-0
 .00000178,-0.00000127,-0.00000013,-0.00000011,-0.00000039,0.00000270,0
 .00004435,-0.00005332,-0.00002680,-0.00038111,-0.00039041,0.00017975,-
 0.00095811,-0.00072708,-0.00013555,-0.00009396,-0.00000673,0.00050801,
 0.04212427,0.00022568,-0.00001327,0.00001387,-0.00008206,-0.00005283,0
 .00000102,0.00002295,0.00001150,0.00000989,-0.00000695,-0.00000384,-0.
 00000716,0.00000202,-0.00000670,0.00001411,0.00000488,-0.00000098,0.00
 000604,0.00001701,0.00000964,0.00002185,-0.00034566,0.00005083,0.00038
 863,0.00366884,0.00205450,-0.00056459,-0.00004493,0.00016139,0.0001693
 8,0.00149556,0.00679530,0.00553806,0.00442695,0.00050036,-0.00132985,-
 0.00571163,-0.09066073,-0.10537689,0.00750831,-0.01466222,-0.02539125,
 0.00001766,0.00001497,0.00000999,-0.00000899,0.00000065,-0.00001143,-0
 .00000233,-0.00000136,0.00000060,-0.00000470,-0.00000174,-0.00000348,0
 .00000127,0.00000409,-0.00000414,0.00000349,0.00000735,-0.00000252,-0.
 00000411,0.00002913,0.00002884,-0.00038514,-0.00040594,0.00015287,-0.0
 0061399,-0.00056916,0.00081662,-0.00021534,-0.00034073,-0.00038245,-0.
 00957323,0.09802691,-0.00005213,-0.00011920,0.00003746,-0.00008151,-0.
 00004381,-0.00011390,0.00004199,0.00002103,0.00001213,-0.00000818,-0.0
 0000285,-0.00000949,0.00000749,-0.00000379,0.00001619,0.00000227,0.000
 00517,0.00000036,0.00001112,-0.00000377,0.00002535,0.00039467,-0.00002
 577,-0.00042125,-0.00322799,0.00020395,-0.00009368,0.00016497,-0.00005
 312,0.00031741,-0.01133861,-0.00694402,-0.03005851,-0.00084131,-0.0016
 5544,0.00074720,-0.00702260,-0.10547057,-0.26209332,0.00478965,-0.0127
 4089,-0.00975367,-0.00003577,0.00002471,0.00001617,-0.00001615,-0.0000
 0122,-0.00000491,-0.00000569,-0.00000411,0.00000353,-0.00000711,-0.000
 00269,-0.00000551,-0.00000013,0.00000414,-0.00000556,-0.00000063,0.000
 00518,-0.00000303,-0.00004628,-0.00004606,0.00001256,0.00019033,0.0001
 5892,-0.00019907,0.00003231,0.00063020,-0.00029856,0.00009420,0.000031
 69,-0.00011726,0.01646047,0.12570297,0.30182468,0.00006605,-0.00023514
 ,0.00011852,-0.00012633,-0.00007088,-0.00006950,0.00003505,0.00002341,
 0.00001331,-0.00001058,-0.00000481,-0.00000911,0.00000449,-0.00000638,
 0.00002114,0.00000512,0.00000142,0.00000527,0.00001713,0.00000936,0.00
 003478,-0.00000729,-0.00004539,0.00024913,0.00008085,0.00020089,-0.000
 33268,0.00261061,0.00225651,-0.00103987,0.00141016,0.00395164,0.000076
 17,0.00033587,0.00045282,-0.00906473,-0.01885283,0.01725684,-0.0133638
 0,-0.16187600,0.05636027,-0.12351539,-0.00001218,0.00003607,0.00006213
 ,-0.00001337,-0.00000272,-0.00001486,-0.00000337,-0.00000405,0.0000012
 8,-0.00000680,-0.00000369,-0.00000622,0.00000215,0.00000470,-0.0000071
 1,0.00000605,0.00000720,-0.00000510,-0.00008217,-0.00012579,0.00004540
 ,-0.00008986,-0.00014340,0.00005284,-0.00033371,0.00000719,-0.00023848
 ,-0.00038824,-0.00081238,0.00045208,-0.00077535,-0.00039566,0.00049462
 ,0.17800434,0.00001908,-0.00000405,0.00010719,0.00004872,0.00004101,0.
 00007832,-0.00002595,-0.00001661,-0.00001131,0.00000578,-0.00000159,0.
 00000731,-0.00000558,-0.00000068,-0.00000897,0.00000126,-0.00000344,0.
 00000016,-0.00001069,-0.00000345,-0.00002066,-0.00076932,-0.00036595,-
 0.00003722,0.00036991,0.00039853,0.00006362,0.00246677,0.00148574,-0.0
 0275285,0.00377464,0.00035645,-0.00256296,-0.00605087,0.00647478,-0.00
 986789,0.02378803,-0.01147249,0.01332750,0.05632088,-0.06716155,0.0598
 8099,0.00001472,-0.00000876,0.00000413,0.00000629,0.00000927,-0.000004
 90,0.00000267,0.00000501,-0.00000354,0.00000369,0.00000236,0.00000394,
 -0.00000086,-0.00000174,0.00000269,0.00000056,-0.00000154,0.00000257,0
 .00008097,-0.00005486,-0.00004103,-0.00034566,0.00001050,-0.00011485,0
 .00023130,-0.00025107,0.00043473,-0.00087624,-0.00057593,-0.00002148,-
 0.00033183,-0.00094739,0.00032963,-0.07871797,0.07208735,-0.00005734,-
 0.00009019,-0.00004995,-0.00010133,-0.00007885,-0.00009596,0.00003289,
 0.00002857,0.00001950,-0.00000942,-0.00000006,-0.00000984,0.00000736,-
 0.00000132,0.00001690,0.00000092,0.00000279,0.00000270,0.00001931,0.00
 001285,0.00003744,0.00080661,0.00035654,0.00014478,-0.00045891,-0.0001
 1290,-0.00006982,-0.00048556,-0.00322207,-0.00193157,-0.00048964,-0.00
 203781,0.00052624,-0.02182376,0.00281630,-0.03145511,-0.00058698,0.000
 60095,0.00544512,-0.12354476,0.05992737,-0.16500129,-0.00001595,0.0000
 2356,0.00003519,-0.00000607,-0.00001452,-0.00000468,-0.00000317,-0.000
 00681,0.00000354,-0.00000622,-0.00000394,-0.00000656,0.00000225,0.0000
 0348,-0.00000551,0.00000353,0.00000286,-0.00000586,-0.00012238,0.00000
 460,0.00002891,-0.00033462,0.00027851,-0.00036200,0.00018525,-0.000003
 88,0.00015997,0.00031791,0.00010915,-0.00059406,0.00063018,0.00019967,
 0.00016458,0.14604011,-0.05879508,0.19300747\\-0.00000058,-0.00000203,
 0.00001986,-0.00000692,-0.00000177,0.00000247,0.00000921,0.00000281,0.
 00000629,-0.00000679,-0.00000159,-0.00000951,-0.00000600,-0.00000689,0
 .00000674,0.00000799,0.00000768,-0.00000200,-0.00000255,0.00000022,-0.
 00000595,0.00000058,-0.00000203,-0.00001986,0.00000692,-0.00000177,-0.
 00000247,-0.00000921,0.00000281,-0.00000629,0.00000255,0.00000022,0.00
 000595,0.00000679,-0.00000159,0.00000951,-0.00000799,0.00000768,0.0000
 0200,0.00000600,-0.00000689,-0.00000674,0.00000269,0.00000392,-0.00000
 120,-0.00000147,-0.00000105,0.00000035,-0.00000070,-0.00000195,0.00000
 093,-0.00000029,-0.00000032,-0.00000267,-0.00000127,-0.00000026,-0.000
 00051,0.00000210,0.00000123,-0.00000038,-0.00000269,0.00000392,0.00000
 120,0.00000147,-0.00000105,-0.00000035,-0.00000210,0.00000123,0.000000
 38,0.00000070,-0.00000195,-0.00000093,0.00000127,-0.00000026,0.0000005
 1,0.00000029,-0.00000032,0.00000267\\\@


 If your ship doesn't come in, swim out to it!
                          -- Jonathan Winters
 Job cpu time:       0 days  0 hours  0 minutes  2.5 seconds.
 File lengths (MBytes):  RWF=    132 Int=      0 D2E=      0 Chk=      3 Scr=      2
 Normal termination of Gaussian 09 at Tue Apr 12 01:36:25 2022.
