 Entering Gaussian System, Link 0=g09
 Input=/scratch/mverot/1-4-butanediol-open-opt/1-4-butanediol-open-opt.com
 Output=/scratch/mverot/1-4-butanediol-open-opt/1-4-butanediol-open-opt.log
 Initial command:
 /opt/g09/l1.exe "/scratch/mverot/1-4-butanediol-open-opt/Gau-1477652.inp" -scrdir="/scratch/mverot/1-4-butanediol-open-opt/"
 Entering Link 1 = /opt/g09/l1.exe PID=   1477654.
  
 Copyright (c) 1988,1990,1992,1993,1995,1998,2003,2009,2013,
            Gaussian, Inc.  All Rights Reserved.
  
 This is part of the Gaussian(R) 09 program.  It is based on
 the Gaussian(R) 03 system (copyright 2003, Gaussian, Inc.),
 the Gaussian(R) 98 system (copyright 1998, Gaussian, Inc.),
 the Gaussian(R) 94 system (copyright 1995, Gaussian, Inc.),
 the Gaussian 92(TM) system (copyright 1992, Gaussian, Inc.),
 the Gaussian 90(TM) system (copyright 1990, Gaussian, Inc.),
 the Gaussian 88(TM) system (copyright 1988, Gaussian, Inc.),
 the Gaussian 86(TM) system (copyright 1986, Carnegie Mellon
 University), and the Gaussian 82(TM) system (copyright 1983,
 Carnegie Mellon University). Gaussian is a federally registered
 trademark of Gaussian, Inc.
  
 This software contains proprietary and confidential information,
 including trade secrets, belonging to Gaussian, Inc.
  
 This software is provided under written license and may be
 used, copied, transmitted, or stored only in accord with that
 written license.
  
 The following legend is applicable only to US Government
 contracts under FAR:
  
                    RESTRICTED RIGHTS LEGEND
  
 Use, reproduction and disclosure by the US Government is
 subject to restrictions as set forth in subparagraphs (a)
 and (c) of the Commercial Computer Software - Restricted
 Rights clause in FAR 52.227-19.
  
 Gaussian, Inc.
 340 Quinnipiac St., Bldg. 40, Wallingford CT 06492
  
  
 ---------------------------------------------------------------
 Warning -- This program may not be used in any manner that
 competes with the business of Gaussian, Inc. or will provide
 assistance to any competitor of Gaussian, Inc.  The licensee
 of this program is prohibited from giving any competitor of
 Gaussian, Inc. access to this program.  By using this program,
 the user acknowledges that Gaussian, Inc. is engaged in the
 business of creating and licensing software in the field of
 computational chemistry and represents and warrants to the
 licensee that it is not a competitor of Gaussian, Inc. and that
 it will not use this program in any manner prohibited above.
 ---------------------------------------------------------------
  

 Cite this work as:
 Gaussian 09, Revision D.01,
 M. J. Frisch, G. W. Trucks, H. B. Schlegel, G. E. Scuseria, 
 M. A. Robb, J. R. Cheeseman, G. Scalmani, V. Barone, B. Mennucci, 
 G. A. Petersson, H. Nakatsuji, M. Caricato, X. Li, H. P. Hratchian, 
 A. F. Izmaylov, J. Bloino, G. Zheng, J. L. Sonnenberg, M. Hada, 
 M. Ehara, K. Toyota, R. Fukuda, J. Hasegawa, M. Ishida, T. Nakajima, 
 Y. Honda, O. Kitao, H. Nakai, T. Vreven, J. A. Montgomery, Jr., 
 J. E. Peralta, F. Ogliaro, M. Bearpark, J. J. Heyd, E. Brothers, 
 K. N. Kudin, V. N. Staroverov, T. Keith, R. Kobayashi, J. Normand, 
 K. Raghavachari, A. Rendell, J. C. Burant, S. S. Iyengar, J. Tomasi, 
 M. Cossi, N. Rega, J. M. Millam, M. Klene, J. E. Knox, J. B. Cross, 
 V. Bakken, C. Adamo, J. Jaramillo, R. Gomperts, R. E. Stratmann, 
 O. Yazyev, A. J. Austin, R. Cammi, C. Pomelli, J. W. Ochterski, 
 R. L. Martin, K. Morokuma, V. G. Zakrzewski, G. A. Voth, 
 P. Salvador, J. J. Dannenberg, S. Dapprich, A. D. Daniels, 
 O. Farkas, J. B. Foresman, J. V. Ortiz, J. Cioslowski, 
 and D. J. Fox, Gaussian, Inc., Wallingford CT, 2013.
 
 ******************************************
 Gaussian 09:  AM64L-G09RevD.01 24-Apr-2013
                17-Apr-2022 
 ******************************************
 %chk=1-4-butanediol-open-opt
 ---------------
 # hf/6-31G* opt
 ---------------
 1/18=20,19=15,38=1/1,3;
 2/9=110,12=2,17=6,18=5,40=1/2;
 3/5=1,6=6,7=1,11=9,16=1,25=1,30=1,71=1/1,2,3;
 4//1;
 5/5=2,38=5/2;
 6/7=2,8=2,9=2,10=2,28=1/1;
 7//1,2,3,16;
 1/18=20,19=15/3(2);
 2/9=110/2;
 99//99;
 2/9=110/2;
 3/5=1,6=6,7=1,11=9,16=1,25=1,30=1,71=1/1,2,3;
 4/5=5,16=3,69=1/1;
 5/5=2,38=5/2;
 7//1,2,3,16;
 1/18=20,19=15/3(-5);
 2/9=110/2;
 6/7=2,8=2,9=2,10=2,19=2,28=1/1;
 99/9=1/99;
 -------------------------
 Optimisation de geometrie
 -------------------------
 Symbolic Z-matrix:
 Charge =  0 Multiplicity = 1
 C                     1.86044   1.2563    1.75226 
 C                     1.19501   1.01015   3.10498 
 O                     0.61456  -0.28906   3.15807 
 C                     3.17259   0.4746    1.58556 
 C                     4.40977   1.31124   1.90304 
 O                     4.94461   1.81958   0.68742 
 H                     2.0354    2.33026   1.61933 
 H                     1.16754   0.93821   0.96397 
 H                     0.38356   1.72792   3.25625 
 H                     1.90135   1.11531   3.93431 
 H                     1.31089  -0.94627   3.01125 
 H                     3.23222   0.11378   0.55156 
 H                     3.1716   -0.40732   2.2338 
 H                     5.17359   0.68166   2.37058 
 H                     4.19425   2.15114   2.57076 
 H                     5.8891    1.9983    0.83809 
 

 GradGradGradGradGradGradGradGradGradGradGradGradGradGradGradGradGradGrad
 Berny optimization.
 Initialization pass.
                           ----------------------------
                           !    Initial Parameters    !
                           ! (Angstroms and Degrees)  !
 --------------------------                            --------------------------
 ! Name  Definition              Value          Derivative Info.                !
 --------------------------------------------------------------------------------
 ! R1    R(1,2)                  1.5275         estimate D2E/DX2                !
 ! R2    R(1,4)                  1.5364         estimate D2E/DX2                !
 ! R3    R(1,7)                  1.0962         estimate D2E/DX2                !
 ! R4    R(1,8)                  1.0967         estimate D2E/DX2                !
 ! R5    R(2,3)                  1.424          estimate D2E/DX2                !
 ! R6    R(2,9)                  1.0939         estimate D2E/DX2                !
 ! R7    R(2,10)                 1.0944         estimate D2E/DX2                !
 ! R8    R(3,11)                 0.9687         estimate D2E/DX2                !
 ! R9    R(4,5)                  1.5269         estimate D2E/DX2                !
 ! R10   R(4,12)                 1.0968         estimate D2E/DX2                !
 ! R11   R(4,13)                 1.0945         estimate D2E/DX2                !
 ! R12   R(5,6)                  1.422          estimate D2E/DX2                !
 ! R13   R(5,14)                 1.0947         estimate D2E/DX2                !
 ! R14   R(5,15)                 1.0944         estimate D2E/DX2                !
 ! R15   R(6,16)                 0.973          estimate D2E/DX2                !
 ! A1    A(2,1,4)              112.7147         estimate D2E/DX2                !
 ! A2    A(2,1,7)              109.56           estimate D2E/DX2                !
 ! A3    A(2,1,8)              108.3351         estimate D2E/DX2                !
 ! A4    A(4,1,7)              110.4256         estimate D2E/DX2                !
 ! A5    A(4,1,8)              108.3025         estimate D2E/DX2                !
 ! A6    A(7,1,8)              107.3279         estimate D2E/DX2                !
 ! A7    A(1,2,3)              110.9542         estimate D2E/DX2                !
 ! A8    A(1,2,9)              109.8702         estimate D2E/DX2                !
 ! A9    A(1,2,10)             111.9892         estimate D2E/DX2                !
 ! A10   A(3,2,9)              106.9266         estimate D2E/DX2                !
 ! A11   A(3,2,10)             108.8141         estimate D2E/DX2                !
 ! A12   A(9,2,10)             108.1152         estimate D2E/DX2                !
 ! A13   A(2,3,11)             108.6836         estimate D2E/DX2                !
 ! A14   A(1,4,5)              112.995          estimate D2E/DX2                !
 ! A15   A(1,4,12)             108.4274         estimate D2E/DX2                !
 ! A16   A(1,4,13)             110.1769         estimate D2E/DX2                !
 ! A17   A(5,4,12)             109.4046         estimate D2E/DX2                !
 ! A18   A(5,4,13)             108.6079         estimate D2E/DX2                !
 ! A19   A(12,4,13)            107.0573         estimate D2E/DX2                !
 ! A20   A(4,5,6)              108.8369         estimate D2E/DX2                !
 ! A21   A(4,5,14)             109.8178         estimate D2E/DX2                !
 ! A22   A(4,5,15)             112.8183         estimate D2E/DX2                !
 ! A23   A(6,5,14)             107.9543         estimate D2E/DX2                !
 ! A24   A(6,5,15)             108.7404         estimate D2E/DX2                !
 ! A25   A(14,5,15)            108.5538         estimate D2E/DX2                !
 ! A26   A(5,6,16)             107.3602         estimate D2E/DX2                !
 ! D1    D(4,1,2,3)            -73.1206         estimate D2E/DX2                !
 ! D2    D(4,1,2,9)            168.8516         estimate D2E/DX2                !
 ! D3    D(4,1,2,10)            48.6869         estimate D2E/DX2                !
 ! D4    D(7,1,2,3)            163.4962         estimate D2E/DX2                !
 ! D5    D(7,1,2,9)             45.4684         estimate D2E/DX2                !
 ! D6    D(7,1,2,10)           -74.6963         estimate D2E/DX2                !
 ! D7    D(8,1,2,3)             46.7057         estimate D2E/DX2                !
 ! D8    D(8,1,2,9)            -71.3222         estimate D2E/DX2                !
 ! D9    D(8,1,2,10)           168.5132         estimate D2E/DX2                !
 ! D10   D(2,1,4,5)            -97.1911         estimate D2E/DX2                !
 ! D11   D(2,1,4,12)           141.3546         estimate D2E/DX2                !
 ! D12   D(2,1,4,13)            24.4934         estimate D2E/DX2                !
 ! D13   D(7,1,4,5)             25.7098         estimate D2E/DX2                !
 ! D14   D(7,1,4,12)           -95.7445         estimate D2E/DX2                !
 ! D15   D(7,1,4,13)           147.3942         estimate D2E/DX2                !
 ! D16   D(8,1,4,5)            142.9638         estimate D2E/DX2                !
 ! D17   D(8,1,4,12)            21.5095         estimate D2E/DX2                !
 ! D18   D(8,1,4,13)           -95.3517         estimate D2E/DX2                !
 ! D19   D(1,2,3,11)            59.2282         estimate D2E/DX2                !
 ! D20   D(9,2,3,11)           179.0289         estimate D2E/DX2                !
 ! D21   D(10,2,3,11)          -64.4171         estimate D2E/DX2                !
 ! D22   D(1,4,5,6)            -96.985          estimate D2E/DX2                !
 ! D23   D(1,4,5,14)           145.0361         estimate D2E/DX2                !
 ! D24   D(1,4,5,15)            23.8            estimate D2E/DX2                !
 ! D25   D(12,4,5,6)            23.9158         estimate D2E/DX2                !
 ! D26   D(12,4,5,14)          -94.0631         estimate D2E/DX2                !
 ! D27   D(12,4,5,15)          144.7008         estimate D2E/DX2                !
 ! D28   D(13,4,5,6)           140.4509         estimate D2E/DX2                !
 ! D29   D(13,4,5,14)           22.472          estimate D2E/DX2                !
 ! D30   D(13,4,5,15)          -98.7641         estimate D2E/DX2                !
 ! D31   D(4,5,6,16)          -155.6603         estimate D2E/DX2                !
 ! D32   D(14,5,6,16)          -36.5104         estimate D2E/DX2                !
 ! D33   D(15,5,6,16)           81.0799         estimate D2E/DX2                !
 --------------------------------------------------------------------------------
 Trust Radius=3.00D-01 FncErr=1.00D-07 GrdErr=1.00D-07
 Number of steps in this run=     84 maximum allowed number of steps=    100.
 GradGradGradGradGradGradGradGradGradGradGradGradGradGradGradGradGradGrad

                          Input orientation:                          
 ---------------------------------------------------------------------
 Center     Atomic      Atomic             Coordinates (Angstroms)
 Number     Number       Type             X           Y           Z
 ---------------------------------------------------------------------
      1          6           0        1.860440    1.256300    1.752260
      2          6           0        1.195010    1.010150    3.104980
      3          8           0        0.614560   -0.289060    3.158070
      4          6           0        3.172590    0.474600    1.585560
      5          6           0        4.409770    1.311240    1.903040
      6          8           0        4.944610    1.819580    0.687420
      7          1           0        2.035400    2.330260    1.619330
      8          1           0        1.167540    0.938210    0.963970
      9          1           0        0.383560    1.727920    3.256250
     10          1           0        1.901350    1.115310    3.934310
     11          1           0        1.310890   -0.946270    3.011250
     12          1           0        3.232220    0.113780    0.551560
     13          1           0        3.171600   -0.407320    2.233800
     14          1           0        5.173590    0.681660    2.370580
     15          1           0        4.194250    2.151140    2.570760
     16          1           0        5.889100    1.998300    0.838090
 ---------------------------------------------------------------------
                    Distance matrix (angstroms):
                    1          2          3          4          5
     1  C    0.000000
     2  C    1.527494   0.000000
     3  O    2.432418   1.423969   0.000000
     4  C    1.536418   2.550740   3.098303   0.000000
     5  C    2.554376   3.445286   4.305773   1.526884   0.000000
     6  O    3.311083   4.534234   5.412930   2.399100   1.422039
     7  H    1.096208   2.157800   3.353706   2.176652   2.599332
     8  H    1.096674   2.142394   2.574112   2.149775   3.396036
     9  H    2.159997   1.093859   2.032537   3.484351   4.267923
    10  H    2.186983   1.094424   2.056850   2.746486   3.233669
    11  H    2.595838   1.962089   0.968688   2.741786   3.990932
    12  H    2.151468   3.387279   3.715955   1.096769   2.155698
    13  H    2.172246   2.583618   2.721528   1.094531   2.143809
    14  H    3.418990   4.059107   4.727282   2.159428   1.094708
    15  H    2.630086   3.253105   4.371921   2.196633   1.094409
    16  H    4.197186   5.305630   6.199604   3.203092   1.947970
                    6          7          8          9         10
     6  O    0.000000
     7  H    3.097217   0.000000
     8  H    3.888387   1.766488   0.000000
     9  H    5.235501   2.402269   2.548100   0.000000
    10  H    4.505521   2.617863   3.064761   1.771650   0.000000
    11  H    5.123869   3.632906   2.786246   2.840996   2.334694
    12  H    2.420845   2.735927   2.261121   4.246841   3.770580
    13  H    3.239435   3.027023   2.727485   3.657570   2.612216
    14  H    2.044583   3.623602   4.253564   4.982315   3.652514
    15  H    2.054250   2.365996   3.635099   3.894916   2.861748
    16  H    0.972987   3.946079   4.840740   6.019267   5.125271
                   11         12         13         14         15
    11  H    0.000000
    12  H    3.296254   0.000000
    13  H    2.087376   1.762144   0.000000
    14  H    4.240409   2.720338   2.283101   0.000000
    15  H    4.254615   3.025476   2.775801   1.777231   0.000000
    16  H    5.861154   3.269943   3.888421   2.143367   2.428584
                   16
    16  H    0.000000
 Stoichiometry    C4H10O2
 Framework group  C1[X(C4H10O2)]
 Deg. of freedom    42
 Full point group                 C1      NOp   1
 Largest Abelian subgroup         C1      NOp   1
 Largest concise Abelian subgroup C1      NOp   1
                         Standard orientation:                         
 ---------------------------------------------------------------------
 Center     Atomic      Atomic             Coordinates (Angstroms)
 Number     Number       Type             X           Y           Z
 ---------------------------------------------------------------------
      1          6           0       -0.539818    0.674504   -0.461990
      2          6           0       -1.748685    0.491729    0.453692
      3          8           0       -2.640163   -0.487805   -0.069248
      4          6           0        0.441218   -0.505865   -0.392125
      5          6           0        1.614012   -0.251647    0.551961
      6          8           0        2.727196    0.198891   -0.209638
      7          1           0       -0.028960    1.611811   -0.212690
      8          1           0       -0.899233    0.762958   -1.494312
      9          1           0       -2.309072    1.428719    0.521112
     10          1           0       -1.455128    0.197198    1.466036
     11          1           0       -2.163872   -1.327021   -0.154221
     12          1           0        0.822006   -0.700429   -1.402099
     13          1           0       -0.080078   -1.411204   -0.065613
     14          1           0        1.900001   -1.184592    1.048157
     15          1           0        1.387240    0.495379    1.318941
     16          1           0        3.530465   -0.013833    0.296537
 ---------------------------------------------------------------------
 Rotational constants (GHZ):     10.3552615      1.4151203      1.3884146
 Standard basis: 6-31G(d) (6D, 7F)
 There are   110 symmetry adapted cartesian basis functions of A   symmetry.
 There are   110 symmetry adapted basis functions of A   symmetry.
   110 basis functions,   208 primitive gaussians,   110 cartesian basis functions
    25 alpha electrons       25 beta electrons
       nuclear repulsion energy       251.0899883925 Hartrees.
 NAtoms=   16 NActive=   16 NUniq=   16 SFac= 1.00D+00 NAtFMM=   60 NAOKFM=F Big=F
 Integral buffers will be    131072 words long.
 Raffenetti 1 integral format.
 Two-electron integral symmetry is turned on.
 One-electron integrals computed using PRISM.
 NBasis=   110 RedAO= T EigKep=  4.63D-03  NBF=   110
 NBsUse=   110 1.00D-06 EigRej= -1.00D+00 NBFU=   110
 ExpMin= 1.61D-01 ExpMax= 5.48D+03 ExpMxC= 8.25D+02 IAcc=1 IRadAn=         1 AccDes= 0.00D+00
 Harris functional with IExCor=  205 and IRadAn=       1 diagonalized for initial guess.
 HarFok:  IExCor=  205 AccDes= 0.00D+00 IRadAn=         1 IDoV= 1 UseB2=F ITyADJ=14
 ICtDFT=  3500011 ScaDFX=  1.000000  1.000000  1.000000  1.000000
 FoFCou: FMM=F IPFlag=           0 FMFlag=      100000 FMFlg1=           0
         NFxFlg=           0 DoJE=T BraDBF=F KetDBF=T FulRan=T
         wScrn=  0.000000 ICntrl=     500 IOpCl=  0 I1Cent=   200000004 NGrid=           0
         NMat0=    1 NMatS0=      1 NMatT0=    0 NMatD0=    1 NMtDS0=    0 NMtDT0=    0
 Petite list used in FoFCou.
 Keep R1 ints in memory in canonical form, NReq=19586239.
 Requested convergence on RMS density matrix=1.00D-08 within 128 cycles.
 Requested convergence on MAX density matrix=1.00D-06.
 Requested convergence on             energy=1.00D-06.
 No special actions if energy rises.
 SCF Done:  E(RHF) =  -306.978120245     A.U. after   12 cycles
            NFock= 12  Conv=0.50D-08     -V/T= 2.0020

 **********************************************************************

            Population analysis using the SCF density.

 **********************************************************************

 Orbital symmetries:
       Occupied  (A) (A) (A) (A) (A) (A) (A) (A) (A) (A) (A) (A)
                 (A) (A) (A) (A) (A) (A) (A) (A) (A) (A) (A) (A)
                 (A)
       Virtual   (A) (A) (A) (A) (A) (A) (A) (A) (A) (A) (A) (A)
                 (A) (A) (A) (A) (A) (A) (A) (A) (A) (A) (A) (A)
                 (A) (A) (A) (A) (A) (A) (A) (A) (A) (A) (A) (A)
                 (A) (A) (A) (A) (A) (A) (A) (A) (A) (A) (A) (A)
                 (A) (A) (A) (A) (A) (A) (A) (A) (A) (A) (A) (A)
                 (A) (A) (A) (A) (A) (A) (A) (A) (A) (A) (A) (A)
                 (A) (A) (A) (A) (A) (A) (A) (A) (A) (A) (A) (A)
                 (A)
 The electronic state is 1-A.
 Alpha  occ. eigenvalues --  -20.56006 -20.55443 -11.27980 -11.27269 -11.22773
 Alpha  occ. eigenvalues --  -11.22073  -1.35461  -1.34875  -1.06832  -0.96472
 Alpha  occ. eigenvalues --   -0.86664  -0.79285  -0.70499  -0.68185  -0.64321
 Alpha  occ. eigenvalues --   -0.62415  -0.59243  -0.58077  -0.53844  -0.52689
 Alpha  occ. eigenvalues --   -0.50369  -0.47954  -0.45586  -0.43999  -0.43186
 Alpha virt. eigenvalues --    0.20365   0.22872   0.24917   0.27018   0.28144
 Alpha virt. eigenvalues --    0.29554   0.31667   0.33454   0.34754   0.36215
 Alpha virt. eigenvalues --    0.38074   0.40441   0.43664   0.46855   0.48810
 Alpha virt. eigenvalues --    0.72846   0.73836   0.75846   0.79969   0.81498
 Alpha virt. eigenvalues --    0.85883   0.87648   0.91072   0.93471   0.98004
 Alpha virt. eigenvalues --    1.02352   1.05530   1.07320   1.11259   1.11775
 Alpha virt. eigenvalues --    1.13358   1.14838   1.15815   1.16072   1.18817
 Alpha virt. eigenvalues --    1.20647   1.22567   1.23127   1.25349   1.26612
 Alpha virt. eigenvalues --    1.30154   1.35104   1.38907   1.43490   1.55531
 Alpha virt. eigenvalues --    1.63445   1.66027   1.72821   1.78973   1.86810
 Alpha virt. eigenvalues --    1.88811   1.94668   1.99890   2.03061   2.06579
 Alpha virt. eigenvalues --    2.13791   2.16035   2.17113   2.24828   2.29579
 Alpha virt. eigenvalues --    2.34670   2.37983   2.42124   2.46760   2.52349
 Alpha virt. eigenvalues --    2.58043   2.61566   2.66130   2.69333   2.72899
 Alpha virt. eigenvalues --    2.76975   2.82728   2.86179   2.89204   2.95537
 Alpha virt. eigenvalues --    3.01397   3.07311   3.19433   3.21744   4.15809
 Alpha virt. eigenvalues --    4.19524   4.56383   4.69805   4.89218   4.97796
          Condensed to atoms (all electrons):
               1          2          3          4          5          6
     1  C    5.184153   0.344861  -0.053623   0.308268  -0.041709   0.002007
     2  C    0.344861   4.780152   0.214772  -0.044678  -0.000854   0.000032
     3  O   -0.053623   0.214772   8.399940  -0.001698   0.000145  -0.000000
     4  C    0.308268  -0.044678  -0.001698   5.190677   0.330904  -0.057396
     5  C   -0.041709  -0.000854   0.000145   0.330904   4.787319   0.209783
     6  O    0.002007   0.000032  -0.000000  -0.057396   0.209783   8.406372
     7  H    0.386118  -0.035817   0.003159  -0.041060  -0.007202   0.001273
     8  H    0.399294  -0.038388   0.001248  -0.044315   0.004022  -0.000139
     9  H   -0.043609   0.408050  -0.034148   0.004670  -0.000096  -0.000000
    10  H   -0.051516   0.395988  -0.041173  -0.007111   0.001344   0.000003
    11  H   -0.005626  -0.027395   0.257839   0.003399   0.000023   0.000001
    12  H   -0.035532   0.003460  -0.000076   0.398688  -0.034401   0.001471
    13  H   -0.049642  -0.006787   0.002560   0.387811  -0.038833   0.002629
    14  H    0.003996   0.000016  -0.000000  -0.043325   0.403964  -0.037843
    15  H   -0.004872   0.000033  -0.000004  -0.051233   0.402463  -0.042733
    16  H   -0.000225   0.000000   0.000000   0.006259  -0.025046   0.259469
               7          8          9         10         11         12
     1  C    0.386118   0.399294  -0.043609  -0.051516  -0.005626  -0.035532
     2  C   -0.035817  -0.038388   0.408050   0.395988  -0.027395   0.003460
     3  O    0.003159   0.001248  -0.034148  -0.041173   0.257839  -0.000076
     4  C   -0.041060  -0.044315   0.004670  -0.007111   0.003399   0.398688
     5  C   -0.007202   0.004022  -0.000096   0.001344   0.000023  -0.034401
     6  O    0.001273  -0.000139  -0.000000   0.000003   0.000001   0.001471
     7  H    0.539414  -0.023236  -0.001814   0.001896  -0.000017   0.000848
     8  H   -0.023236   0.523114  -0.003056   0.004730  -0.000066  -0.005774
     9  H   -0.001814  -0.003056   0.527746  -0.036474   0.005064  -0.000090
    10  H    0.001896   0.004730  -0.036474   0.597622  -0.003349  -0.000003
    11  H   -0.000017  -0.000066   0.005064  -0.003349   0.327320  -0.000228
    12  H    0.000848  -0.005774  -0.000090  -0.000003  -0.000228   0.491222
    13  H    0.004178   0.001285   0.000234   0.000602   0.005378  -0.025473
    14  H    0.000370  -0.000134   0.000004  -0.000121  -0.000020   0.000706
    15  H    0.000433   0.000203  -0.000040   0.000817   0.000015   0.003487
    16  H   -0.000077   0.000009  -0.000000   0.000001  -0.000000   0.000097
              13         14         15         16
     1  C   -0.049642   0.003996  -0.004872  -0.000225
     2  C   -0.006787   0.000016   0.000033   0.000000
     3  O    0.002560  -0.000000  -0.000004   0.000000
     4  C    0.387811  -0.043325  -0.051233   0.006259
     5  C   -0.038833   0.403964   0.402463  -0.025046
     6  O    0.002629  -0.037843  -0.042733   0.259469
     7  H    0.004178   0.000370   0.000433  -0.000077
     8  H    0.001285  -0.000134   0.000203   0.000009
     9  H    0.000234   0.000004  -0.000040  -0.000000
    10  H    0.000602  -0.000121   0.000817   0.000001
    11  H    0.005378  -0.000020   0.000015  -0.000000
    12  H   -0.025473   0.000706   0.003487   0.000097
    13  H    0.583251  -0.004540   0.003026  -0.000250
    14  H   -0.004540   0.589011  -0.043269  -0.007971
    15  H    0.003026  -0.043269   0.582683   0.000171
    16  H   -0.000250  -0.007971   0.000171   0.331076
 Mulliken charges:
               1
     1  C   -0.342343
     2  C    0.006555
     3  O   -0.748943
     4  C   -0.339860
     5  C    0.008174
     6  O   -0.744926
     7  H    0.171536
     8  H    0.181203
     9  H    0.173561
    10  H    0.136746
    11  H    0.437662
    12  H    0.201598
    13  H    0.134571
    14  H    0.139157
    15  H    0.148822
    16  H    0.436487
 Sum of Mulliken charges =  -0.00000
 Mulliken charges with hydrogens summed into heavy atoms:
               1
     1  C    0.010396
     2  C    0.316862
     3  O   -0.311281
     4  C   -0.003690
     5  C    0.296153
     6  O   -0.308440
 Electronic spatial extent (au):  <R**2>=            868.1935
 Charge=              0.0000 electrons
 Dipole moment (field-independent basis, Debye):
    X=              2.0596    Y=             -1.0276    Z=              1.8184  Tot=              2.9333
 Quadrupole moment (field-independent basis, Debye-Ang):
   XX=            -44.4640   YY=            -35.6432   ZZ=            -38.0292
   XY=             -2.7560   XZ=              3.9740   YZ=              0.5910
 Traceless Quadrupole moment (field-independent basis, Debye-Ang):
   XX=             -5.0852   YY=              3.7356   ZZ=              1.3495
   XY=             -2.7560   XZ=              3.9740   YZ=              0.5910
 Octapole moment (field-independent basis, Debye-Ang**2):
  XXX=             59.5107  YYY=             -5.5300  ZZZ=             -1.4854  XYY=             -6.7262
  XXY=             -3.5377  XXZ=             16.4696  XZZ=              1.1483  YZZ=             -0.7338
  YYZ=              0.2915  XYZ=             -0.7668
 Hexadecapole moment (field-independent basis, Debye-Ang**3):
 XXXX=           -799.1944 YYYY=           -115.2779 ZZZZ=           -105.0423 XXXY=            -26.6007
 XXXZ=             41.8053 YYYX=             14.0656 YYYZ=              1.4264 ZZZX=              0.6172
 ZZZY=              0.6827 XXYY=           -146.7198 XXZZ=           -156.1555 YYZZ=            -38.8792
 XXYZ=              2.8793 YYXZ=              1.8962 ZZXY=              1.7446
 N-N= 2.510899883925D+02 E-N=-1.223085902888D+03  KE= 3.063797106119D+02
 Calling FoFJK, ICntrl=      2127 FMM=F ISym2X=0 I1Cent= 0 IOpClX= 0 NMat=1 NMatS=1 NMatT=0.
 ***** Axes restored to original set *****
 -------------------------------------------------------------------
 Center     Atomic                   Forces (Hartrees/Bohr)
 Number     Number              X              Y              Z
 -------------------------------------------------------------------
      1        6          -0.005145262    0.000697481   -0.004075614
      2        6          -0.008242812   -0.007974818   -0.000823645
      3        8           0.018192824   -0.002870507   -0.002262049
      4        6          -0.003425790    0.001963009   -0.003893375
      5        6           0.016746507   -0.002813815   -0.009556858
      6        8           0.023571561    0.002552259    0.011982333
      7        1           0.000014608   -0.007195876   -0.000832246
      8        1           0.000955648    0.005299191    0.008634577
      9        1           0.004457819   -0.008565393    0.000652857
     10        1          -0.001543460    0.003585555   -0.004500159
     11        1          -0.017713526    0.015539705    0.004472915
     12        1           0.006622040    0.002336781    0.010312862
     13        1          -0.000321002    0.003187569   -0.004126220
     14        1          -0.005209392    0.003743841    0.001234310
     15        1          -0.001547286   -0.007678425   -0.000184643
     16        1          -0.027412476   -0.001806557   -0.007035045
 -------------------------------------------------------------------
 Cartesian Forces:  Max     0.027412476 RMS     0.008645731

 GradGradGradGradGradGradGradGradGradGradGradGradGradGradGradGradGradGrad
 Berny optimization.
 FormGI is forming the generalized inverse of G from B-inverse, IUseBI=4.
 Internal  Forces:  Max     0.028030845 RMS     0.005871133
 Search for a local minimum.
 Step number   1 out of a maximum of   84
 All quantities printed in internal units (Hartrees-Bohrs-Radians)
 Mixed Optimization -- RFO/linear search
 Second derivative matrix not updated -- first step.
 ITU=  0
     Eigenvalues ---    0.00284   0.00402   0.00410   0.01375   0.01400
     Eigenvalues ---    0.03505   0.03524   0.04828   0.04851   0.04960
     Eigenvalues ---    0.05175   0.05694   0.05697   0.08308   0.08364
     Eigenvalues ---    0.11438   0.11629   0.12193   0.12227   0.13715
     Eigenvalues ---    0.13869   0.16000   0.16000   0.21934   0.21941
     Eigenvalues ---    0.21995   0.22021   0.28839   0.29656   0.29713
     Eigenvalues ---    0.34042   0.34053   0.34105   0.34274   0.34294
     Eigenvalues ---    0.34306   0.34308   0.34370   0.41868   0.42155
     Eigenvalues ---    0.52771   0.53646
 RFO step:  Lambda=-1.03223857D-02 EMin= 2.84202242D-03
 Linear search not attempted -- first point.
 Iteration  1 RMS(Cart)=  0.09301343 RMS(Int)=  0.00411699
 Iteration  2 RMS(Cart)=  0.00626594 RMS(Int)=  0.00035547
 Iteration  3 RMS(Cart)=  0.00002226 RMS(Int)=  0.00035510
 Iteration  4 RMS(Cart)=  0.00000000 RMS(Int)=  0.00035510
 Variable       Old X    -DE/DX   Delta X   Delta X   Delta X     New X
                                 (Linear)    (Quad)   (Total)
    R1        2.88655  -0.00002   0.00000  -0.00007  -0.00007   2.88648
    R2        2.90341   0.00709   0.00000   0.02373   0.02373   2.92714
    R3        2.07153  -0.00695   0.00000  -0.01977  -0.01977   2.05176
    R4        2.07241  -0.00835   0.00000  -0.02379  -0.02379   2.04862
    R5        2.69091  -0.01167   0.00000  -0.02721  -0.02721   2.66370
    R6        2.06709  -0.00884   0.00000  -0.02496  -0.02496   2.04213
    R7        2.06816  -0.00406   0.00000  -0.01149  -0.01149   2.05667
    R8        1.83056  -0.02395   0.00000  -0.04381  -0.04381   1.78675
    R9        2.88539   0.00095   0.00000   0.00310   0.00310   2.88849
   R10        2.07259  -0.01013   0.00000  -0.02889  -0.02889   2.04371
   R11        2.06836  -0.00501   0.00000  -0.01419  -0.01419   2.05418
   R12        2.68726  -0.00541   0.00000  -0.01252  -0.01252   2.67474
   R13        2.06870  -0.00526   0.00000  -0.01490  -0.01490   2.05380
   R14        2.06813  -0.00570   0.00000  -0.01613  -0.01613   2.05200
   R15        1.83868  -0.02803   0.00000  -0.05210  -0.05210   1.78658
    A1        1.96724   0.00698   0.00000   0.03491   0.03459   2.00184
    A2        1.91218  -0.00117   0.00000  -0.01269  -0.01257   1.89961
    A3        1.89080  -0.00474   0.00000  -0.02087  -0.02221   1.86859
    A4        1.92729  -0.00423   0.00000  -0.02935  -0.02890   1.89839
    A5        1.89023   0.00254   0.00000   0.04107   0.04106   1.93130
    A6        1.87323   0.00035   0.00000  -0.01461  -0.01459   1.85864
    A7        1.93652   0.00889   0.00000   0.04277   0.04260   1.97912
    A8        1.91760   0.00144   0.00000   0.00683   0.00703   1.92463
    A9        1.95458  -0.00515   0.00000  -0.02262  -0.02320   1.93138
   A10        1.86622  -0.00644   0.00000  -0.04297  -0.04289   1.82333
   A11        1.89916   0.00068   0.00000   0.02625   0.02616   1.92533
   A12        1.88697   0.00029   0.00000  -0.01247  -0.01243   1.87454
   A13        1.89689   0.00171   0.00000   0.01001   0.01001   1.90690
   A14        1.97213   0.00512   0.00000   0.02654   0.02653   1.99867
   A15        1.89242   0.00248   0.00000   0.02848   0.02891   1.92133
   A16        1.92295  -0.00114   0.00000   0.00719   0.00713   1.93008
   A17        1.90947  -0.00560   0.00000  -0.04516  -0.04556   1.86392
   A18        1.89557  -0.00120   0.00000  -0.00537  -0.00586   1.88971
   A19        1.86850   0.00004   0.00000  -0.01440  -0.01506   1.85344
   A20        1.89956  -0.00146   0.00000  -0.00080  -0.00141   1.89815
   A21        1.91668   0.00189   0.00000   0.01874   0.01807   1.93475
   A22        1.96905  -0.00531   0.00000  -0.05391  -0.05416   1.91489
   A23        1.88416   0.00361   0.00000   0.05247   0.05186   1.93602
   A24        1.89788   0.00253   0.00000   0.00681   0.00622   1.90410
   A25        1.89462  -0.00085   0.00000  -0.01862  -0.01894   1.87568
   A26        1.87379   0.00659   0.00000   0.03870   0.03870   1.91249
    D1       -1.27619  -0.00345   0.00000  -0.03688  -0.03661  -1.31281
    D2        2.94702  -0.00186   0.00000  -0.01436  -0.01422   2.93279
    D3        0.84975   0.00016   0.00000   0.01149   0.01156   0.86130
    D4        2.85355  -0.00203   0.00000  -0.01414  -0.01388   2.83966
    D5        0.79357  -0.00044   0.00000   0.00838   0.00851   0.80208
    D6       -1.30370   0.00158   0.00000   0.03424   0.03429  -1.26941
    D7        0.81517   0.00088   0.00000   0.02212   0.02193   0.83710
    D8       -1.24481   0.00246   0.00000   0.04464   0.04432  -1.20049
    D9        2.94111   0.00449   0.00000   0.07049   0.07010   3.01121
   D10       -1.69631  -0.00023   0.00000   0.06935   0.06988  -1.62643
   D11        2.46710   0.00180   0.00000   0.08930   0.08962   2.55672
   D12        0.42749   0.00095   0.00000   0.08606   0.08659   0.51408
   D13        0.44872   0.00012   0.00000   0.05610   0.05623   0.50495
   D14       -1.67106   0.00214   0.00000   0.07605   0.07597  -1.59509
   D15        2.57251   0.00129   0.00000   0.07281   0.07294   2.64545
   D16        2.49519  -0.00035   0.00000   0.04612   0.04568   2.54086
   D17        0.37541   0.00168   0.00000   0.06607   0.06542   0.44083
   D18       -1.66420   0.00083   0.00000   0.06284   0.06239  -1.60181
   D19        1.03373  -0.00054   0.00000   0.02239   0.02319   1.05692
   D20        3.12464   0.00231   0.00000   0.02861   0.02845  -3.13010
   D21       -1.12429  -0.00043   0.00000   0.00447   0.00383  -1.12046
   D22       -1.69271   0.00265   0.00000   0.11662   0.11672  -1.57599
   D23        2.53136  -0.00195   0.00000   0.04279   0.04292   2.57428
   D24        0.41539   0.00139   0.00000   0.08975   0.09003   0.50542
   D25        0.41741   0.00525   0.00000   0.13867   0.13821   0.55562
   D26       -1.64171   0.00066   0.00000   0.06484   0.06442  -1.57729
   D27        2.52551   0.00400   0.00000   0.11180   0.11152   2.63703
   D28        2.45133   0.00153   0.00000   0.09350   0.09364   2.54498
   D29        0.39221  -0.00306   0.00000   0.01967   0.01985   0.41206
   D30       -1.72376   0.00028   0.00000   0.06663   0.06696  -1.65680
   D31       -2.71678  -0.00451   0.00000  -0.09515  -0.09558  -2.81236
   D32       -0.63723  -0.00100   0.00000  -0.04321  -0.04299  -0.68022
   D33        1.41511   0.00135   0.00000  -0.03264  -0.03243   1.38268
         Item               Value     Threshold  Converged?
 Maximum Force            0.028031     0.000450     NO 
 RMS     Force            0.005871     0.000300     NO 
 Maximum Displacement     0.333394     0.001800     NO 
 RMS     Displacement     0.093294     0.001200     NO 
 Predicted change in Energy=-6.048172D-03
 GradGradGradGradGradGradGradGradGradGradGradGradGradGradGradGradGradGrad

                          Input orientation:                          
 ---------------------------------------------------------------------
 Center     Atomic      Atomic             Coordinates (Angstroms)
 Number     Number       Type             X           Y           Z
 ---------------------------------------------------------------------
      1          6           0        1.866800    1.215091    1.727726
      2          6           0        1.195911    1.026982    3.087011
      3          8           0        0.568629   -0.226869    3.232837
      4          6           0        3.199916    0.446155    1.552027
      5          6           0        4.449071    1.253862    1.903606
      6          8           0        4.904893    1.917016    0.739196
      7          1           0        2.050772    2.273601    1.571024
      8          1           0        1.148696    0.912649    0.974008
      9          1           0        0.397745    1.744499    3.213127
     10          1           0        1.909246    1.188586    3.892941
     11          1           0        1.215000   -0.911161    3.143790
     12          1           0        3.312477    0.127957    0.524561
     13          1           0        3.200192   -0.460360    2.151903
     14          1           0        5.223685    0.610214    2.312110
     15          1           0        4.206226    1.992856    2.661256
     16          1           0        5.807221    2.174724    0.854108
 ---------------------------------------------------------------------
                    Distance matrix (angstroms):
                    1          2          3          4          5
     1  C    0.000000
     2  C    1.527459   0.000000
     3  O    2.455576   1.409571   0.000000
     4  C    1.548977   2.590284   3.194018   0.000000
     5  C    2.588544   3.469146   4.360877   1.528524   0.000000
     6  O    3.271069   4.478944   5.442211   2.393965   1.415414
     7  H    1.085746   2.140808   3.348241   2.158808   2.627227
     8  H    1.084083   2.116620   2.595628   2.181566   3.445730
     9  H    2.155183   1.080650   1.978859   3.506724   4.285885
    10  H    2.165794   1.088341   2.058277   2.774331   3.226829
    11  H    2.636480   1.939069   0.945505   2.883732   4.084679
    12  H    2.172429   3.443000   3.871609   1.081484   2.112172
    13  H    2.182887   2.665287   2.854481   1.087024   2.135393
    14  H    3.460643   4.122757   4.818505   2.168013   1.086823
    15  H    2.636155   3.190012   4.299535   2.152982   1.085873
    16  H    4.148616   5.250461   6.234488   3.205165   1.947820
                    6          7          8          9         10
     6  O    0.000000
     7  H    2.994177   0.000000
     8  H    3.895241   1.738493   0.000000
     9  H    5.144363   2.389340   2.503908   0.000000
    10  H    4.410285   2.566825   3.028985   1.748091   0.000000
    11  H    5.234115   3.648948   2.835248   2.779432   2.334982
    12  H    2.404701   2.700143   2.345143   4.282202   3.799997
    13  H    3.248639   3.022107   2.735184   3.720391   2.723376
    14  H    2.069642   3.658339   4.299712   5.038663   3.717397
    15  H    2.046509   2.431750   3.655427   3.856264   2.727640
    16  H    0.945418   3.825527   4.827946   5.917135   5.039959
                   11         12         13         14         15
    11  H    0.000000
    12  H    3.512768   0.000000
    13  H    2.264520   1.734061   0.000000
    14  H    4.367588   2.660943   2.294845   0.000000
    15  H    4.196855   2.973567   2.699965   1.751806   0.000000
    16  H    5.987807   3.243702   3.927409   2.216750   2.421166
                   16
    16  H    0.000000
 Stoichiometry    C4H10O2
 Framework group  C1[X(C4H10O2)]
 Deg. of freedom    42
 Full point group                 C1      NOp   1
 Largest Abelian subgroup         C1      NOp   1
 Largest concise Abelian subgroup C1      NOp   1
                         Standard orientation:                         
 ---------------------------------------------------------------------
 Center     Atomic      Atomic             Coordinates (Angstroms)
 Number     Number       Type             X           Y           Z
 ---------------------------------------------------------------------
      1          6           0       -0.530197    0.678976   -0.433621
      2          6           0       -1.730475    0.450350    0.483000
      3          8           0       -2.688657   -0.430213   -0.058652
      4          6           0        0.475570   -0.497774   -0.488594
      5          6           0        1.636071   -0.386939    0.500012
      6          8           0        2.704139    0.298311   -0.126931
      7          1           0       -0.005530    1.572060   -0.108091
      8          1           0       -0.920954    0.894513   -1.421593
      9          1           0       -2.268411    1.375465    0.633303
     10          1           0       -1.405619    0.100127    1.460906
     11          1           0       -2.287791   -1.273282   -0.208723
     12          1           0        0.911644   -0.567795   -1.475784
     13          1           0       -0.032075   -1.442929   -0.313672
     14          1           0        1.951302   -1.370456    0.838403
     15          1           0        1.319696    0.172905    1.374998
     16          1           0        3.508068    0.126935    0.340127
 ---------------------------------------------------------------------
 Rotational constants (GHZ):     10.2782570      1.4046524      1.3762783
 Standard basis: 6-31G(d) (6D, 7F)
 There are   110 symmetry adapted cartesian basis functions of A   symmetry.
 There are   110 symmetry adapted basis functions of A   symmetry.
   110 basis functions,   208 primitive gaussians,   110 cartesian basis functions
    25 alpha electrons       25 beta electrons
       nuclear repulsion energy       251.0478727524 Hartrees.
 NAtoms=   16 NActive=   16 NUniq=   16 SFac= 1.00D+00 NAtFMM=   60 NAOKFM=F Big=F
 Integral buffers will be    131072 words long.
 Raffenetti 1 integral format.
 Two-electron integral symmetry is turned on.
 One-electron integrals computed using PRISM.
 NBasis=   110 RedAO= T EigKep=  4.76D-03  NBF=   110
 NBsUse=   110 1.00D-06 EigRej= -1.00D+00 NBFU=   110
 Initial guess from the checkpoint file:  "1-4-butanediol-open-opt.chk"
 B after Tr=     0.000000    0.000000   -0.000000
         Rot=    0.998558   -0.053675   -0.000101    0.000516 Ang=  -6.15 deg.
 ExpMin= 1.61D-01 ExpMax= 5.48D+03 ExpMxC= 8.25D+02 IAcc=1 IRadAn=         1 AccDes= 0.00D+00
 Harris functional with IExCor=  205 and IRadAn=       1 diagonalized for initial guess.
 HarFok:  IExCor=  205 AccDes= 0.00D+00 IRadAn=         1 IDoV= 1 UseB2=F ITyADJ=14
 ICtDFT=  3500011 ScaDFX=  1.000000  1.000000  1.000000  1.000000
 FoFCou: FMM=F IPFlag=           0 FMFlag=      100000 FMFlg1=           0
         NFxFlg=           0 DoJE=T BraDBF=F KetDBF=T FulRan=T
         wScrn=  0.000000 ICntrl=     500 IOpCl=  0 I1Cent=   200000004 NGrid=           0
         NMat0=    1 NMatS0=      1 NMatT0=    0 NMatD0=    1 NMtDS0=    0 NMtDT0=    0
 Petite list used in FoFCou.
 Keep R1 ints in memory in canonical form, NReq=19586142.
 Requested convergence on RMS density matrix=1.00D-08 within 128 cycles.
 Requested convergence on MAX density matrix=1.00D-06.
 Requested convergence on             energy=1.00D-06.
 No special actions if energy rises.
 SCF Done:  E(RHF) =  -306.983424463     A.U. after   11 cycles
            NFock= 11  Conv=0.72D-08     -V/T= 2.0013
 Calling FoFJK, ICntrl=      2127 FMM=F ISym2X=0 I1Cent= 0 IOpClX= 0 NMat=1 NMatS=1 NMatT=0.
 ***** Axes restored to original set *****
 -------------------------------------------------------------------
 Center     Atomic                   Forces (Hartrees/Bohr)
 Number     Number              X              Y              Z
 -------------------------------------------------------------------
      1        6           0.002788406   -0.001000538   -0.000438033
      2        6          -0.002195226   -0.002227014    0.001143343
      3        8           0.003979210    0.002817766   -0.001785290
      4        6          -0.002832206    0.000809023    0.000264485
      5        6          -0.001383536    0.006196923   -0.003213590
      6        8          -0.003113038   -0.005743695    0.004012627
      7        1           0.000308423    0.000728464   -0.000647594
      8        1           0.000521642   -0.001162143   -0.001155409
      9        1           0.000617745    0.002196626   -0.000777596
     10        1           0.000647716    0.000373730    0.000878491
     11        1           0.000347450   -0.002125615    0.000552501
     12        1           0.000121217   -0.001084499   -0.001289521
     13        1          -0.002101905   -0.000943969    0.000825013
     14        1           0.000396650   -0.000797938   -0.002748743
     15        1           0.001540308   -0.000128192    0.003474655
     16        1           0.000357145    0.002091069    0.000904662
 -------------------------------------------------------------------
 Cartesian Forces:  Max     0.006196923 RMS     0.002132339

 GradGradGradGradGradGradGradGradGradGradGradGradGradGradGradGradGradGrad
 Berny optimization.
 Using GEDIIS/GDIIS optimizer.
 FormGI is forming the generalized inverse of G from B-inverse, IUseBI=4.
 Internal  Forces:  Max     0.006644126 RMS     0.001698654
 Search for a local minimum.
 Step number   2 out of a maximum of   84
 All quantities printed in internal units (Hartrees-Bohrs-Radians)
 Mixed Optimization -- RFO/linear search
 Update second derivatives using D2CorX and points    1    2
 DE= -5.30D-03 DEPred=-6.05D-03 R= 8.77D-01
 TightC=F SS=  1.41D+00  RLast= 4.15D-01 DXNew= 5.0454D-01 1.2463D+00
 Trust test= 8.77D-01 RLast= 4.15D-01 DXMaxT set to 5.05D-01
 ITU=  1  0
 Use linear search instead of GDIIS.
     Eigenvalues ---    0.00280   0.00385   0.00405   0.01364   0.01380
     Eigenvalues ---    0.03337   0.03351   0.04714   0.04757   0.04813
     Eigenvalues ---    0.05503   0.05692   0.05908   0.08660   0.08899
     Eigenvalues ---    0.11258   0.11888   0.12414   0.12719   0.13744
     Eigenvalues ---    0.14410   0.15783   0.16119   0.21755   0.21945
     Eigenvalues ---    0.21991   0.23436   0.29574   0.29673   0.29826
     Eigenvalues ---    0.34021   0.34081   0.34104   0.34220   0.34297
     Eigenvalues ---    0.34306   0.34339   0.35583   0.40366   0.42378
     Eigenvalues ---    0.52928   0.54597
 RFO step:  Lambda=-3.57978547D-03 EMin= 2.80399779D-03
 Quartic linear search produced a step of  0.02135.
 Iteration  1 RMS(Cart)=  0.13815684 RMS(Int)=  0.00732340
 Iteration  2 RMS(Cart)=  0.01054627 RMS(Int)=  0.00004152
 Iteration  3 RMS(Cart)=  0.00004714 RMS(Int)=  0.00001986
 Iteration  4 RMS(Cart)=  0.00000000 RMS(Int)=  0.00001986
 Variable       Old X    -DE/DX   Delta X   Delta X   Delta X     New X
                                 (Linear)    (Quad)   (Total)
    R1        2.88648  -0.00161  -0.00000  -0.00509  -0.00509   2.88139
    R2        2.92714  -0.00649   0.00051  -0.01795  -0.01744   2.90970
    R3        2.05176   0.00086  -0.00042  -0.00024  -0.00066   2.05110
    R4        2.04862   0.00078  -0.00051  -0.00097  -0.00148   2.04715
    R5        2.66370  -0.00267  -0.00058  -0.00956  -0.01014   2.65356
    R6        2.04213   0.00091  -0.00053  -0.00079  -0.00132   2.04081
    R7        2.05667   0.00113  -0.00025   0.00158   0.00134   2.05801
    R8        1.78675   0.00172  -0.00094  -0.00272  -0.00365   1.78309
    R9        2.88849  -0.00039   0.00007  -0.00081  -0.00074   2.88775
   R10        2.04371   0.00156  -0.00062   0.00050  -0.00012   2.04359
   R11        2.05418   0.00124  -0.00030   0.00154   0.00123   2.05541
   R12        2.67474  -0.00664  -0.00027  -0.01646  -0.01672   2.65802
   R13        2.05380  -0.00028  -0.00032  -0.00272  -0.00303   2.05076
   R14        2.05200   0.00199  -0.00034   0.00333   0.00299   2.05499
   R15        1.78658   0.00102  -0.00111  -0.00501  -0.00612   1.78046
    A1        2.00184  -0.00254   0.00074  -0.00737  -0.00665   1.99519
    A2        1.89961   0.00016  -0.00027  -0.00252  -0.00281   1.89680
    A3        1.86859   0.00250  -0.00047   0.01462   0.01412   1.88271
    A4        1.89839   0.00128  -0.00062   0.00043  -0.00021   1.89818
    A5        1.93130  -0.00097   0.00088  -0.00584  -0.00494   1.92635
    A6        1.85864  -0.00027  -0.00031   0.00138   0.00105   1.85969
    A7        1.97912  -0.00244   0.00091  -0.00420  -0.00329   1.97583
    A8        1.92463  -0.00137   0.00015  -0.00703  -0.00689   1.91773
    A9        1.93138   0.00095  -0.00050  -0.00347  -0.00401   1.92737
   A10        1.82333   0.00301  -0.00092   0.01979   0.01889   1.84221
   A11        1.92533   0.00017   0.00056  -0.00104  -0.00051   1.92482
   A12        1.87454  -0.00015  -0.00027  -0.00295  -0.00327   1.87126
   A13        1.90690   0.00232   0.00021   0.01475   0.01496   1.92186
   A14        1.99867  -0.00371   0.00057  -0.01312  -0.01255   1.98612
   A15        1.92133   0.00007   0.00062  -0.00170  -0.00106   1.92027
   A16        1.93008   0.00078   0.00015   0.00111   0.00130   1.93138
   A17        1.86392   0.00211  -0.00097   0.00701   0.00599   1.86991
   A18        1.88971   0.00159  -0.00013   0.00869   0.00855   1.89825
   A19        1.85344  -0.00059  -0.00032  -0.00091  -0.00128   1.85216
   A20        1.89815  -0.00175  -0.00003  -0.00810  -0.00815   1.89000
   A21        1.93475  -0.00011   0.00039  -0.00346  -0.00311   1.93164
   A22        1.91489   0.00154  -0.00116   0.00677   0.00563   1.92052
   A23        1.93602   0.00009   0.00111  -0.00140  -0.00035   1.93567
   A24        1.90410   0.00075   0.00013   0.01009   0.01022   1.91432
   A25        1.87568  -0.00044  -0.00040  -0.00338  -0.00378   1.87190
   A26        1.91249   0.00002   0.00083   0.00518   0.00600   1.91849
    D1       -1.31281   0.00148  -0.00078   0.05608   0.05531  -1.25750
    D2        2.93279   0.00015  -0.00030   0.03852   0.03824   2.97104
    D3        0.86130   0.00061   0.00025   0.04880   0.04905   0.91036
    D4        2.83966   0.00146  -0.00030   0.06252   0.06222   2.90188
    D5        0.80208   0.00013   0.00018   0.04496   0.04516   0.84724
    D6       -1.26941   0.00059   0.00073   0.05525   0.05597  -1.21344
    D7        0.83710   0.00040   0.00047   0.05460   0.05505   0.89215
    D8       -1.20049  -0.00092   0.00095   0.03704   0.03799  -1.16250
    D9        3.01121  -0.00046   0.00150   0.04733   0.04880   3.06000
   D10       -1.62643   0.00129   0.00149   0.12841   0.12991  -1.49652
   D11        2.55672   0.00106   0.00191   0.12963   0.13154   2.68826
   D12        0.51408   0.00127   0.00185   0.13110   0.13297   0.64705
   D13        0.50495   0.00071   0.00120   0.12037   0.12158   0.62653
   D14       -1.59509   0.00047   0.00162   0.12159   0.12320  -1.47189
   D15        2.64545   0.00069   0.00156   0.12306   0.12463   2.77009
   D16        2.54086   0.00058   0.00098   0.11896   0.11993   2.66079
   D17        0.44083   0.00035   0.00140   0.12018   0.12155   0.56238
   D18       -1.60181   0.00056   0.00133   0.12166   0.12298  -1.47883
   D19        1.05692   0.00051   0.00050   0.01550   0.01601   1.07293
   D20       -3.13010  -0.00055   0.00061   0.01748   0.01807  -3.11202
   D21       -1.12046   0.00095   0.00008   0.02406   0.02414  -1.09631
   D22       -1.57599   0.00067   0.00249   0.14990   0.15240  -1.42359
   D23        2.57428   0.00179   0.00092   0.15925   0.16015   2.73443
   D24        0.50542   0.00143   0.00192   0.16129   0.16321   0.66863
   D25        0.55562  -0.00009   0.00295   0.14441   0.14734   0.70296
   D26       -1.57729   0.00104   0.00138   0.15376   0.15509  -1.42220
   D27        2.63703   0.00068   0.00238   0.15580   0.15815   2.79518
   D28        2.54498   0.00103   0.00200   0.15098   0.15301   2.69799
   D29        0.41206   0.00216   0.00042   0.16033   0.16077   0.57283
   D30       -1.65680   0.00180   0.00143   0.16237   0.16383  -1.49297
   D31       -2.81236  -0.00032  -0.00204  -0.06351  -0.06557  -2.87794
   D32       -0.68022  -0.00157  -0.00092  -0.07412  -0.07503  -0.75525
   D33        1.38268  -0.00159  -0.00069  -0.07285  -0.07353   1.30915
         Item               Value     Threshold  Converged?
 Maximum Force            0.006644     0.000450     NO 
 RMS     Force            0.001699     0.000300     NO 
 Maximum Displacement     0.435258     0.001800     NO 
 RMS     Displacement     0.140147     0.001200     NO 
 Predicted change in Energy=-2.507621D-03
 GradGradGradGradGradGradGradGradGradGradGradGradGradGradGradGradGradGrad

                          Input orientation:                          
 ---------------------------------------------------------------------
 Center     Atomic      Atomic             Coordinates (Angstroms)
 Number     Number       Type             X           Y           Z
 ---------------------------------------------------------------------
      1          6           0        1.863394    1.187737    1.663969
      2          6           0        1.241925    1.089834    3.052889
      3          8           0        0.677864   -0.168209    3.319263
      4          6           0        3.175944    0.399676    1.499687
      5          6           0        4.418941    1.174374    1.935557
      6          8           0        4.798419    2.027861    0.883901
      7          1           0        2.053549    2.232850    1.441116
      8          1           0        1.127120    0.848004    0.945619
      9          1           0        0.429828    1.796077    3.142417
     10          1           0        1.975704    1.343921    3.816458
     11          1           0        1.343191   -0.836322    3.283318
     12          1           0        3.317289    0.127819    0.462581
     13          1           0        3.134172   -0.535234    2.053979
     14          1           0        5.224397    0.493693    2.191703
     15          1           0        4.199105    1.762527    2.823422
     16          1           0        5.675638    2.341191    1.025351
 ---------------------------------------------------------------------
                    Distance matrix (angstroms):
                    1          2          3          4          5
     1  C    0.000000
     2  C    1.524765   0.000000
     3  O    2.446235   1.404205   0.000000
     4  C    1.539746   2.574720   3.142253   0.000000
     5  C    2.569973   3.368829   4.208662   1.528130   0.000000
     6  O    3.150982   4.270018   5.266183   2.379623   1.406564
     7  H    1.085396   2.136126   3.344403   2.150285   2.638166
     8  H    1.083303   2.124206   2.620821   2.169255   3.452909
     9  H    2.147323   1.079951   1.987766   3.491368   4.213792
    10  H    2.161068   1.089050   2.053809   2.774815   3.088032
    11  H    2.643807   1.942531   0.943571   2.840425   3.914026
    12  H    2.163463   3.455764   3.900619   1.081422   2.116264
    13  H    2.176146   2.686869   2.787310   1.087676   2.141825
    14  H    3.472254   4.117901   4.730801   2.164229   1.085218
    15  H    2.670255   3.041395   4.046325   2.157892   1.087454
    16  H    4.033794   5.033351   6.044574   3.200461   1.941449
                    6          7          8          9         10
     6  O    0.000000
     7  H    2.808348   0.000000
     8  H    3.856723   1.738272   0.000000
     9  H    4.923332   2.392000   2.492183   0.000000
    10  H    4.127394   2.537420   3.034426   1.745998   0.000000
    11  H    5.089140   3.649402   2.889373   2.789911   2.331903
    12  H    2.445693   2.643052   2.355597   4.278088   3.811462
    13  H    3.272347   3.034079   2.677698   3.732717   2.824819
    14  H    2.060455   3.693552   4.297202   5.058454   3.730512
    15  H    2.047271   2.595261   3.714780   3.782900   2.470802
    16  H    0.942177   3.647482   4.788005   5.683101   4.740710
                   11         12         13         14         15
    11  H    0.000000
    12  H    3.575359   0.000000
    13  H    2.193067   1.733701   0.000000
    14  H    4.245507   2.600151   2.333817   0.000000
    15  H    3.888671   3.003904   2.646853   1.749352   0.000000
    16  H    5.827959   3.282915   3.973782   2.230974   2.397511
                   16
    16  H    0.000000
 Stoichiometry    C4H10O2
 Framework group  C1[X(C4H10O2)]
 Deg. of freedom    42
 Full point group                 C1      NOp   1
 Largest Abelian subgroup         C1      NOp   1
 Largest concise Abelian subgroup C1      NOp   1
                         Standard orientation:                         
 ---------------------------------------------------------------------
 Center     Atomic      Atomic             Coordinates (Angstroms)
 Number     Number       Type             X           Y           Z
 ---------------------------------------------------------------------
      1          6           0       -0.503834    0.692533   -0.491644
      2          6           0       -1.649389    0.477840    0.491473
      3          8           0       -2.612408   -0.433251    0.028546
      4          6           0        0.464116   -0.499313   -0.607368
      5          6           0        1.575494   -0.495114    0.441443
      6          8           0        2.591493    0.373920    0.004465
      7          1           0        0.057457    1.569537   -0.185215
      8          1           0       -0.934385    0.923921   -1.458406
      9          1           0       -2.179527    1.405951    0.645933
     10          1           0       -1.264892    0.161232    1.459952
     11          1           0       -2.219835   -1.280984   -0.103975
     12          1           0        0.941611   -0.495675   -1.577656
     13          1           0       -0.076570   -1.440700   -0.540375
     14          1           0        1.962336   -1.497531    0.593793
     15          1           0        1.185227   -0.151424    1.396496
     16          1           0        3.377579    0.224646    0.501943
 ---------------------------------------------------------------------
 Rotational constants (GHZ):      9.3589456      1.4981590      1.4608849
 Standard basis: 6-31G(d) (6D, 7F)
 There are   110 symmetry adapted cartesian basis functions of A   symmetry.
 There are   110 symmetry adapted basis functions of A   symmetry.
   110 basis functions,   208 primitive gaussians,   110 cartesian basis functions
    25 alpha electrons       25 beta electrons
       nuclear repulsion energy       253.3857251815 Hartrees.
 NAtoms=   16 NActive=   16 NUniq=   16 SFac= 1.00D+00 NAtFMM=   60 NAOKFM=F Big=F
 Integral buffers will be    131072 words long.
 Raffenetti 1 integral format.
 Two-electron integral symmetry is turned on.
 One-electron integrals computed using PRISM.
 NBasis=   110 RedAO= T EigKep=  4.72D-03  NBF=   110
 NBsUse=   110 1.00D-06 EigRej= -1.00D+00 NBFU=   110
 Initial guess from the checkpoint file:  "1-4-butanediol-open-opt.chk"
 B after Tr=    -0.000000   -0.000000    0.000000
         Rot=    0.999729   -0.023250   -0.000401    0.000562 Ang=  -2.67 deg.
 ExpMin= 1.61D-01 ExpMax= 5.48D+03 ExpMxC= 8.25D+02 IAcc=1 IRadAn=         1 AccDes= 0.00D+00
 Harris functional with IExCor=  205 and IRadAn=       1 diagonalized for initial guess.
 HarFok:  IExCor=  205 AccDes= 0.00D+00 IRadAn=         1 IDoV= 1 UseB2=F ITyADJ=14
 ICtDFT=  3500011 ScaDFX=  1.000000  1.000000  1.000000  1.000000
 FoFCou: FMM=F IPFlag=           0 FMFlag=      100000 FMFlg1=           0
         NFxFlg=           0 DoJE=T BraDBF=F KetDBF=T FulRan=T
         wScrn=  0.000000 ICntrl=     500 IOpCl=  0 I1Cent=   200000004 NGrid=           0
         NMat0=    1 NMatS0=      1 NMatT0=    0 NMatD0=    1 NMtDS0=    0 NMtDT0=    0
 Petite list used in FoFCou.
 Keep R1 ints in memory in canonical form, NReq=19586515.
 Requested convergence on RMS density matrix=1.00D-08 within 128 cycles.
 Requested convergence on MAX density matrix=1.00D-06.
 Requested convergence on             energy=1.00D-06.
 No special actions if energy rises.
 SCF Done:  E(RHF) =  -306.986443079     A.U. after   12 cycles
            NFock= 12  Conv=0.51D-08     -V/T= 2.0012
 Calling FoFJK, ICntrl=      2127 FMM=F ISym2X=0 I1Cent= 0 IOpClX= 0 NMat=1 NMatS=1 NMatT=0.
 ***** Axes restored to original set *****
 -------------------------------------------------------------------
 Center     Atomic                   Forces (Hartrees/Bohr)
 Number     Number              X              Y              Z
 -------------------------------------------------------------------
      1        6           0.002135103    0.001322398   -0.000401710
      2        6           0.002062960   -0.001203517    0.000557222
      3        8          -0.002926456    0.001742688   -0.000386009
      4        6           0.000559880    0.001133416    0.001352665
      5        6          -0.003846281    0.002377472    0.000121972
      6        8          -0.004794182   -0.003440422   -0.001449507
      7        1           0.000632473    0.000847671   -0.001020365
      8        1          -0.000791732   -0.001622489   -0.000687875
      9        1          -0.001169400    0.000792158   -0.000039162
     10        1           0.000005843    0.000491964    0.000650955
     11        1           0.002459799   -0.001889606    0.000454907
     12        1           0.000605589   -0.000808829   -0.001738989
     13        1          -0.000953741   -0.000385991    0.000693156
     14        1           0.001119899   -0.001747148   -0.001980017
     15        1           0.001079243   -0.000583519    0.002024354
     16        1           0.003821003    0.002973755    0.001848403
 -------------------------------------------------------------------
 Cartesian Forces:  Max     0.004794182 RMS     0.001766007

 GradGradGradGradGradGradGradGradGradGradGradGradGradGradGradGradGradGrad
 Berny optimization.
 Using GEDIIS/GDIIS optimizer.
 FormGI is forming the generalized inverse of G from B-inverse, IUseBI=4.
 Internal  Forces:  Max     0.004824020 RMS     0.001055269
 Search for a local minimum.
 Step number   3 out of a maximum of   84
 All quantities printed in internal units (Hartrees-Bohrs-Radians)
 Mixed Optimization -- RFO/linear search
 Update second derivatives using D2CorX and points    2    3
 DE= -3.02D-03 DEPred=-2.51D-03 R= 1.20D+00
 TightC=F SS=  1.41D+00  RLast= 6.37D-01 DXNew= 8.4853D-01 1.9106D+00
 Trust test= 1.20D+00 RLast= 6.37D-01 DXMaxT set to 8.49D-01
 ITU=  1  1  0
 Use linear search instead of GDIIS.
     Eigenvalues ---    0.00172   0.00320   0.00419   0.01259   0.01378
     Eigenvalues ---    0.03396   0.03418   0.04774   0.04790   0.04924
     Eigenvalues ---    0.05515   0.05772   0.05918   0.08573   0.08752
     Eigenvalues ---    0.11199   0.11942   0.12386   0.12731   0.13719
     Eigenvalues ---    0.14329   0.15971   0.16292   0.21532   0.21941
     Eigenvalues ---    0.21994   0.24116   0.29223   0.29651   0.31562
     Eigenvalues ---    0.34049   0.34089   0.34164   0.34295   0.34305
     Eigenvalues ---    0.34333   0.34607   0.34888   0.41657   0.43215
     Eigenvalues ---    0.53426   0.53865
 RFO step:  Lambda=-1.46090523D-03 EMin= 1.71939461D-03
 Quartic linear search produced a step of  1.09117.
 Iteration  1 RMS(Cart)=  0.17984849 RMS(Int)=  0.03293611
 Iteration  2 RMS(Cart)=  0.04654106 RMS(Int)=  0.00145695
 Iteration  3 RMS(Cart)=  0.00179145 RMS(Int)=  0.00005664
 Iteration  4 RMS(Cart)=  0.00000196 RMS(Int)=  0.00005662
 Iteration  5 RMS(Cart)=  0.00000000 RMS(Int)=  0.00005662
 Variable       Old X    -DE/DX   Delta X   Delta X   Delta X     New X
                                 (Linear)    (Quad)   (Total)
    R1        2.88139   0.00096  -0.00556   0.00924   0.00369   2.88508
    R2        2.90970  -0.00190  -0.01904   0.00177  -0.01727   2.89243
    R3        2.05110   0.00114  -0.00072   0.00431   0.00358   2.05469
    R4        2.04715   0.00150  -0.00161   0.00637   0.00476   2.05190
    R5        2.65356   0.00033  -0.01106   0.00478  -0.00629   2.64728
    R6        2.04081   0.00139  -0.00144   0.00547   0.00403   2.04484
    R7        2.05801   0.00058   0.00146   0.00092   0.00238   2.06038
    R8        1.78309   0.00306  -0.00399   0.00783   0.00385   1.78694
    R9        2.88775  -0.00218  -0.00081  -0.01280  -0.01361   2.87414
   R10        2.04359   0.00195  -0.00013   0.00734   0.00722   2.05081
   R11        2.05541   0.00072   0.00135   0.00146   0.00281   2.05822
   R12        2.65802  -0.00084  -0.01825   0.00549  -0.01276   2.64526
   R13        2.05076   0.00146  -0.00331   0.00811   0.00480   2.05557
   R14        2.05499   0.00112   0.00326   0.00226   0.00552   2.06051
   R15        1.78046   0.00482  -0.00668   0.01485   0.00817   1.78863
    A1        1.99519   0.00059  -0.00725   0.01242   0.00518   2.00037
    A2        1.89680   0.00006  -0.00307   0.00841   0.00532   1.90212
    A3        1.88271   0.00019   0.01541  -0.01025   0.00517   1.88788
    A4        1.89818  -0.00029  -0.00023  -0.00474  -0.00502   1.89316
    A5        1.92635  -0.00087  -0.00539  -0.01010  -0.01548   1.91087
    A6        1.85969   0.00032   0.00115   0.00409   0.00514   1.86483
    A7        1.97583   0.00027  -0.00359   0.01024   0.00657   1.98240
    A8        1.91773  -0.00052  -0.00752  -0.00519  -0.01272   1.90501
    A9        1.92737   0.00059  -0.00437   0.01223   0.00775   1.93512
   A10        1.84221  -0.00005   0.02061  -0.02345  -0.00281   1.83940
   A11        1.92482  -0.00024  -0.00055   0.00691   0.00623   1.93105
   A12        1.87126  -0.00012  -0.00357  -0.00313  -0.00674   1.86453
   A13        1.92186  -0.00049   0.01632  -0.01432   0.00200   1.92386
   A14        1.98612  -0.00154  -0.01369  -0.00302  -0.01674   1.96939
   A15        1.92027  -0.00024  -0.00115  -0.00692  -0.00810   1.91217
   A16        1.93138   0.00077   0.00141   0.01046   0.01197   1.94335
   A17        1.86991   0.00093   0.00654  -0.00194   0.00440   1.87430
   A18        1.89825   0.00034   0.00932  -0.00101   0.00834   1.90660
   A19        1.85216  -0.00018  -0.00140   0.00243   0.00099   1.85316
   A20        1.89000  -0.00073  -0.00890  -0.00227  -0.01124   1.87876
   A21        1.93164  -0.00066  -0.00340  -0.00969  -0.01315   1.91849
   A22        1.92052   0.00080   0.00614   0.00354   0.00974   1.93026
   A23        1.93567   0.00033  -0.00038   0.00276   0.00217   1.93784
   A24        1.91432   0.00022   0.01115   0.00103   0.01220   1.92652
   A25        1.87190   0.00008  -0.00413   0.00478   0.00067   1.87257
   A26        1.91849  -0.00036   0.00655  -0.00351   0.00304   1.92153
    D1       -1.25750   0.00018   0.06035  -0.02912   0.03122  -1.22629
    D2        2.97104   0.00042   0.04173  -0.00258   0.03919   3.01023
    D3        0.91036   0.00052   0.05353  -0.00298   0.05059   0.96095
    D4        2.90188   0.00011   0.06789  -0.03764   0.03022   2.93210
    D5        0.84724   0.00035   0.04927  -0.01110   0.03819   0.88543
    D6       -1.21344   0.00045   0.06107  -0.01150   0.04959  -1.16385
    D7        0.89215  -0.00040   0.06007  -0.04139   0.01862   0.91076
    D8       -1.16250  -0.00016   0.04145  -0.01485   0.02659  -1.13591
    D9        3.06000  -0.00005   0.05325  -0.01526   0.03799   3.09799
   D10       -1.49652   0.00046   0.14176   0.01011   0.15193  -1.34458
   D11        2.68826   0.00048   0.14353   0.01966   0.16312   2.85138
   D12        0.64705   0.00038   0.14509   0.01460   0.15970   0.80674
   D13        0.62653   0.00072   0.13266   0.02587   0.15857   0.78510
   D14       -1.47189   0.00074   0.13443   0.03542   0.16977  -1.30212
   D15        2.77009   0.00064   0.13599   0.03036   0.16634   2.93643
   D16        2.66079   0.00045   0.13086   0.02233   0.15326   2.81406
   D17        0.56238   0.00047   0.13263   0.03187   0.16446   0.72684
   D18       -1.47883   0.00037   0.13419   0.02682   0.16103  -1.31780
   D19        1.07293   0.00080   0.01747   0.04376   0.06125   1.13418
   D20       -3.11202   0.00028   0.01972   0.02779   0.04750  -3.06452
   D21       -1.09631   0.00000   0.02634   0.01476   0.04109  -1.05523
   D22       -1.42359   0.00099   0.16629   0.11730   0.28365  -1.13994
   D23        2.73443   0.00148   0.17475   0.12138   0.29606   3.03050
   D24        0.66863   0.00128   0.17809   0.11926   0.29735   0.96598
   D25        0.70296   0.00037   0.16077   0.10525   0.26605   0.96901
   D26       -1.42220   0.00086   0.16923   0.10933   0.27846  -1.14374
   D27        2.79518   0.00066   0.17257   0.10721   0.27975   3.07493
   D28        2.69799   0.00081   0.16696   0.10659   0.27366   2.97165
   D29        0.57283   0.00129   0.17542   0.11068   0.28607   0.85890
   D30       -1.49297   0.00110   0.17876   0.10855   0.28736  -1.20562
   D31       -2.87794  -0.00047  -0.07155  -0.06329  -0.13485  -3.01279
   D32       -0.75525  -0.00156  -0.08188  -0.07505  -0.15695  -0.91220
   D33        1.30915  -0.00112  -0.08024  -0.06682  -0.14702   1.16213
         Item               Value     Threshold  Converged?
 Maximum Force            0.004824     0.000450     NO 
 RMS     Force            0.001055     0.000300     NO 
 Maximum Displacement     0.747467     0.001800     NO 
 RMS     Displacement     0.214713     0.001200     NO 
 Predicted change in Energy=-3.118719D-03
 GradGradGradGradGradGradGradGradGradGradGradGradGradGradGradGradGradGrad

                          Input orientation:                          
 ---------------------------------------------------------------------
 Center     Atomic      Atomic             Coordinates (Angstroms)
 Number     Number       Type             X           Y           Z
 ---------------------------------------------------------------------
      1          6           0        1.879042    1.140956    1.585598
      2          6           0        1.311884    1.181305    3.002484
      3          8           0        0.775432   -0.041361    3.426475
      4          6           0        3.164727    0.323901    1.436623
      5          6           0        4.393573    1.058010    1.950675
      6          8           0        4.593669    2.175545    1.131804
      7          1           0        2.076712    2.157625    1.254665
      8          1           0        1.115656    0.738351    0.926692
      9          1           0        0.488757    1.882929    3.035489
     10          1           0        2.060058    1.538895    3.710393
     11          1           0        1.457228   -0.693659    3.488388
     12          1           0        3.334615    0.101810    0.388022
     13          1           0        3.083961   -0.637890    1.941311
     14          1           0        5.257131    0.397008    1.926877
     15          1           0        4.250412    1.366985    2.986513
     16          1           0        5.413622    2.595391    1.349220
 ---------------------------------------------------------------------
                    Distance matrix (angstroms):
                    1          2          3          4          5
     1  C    0.000000
     2  C    1.526716   0.000000
     3  O    2.450440   1.400878   0.000000
     4  C    1.530607   2.572954   3.130760   0.000000
     5  C    2.542248   3.258575   4.059254   1.520930   0.000000
     6  O    2.940323   3.906158   4.975853   2.358680   1.399811
     7  H    1.087293   2.143136   3.353450   2.139960   2.657335
     8  H    1.085820   2.131578   2.640572   2.151857   3.448979
     9  H    2.141401   1.082083   1.984425   3.485363   4.135807
    10  H    2.169303   1.090307   2.056229   2.804735   2.961951
    11  H    2.676630   1.942349   0.945607   2.856698   3.749004
    12  H    2.152372   3.477379   3.975187   1.085242   2.116032
    13  H    2.177764   2.752420   2.809069   1.089163   2.142720
    14  H    3.475833   4.163776   4.746218   2.150313   1.087760
    15  H    2.763520   2.944431   3.775247   2.160762   1.090377
    16  H    3.829427   4.642970   5.725404   3.197629   1.940564
                    6          7          8          9         10
     6  O    0.000000
     7  H    2.520018   0.000000
     8  H    3.768842   1.745145   0.000000
     9  H    4.534307   2.401747   2.479936   0.000000
    10  H    3.670645   2.532530   3.046598   1.744374   0.000000
    11  H    4.860358   3.674657   2.954592   2.789598   2.323141
    12  H    2.537480   2.561204   2.370470   4.275555   3.837690
    13  H    3.293924   3.049744   2.607243   3.779793   2.986038
    14  H    2.058037   3.696851   4.274190   5.116089   3.834855
    15  H    2.052203   2.889529   3.803253   3.797188   2.313268
    16  H    0.946500   3.366830   4.701024   5.254084   4.235295
                   11         12         13         14         15
    11  H    0.000000
    12  H    3.710744   0.000000
    13  H    2.245622   1.738589   0.000000
    14  H    4.250546   2.480178   2.407050   0.000000
    15  H    3.507137   3.031750   2.544126   1.754186   0.000000
    16  H    5.571979   3.385870   4.028896   2.278391   2.354309
                   16
    16  H    0.000000
 Stoichiometry    C4H10O2
 Framework group  C1[X(C4H10O2)]
 Deg. of freedom    42
 Full point group                 C1      NOp   1
 Largest Abelian subgroup         C1      NOp   1
 Largest concise Abelian subgroup C1      NOp   1
                         Standard orientation:                         
 ---------------------------------------------------------------------
 Center     Atomic      Atomic             Coordinates (Angstroms)
 Number     Number       Type             X           Y           Z
 ---------------------------------------------------------------------
      1          6           0       -0.455536    0.560483   -0.695719
      2          6           0       -1.525075    0.588862    0.393383
      3          8           0       -2.521752   -0.381152    0.225548
      4          6           0        0.472674   -0.655545   -0.646108
      5          6           0        1.528185   -0.548408    0.443683
      6          8           0        2.370540    0.520160    0.114940
      7          1           0        0.150675    1.459886   -0.619638
      8          1           0       -0.953262    0.597101   -1.660050
      9          1           0       -2.040932    1.539469    0.359603
     10          1           0       -1.074142    0.509396    1.382885
     11          1           0       -2.152706   -1.247480    0.311870
     12          1           0        0.993213   -0.754159   -1.593242
     13          1           0       -0.089839   -1.578435   -0.511458
     14          1           0        2.086822   -1.479302    0.511389
     15          1           0        1.061398   -0.379243    1.414464
     16          1           0        3.106989    0.548341    0.708835
 ---------------------------------------------------------------------
 Rotational constants (GHZ):      8.0571636      1.6463906      1.6006465
 Standard basis: 6-31G(d) (6D, 7F)
 There are   110 symmetry adapted cartesian basis functions of A   symmetry.
 There are   110 symmetry adapted basis functions of A   symmetry.
   110 basis functions,   208 primitive gaussians,   110 cartesian basis functions
    25 alpha electrons       25 beta electrons
       nuclear repulsion energy       256.2381701723 Hartrees.
 NAtoms=   16 NActive=   16 NUniq=   16 SFac= 1.00D+00 NAtFMM=   60 NAOKFM=F Big=F
 Integral buffers will be    131072 words long.
 Raffenetti 1 integral format.
 Two-electron integral symmetry is turned on.
 One-electron integrals computed using PRISM.
 NBasis=   110 RedAO= T EigKep=  4.59D-03  NBF=   110
 NBsUse=   110 1.00D-06 EigRej= -1.00D+00 NBFU=   110
 Initial guess from the checkpoint file:  "1-4-butanediol-open-opt.chk"
 B after Tr=     0.000000   -0.000000    0.000000
         Rot=    0.997445    0.071417    0.000130   -0.001811 Ang=   8.19 deg.
 ExpMin= 1.61D-01 ExpMax= 5.48D+03 ExpMxC= 8.25D+02 IAcc=1 IRadAn=         1 AccDes= 0.00D+00
 Harris functional with IExCor=  205 and IRadAn=       1 diagonalized for initial guess.
 HarFok:  IExCor=  205 AccDes= 0.00D+00 IRadAn=         1 IDoV= 1 UseB2=F ITyADJ=14
 ICtDFT=  3500011 ScaDFX=  1.000000  1.000000  1.000000  1.000000
 FoFCou: FMM=F IPFlag=           0 FMFlag=      100000 FMFlg1=           0
         NFxFlg=           0 DoJE=T BraDBF=F KetDBF=T FulRan=T
         wScrn=  0.000000 ICntrl=     500 IOpCl=  0 I1Cent=   200000004 NGrid=           0
         NMat0=    1 NMatS0=      1 NMatT0=    0 NMatD0=    1 NMtDS0=    0 NMtDT0=    0
 Petite list used in FoFCou.
 Keep R1 ints in memory in canonical form, NReq=19587102.
 Requested convergence on RMS density matrix=1.00D-08 within 128 cycles.
 Requested convergence on MAX density matrix=1.00D-06.
 Requested convergence on             energy=1.00D-06.
 No special actions if energy rises.
 SCF Done:  E(RHF) =  -306.988984816     A.U. after   13 cycles
            NFock= 13  Conv=0.50D-08     -V/T= 2.0012
 Calling FoFJK, ICntrl=      2127 FMM=F ISym2X=0 I1Cent= 0 IOpClX= 0 NMat=1 NMatS=1 NMatT=0.
 ***** Axes restored to original set *****
 -------------------------------------------------------------------
 Center     Atomic                   Forces (Hartrees/Bohr)
 Number     Number              X              Y              Z
 -------------------------------------------------------------------
      1        6          -0.001850275    0.001100500   -0.000602311
      2        6           0.000090859    0.004257432   -0.001136851
      3        8          -0.001183957   -0.002783966    0.000339368
      4        6           0.002132288    0.000005148   -0.000668464
      5        6          -0.000834965   -0.002686390    0.003581246
      6        8           0.002521841    0.002560129   -0.002589080
      7        1          -0.000562965   -0.001524670    0.000549614
      8        1          -0.000801411   -0.000415318    0.001040560
      9        1          -0.000136099    0.000138526    0.000227822
     10        1          -0.000812507   -0.000669513   -0.000518607
     11        1           0.000761723   -0.000012734    0.000355266
     12        1          -0.000075106   -0.000128168    0.000049928
     13        1          -0.000423451    0.000590416    0.000393355
     14        1           0.000417816   -0.000018159   -0.000955941
     15        1           0.001169078   -0.000759117   -0.000871546
     16        1          -0.000412868    0.000345883    0.000805641
 -------------------------------------------------------------------
 Cartesian Forces:  Max     0.004257432 RMS     0.001380622

 GradGradGradGradGradGradGradGradGradGradGradGradGradGradGradGradGradGrad
 Berny optimization.
 Using GEDIIS/GDIIS optimizer.
 FormGI is forming the generalized inverse of G from B-inverse, IUseBI=4.
 Internal  Forces:  Max     0.006100513 RMS     0.001327250
 Search for a local minimum.
 Step number   4 out of a maximum of   84
 All quantities printed in internal units (Hartrees-Bohrs-Radians)
[...]
 ! A4    A(4,1,7)              109.0842         -DE/DX =    0.0                 !
 ! A5    A(4,1,8)              108.3097         -DE/DX =    0.0                 !
 ! A6    A(7,1,8)              107.2647         -DE/DX =    0.0                 !
 ! A7    A(1,2,3)              113.2526         -DE/DX =    0.0                 !
 ! A8    A(1,2,9)              109.219          -DE/DX =    0.0                 !
 ! A9    A(1,2,10)             110.7841         -DE/DX =    0.0                 !
 ! A10   A(3,2,9)              105.7162         -DE/DX =    0.0                 !
 ! A11   A(3,2,10)             110.5987         -DE/DX =    0.0                 !
 ! A12   A(9,2,10)             106.9459         -DE/DX =    0.0                 !
 ! A13   A(2,3,11)             109.8221         -DE/DX =    0.0                 !
 ! A14   A(1,4,5)              114.9967         -DE/DX =    0.0                 !
 ! A15   A(1,4,12)             108.5629         -DE/DX =    0.0                 !
 ! A16   A(1,4,13)             110.145          -DE/DX =    0.0                 !
 ! A17   A(5,4,12)             108.0245         -DE/DX =    0.0                 !
 ! A18   A(5,4,13)             108.4232         -DE/DX =    0.0                 !
 ! A19   A(12,4,13)            106.3218         -DE/DX =    0.0                 !
 ! A20   A(4,5,6)              108.674          -DE/DX =    0.0                 !
 ! A21   A(4,5,14)             109.2263         -DE/DX =    0.0                 !
 ! A22   A(4,5,15)             110.8186         -DE/DX =    0.0                 !
 ! A23   A(6,5,14)             110.6642         -DE/DX =    0.0                 !
 ! A24   A(6,5,15)             110.3681         -DE/DX =    0.0                 !
 ! A25   A(14,5,15)            107.0842         -DE/DX =    0.0                 !
 ! A26   A(5,6,16)             109.8031         -DE/DX =    0.0                 !
 ! D1    D(4,1,2,3)            -61.0473         -DE/DX =    0.0                 !
 ! D2    D(4,1,2,9)           -178.5644         -DE/DX =    0.0                 !
 ! D3    D(4,1,2,10)            63.8889         -DE/DX =    0.0                 !
 ! D4    D(7,1,2,3)            176.333          -DE/DX =    0.0                 !
 ! D5    D(7,1,2,9)             58.8159         -DE/DX =    0.0                 !
 ! D6    D(7,1,2,10)           -58.7308         -DE/DX =    0.0                 !
 ! D7    D(8,1,2,3)             60.3621         -DE/DX =    0.0                 !
 ! D8    D(8,1,2,9)            -57.155          -DE/DX =    0.0                 !
 ! D9    D(8,1,2,10)          -174.7017         -DE/DX =    0.0                 !
 ! D10   D(2,1,4,5)            -61.0893         -DE/DX =    0.0                 !
 ! D11   D(2,1,4,12)           177.799          -DE/DX =    0.0                 !
 ! D12   D(2,1,4,13)            61.7613         -DE/DX =    0.0                 !
 ! D13   D(7,1,4,5)             61.1595         -DE/DX =    0.0                 !
 ! D14   D(7,1,4,12)           -59.9522         -DE/DX =    0.0                 !
 ! D15   D(7,1,4,13)          -175.9899         -DE/DX =    0.0                 !
 ! D16   D(8,1,4,5)            177.6006         -DE/DX =    0.0                 !
 ! D17   D(8,1,4,12)            56.4889         -DE/DX =    0.0                 !
 ! D18   D(8,1,4,13)           -59.5487         -DE/DX =    0.0                 !
 ! D19   D(1,2,3,11)            73.1331         -DE/DX =    0.0                 !
 ! D20   D(9,2,3,11)          -167.3219         -DE/DX =    0.0                 !
 ! D21   D(10,2,3,11)          -51.9032         -DE/DX =    0.0                 !
 ! D22   D(1,4,5,6)            -56.7378         -DE/DX =    0.0                 !
 ! D23   D(1,4,5,14)          -177.5598         -DE/DX =    0.0                 !
 ! D24   D(1,4,5,15)            64.6995         -DE/DX =    0.0                 !
 ! D25   D(12,4,5,6)            64.6672         -DE/DX =    0.0                 !
 ! D26   D(12,4,5,14)          -56.1548         -DE/DX =    0.0                 !
 ! D27   D(12,4,5,15)         -173.8955         -DE/DX =    0.0                 !
 ! D28   D(13,4,5,6)           179.4948         -DE/DX =    0.0                 !
 ! D29   D(13,4,5,14)           58.6728         -DE/DX =    0.0                 !
 ! D30   D(13,4,5,15)          -59.0679         -DE/DX =    0.0                 !
 ! D31   D(4,5,6,16)          -178.7731         -DE/DX =    0.0                 !
 ! D32   D(14,5,6,16)          -58.8413         -DE/DX =    0.0                 !
 ! D33   D(15,5,6,16)           59.5142         -DE/DX =    0.0                 !
 --------------------------------------------------------------------------------
 GradGradGradGradGradGradGradGradGradGradGradGradGradGradGradGradGradGrad

                          Input orientation:                          
 ---------------------------------------------------------------------
 Center     Atomic      Atomic             Coordinates (Angstroms)
 Number     Number       Type             X           Y           Z
 ---------------------------------------------------------------------
      1          6           0        1.818904    1.098579    1.485644
      2          6           0        1.354644    1.280033    2.926834
      3          8           0        1.090418    0.063879    3.582441
      4          6           0        3.120797    0.308022    1.309196
      5          6           0        4.343398    0.926618    1.970942
      6          8           0        4.512154    2.228864    1.475197
      7          1           0        1.936232    2.079829    1.037707
      8          1           0        1.032019    0.586637    0.939019
      9          1           0        0.420216    1.826015    2.934046
     10          1           0        2.071677    1.871361    3.491738
     11          1           0        1.903676   -0.375855    3.782759
     12          1           0        3.325837    0.212349    0.247390
     13          1           0        2.999075   -0.704121    1.689538
     14          1           0        5.217091    0.315976    1.751616
     15          1           0        4.229601    0.945077    3.054205
     16          1           0        5.280743    2.622538    1.862959
 ---------------------------------------------------------------------
                    Distance matrix (angstroms):
                    1          2          3          4          5
     1  C    0.000000
     2  C    1.524956   0.000000
     3  O    2.449052   1.406651   0.000000
     4  C    1.533311   2.584735   3.057726   0.000000
     5  C    2.576462   3.157733   3.731371   1.521618   0.000000
     6  O    2.920831   3.602416   4.564638   2.377618   1.403598
     7  H    1.085018   2.132304   3.354866   2.148535   2.827591
     8  H    1.086311   2.129858   2.695249   2.139545   3.485066
     9  H    2.140878   1.082268   1.993667   3.498225   4.138579
    10  H    2.164601   1.087621   2.058662   2.882390   2.892416
    11  H    2.730912   1.943195   0.945982   2.840350   3.306261
    12  H    2.142318   3.493561   4.017674   1.085645   2.125146
    13  H    2.164280   2.858657   2.795689   1.088076   2.132066
    14  H    3.497268   4.150788   4.521604   2.142486   1.088268
    15  H    2.880175   2.897204   3.303031   2.163410   1.089379
    16  H    3.801204   4.283504   5.202133   3.213877   1.940727
                    6          7          8          9         10
     6  O    0.000000
     7  H    2.617057   0.000000
     8  H    3.885323   1.748417   0.000000
     9  H    4.362853   2.441071   2.427034   0.000000
    10  H    3.185933   2.466591   3.041016   1.743674   0.000000
    11  H    4.348973   3.683308   3.126186   2.787328   2.272201
    12  H    2.642195   2.458269   2.424880   4.273718   3.853703
    13  H    3.307228   3.050393   2.469543   3.821112   3.277362
    14  H    2.057301   3.792741   4.271814   5.166078   3.916743
    15  H    2.054558   3.257832   3.850587   3.911764   2.388738
    16  H    0.946608   3.487310   4.801064   5.040476   3.676315
                   11         12         13         14         15
    11  H    0.000000
    12  H    3.855822   0.000000
    13  H    2.385212   1.739678   0.000000
    14  H    3.947517   2.418734   2.442140   0.000000
    15  H    2.772288   3.038402   2.469082   1.751469   0.000000
    16  H    4.907197   3.498676   4.037666   2.310125   2.310377
                   16
    16  H    0.000000
 Stoichiometry    C4H10O2
 Framework group  C1[X(C4H10O2)]
 Deg. of freedom    42
 Full point group                 C1      NOp   1
 Largest Abelian subgroup         C1      NOp   1
 Largest concise Abelian subgroup C1      NOp   1
                         Standard orientation:                         
 ---------------------------------------------------------------------
 Center     Atomic      Atomic             Coordinates (Angstroms)
 Number     Number       Type             X           Y           Z
 ---------------------------------------------------------------------
      1          6           0       -0.498722    0.661755   -0.784378
      2          6           0       -1.447643    0.593839    0.407439
      3          8           0       -2.278076   -0.541421    0.392110
      4          6           0        0.491449   -0.502923   -0.903245
      5          6           0        1.449551   -0.654521    0.269095
      6          8           0        2.154401    0.548297    0.431893
      7          1           0        0.054524    1.593468   -0.728763
      8          1           0       -1.096478    0.695355   -1.690816
      9          1           0       -2.114888    1.445523    0.380556
     10          1           0       -0.896610    0.652248    1.343318
     11          1           0       -1.772950   -1.311310    0.608905
     12          1           0        1.081762   -0.364154   -1.803744
     13          1           0       -0.046124   -1.440203   -1.031429
     14          1           0        2.133925   -1.476573    0.068621
     15          1           0        0.908760   -0.903544    1.181388
     16          1           0        2.769667    0.465269    1.146471
 ---------------------------------------------------------------------
 Rotational constants (GHZ):      6.4695927      1.8315969      1.8212616

 **********************************************************************

            Population analysis using the SCF density.

 **********************************************************************

 Orbital symmetries:
       Occupied  (A) (A) (A) (A) (A) (A) (A) (A) (A) (A) (A) (A)
                 (A) (A) (A) (A) (A) (A) (A) (A) (A) (A) (A) (A)
                 (A)
       Virtual   (A) (A) (A) (A) (A) (A) (A) (A) (A) (A) (A) (A)
                 (A) (A) (A) (A) (A) (A) (A) (A) (A) (A) (A) (A)
                 (A) (A) (A) (A) (A) (A) (A) (A) (A) (A) (A) (A)
                 (A) (A) (A) (A) (A) (A) (A) (A) (A) (A) (A) (A)
                 (A) (A) (A) (A) (A) (A) (A) (A) (A) (A) (A) (A)
                 (A) (A) (A) (A) (A) (A) (A) (A) (A) (A) (A) (A)
                 (A) (A) (A) (A) (A) (A) (A) (A) (A) (A) (A) (A)
                 (A)
 The electronic state is 1-A.
 Alpha  occ. eigenvalues --  -20.56208 -20.55145 -11.27792 -11.26372 -11.22149
 Alpha  occ. eigenvalues --  -11.21071  -1.36927  -1.35741  -1.06498  -0.96940
 Alpha  occ. eigenvalues --   -0.87313  -0.78283  -0.71484  -0.69557  -0.64983
 Alpha  occ. eigenvalues --   -0.61892  -0.59420  -0.58236  -0.54201  -0.52613
 Alpha  occ. eigenvalues --   -0.48945  -0.48649  -0.46096  -0.44193  -0.42331
 Alpha virt. eigenvalues --    0.19976   0.23138   0.26495   0.27630   0.29675
 Alpha virt. eigenvalues --    0.31921   0.33445   0.35143   0.35901   0.36213
 Alpha virt. eigenvalues --    0.39561   0.40015   0.42070   0.43194   0.47538
 Alpha virt. eigenvalues --    0.70706   0.74014   0.77591   0.80364   0.82468
 Alpha virt. eigenvalues --    0.84980   0.85701   0.89648   0.93883   1.00185
 Alpha virt. eigenvalues --    1.06629   1.07543   1.08806   1.09695   1.12922
 Alpha virt. eigenvalues --    1.13258   1.16573   1.17696   1.19685   1.21708
 Alpha virt. eigenvalues --    1.22900   1.24420   1.25464   1.28626   1.31061
 Alpha virt. eigenvalues --    1.31107   1.34489   1.40890   1.48594   1.50395
 Alpha virt. eigenvalues --    1.65681   1.69647   1.72246   1.82082   1.85115
 Alpha virt. eigenvalues --    1.86783   1.91334   1.95587   2.03088   2.04468
 Alpha virt. eigenvalues --    2.08954   2.14022   2.15894   2.25371   2.30934
 Alpha virt. eigenvalues --    2.34605   2.39446   2.42812   2.48065   2.56365
 Alpha virt. eigenvalues --    2.60593   2.62386   2.67873   2.71733   2.73677
 Alpha virt. eigenvalues --    2.78166   2.80976   2.88357   2.89219   2.97844
 Alpha virt. eigenvalues --    3.05248   3.08238   3.20847   3.22304   4.17998
 Alpha virt. eigenvalues --    4.19355   4.57541   4.73755   4.85981   4.95191
          Condensed to atoms (all electrons):
               1          2          3          4          5          6
     1  C    5.167104   0.342856  -0.057434   0.323379  -0.052154   0.002706
     2  C    0.342856   4.785646   0.210736  -0.048674   0.000918  -0.000950
     3  O   -0.057434   0.210736   8.393841   0.001873  -0.000976   0.000008
     4  C    0.323379  -0.048674   0.001873   5.149561   0.347924  -0.061643
     5  C   -0.052154   0.000918  -0.000976   0.347924   4.792826   0.209926
     6  O    0.002706  -0.000950   0.000008  -0.061643   0.209926   8.395591
     7  H    0.384374  -0.035675   0.003070  -0.034329  -0.006395   0.004275
     8  H    0.399610  -0.038303   0.001242  -0.043857   0.004527   0.000029
     9  H   -0.047434   0.414494  -0.037455   0.004651  -0.000124  -0.000008
    10  H   -0.050670   0.398813  -0.038334  -0.007089   0.001201   0.001400
    11  H   -0.004754  -0.023958   0.261142   0.003680  -0.000211  -0.000007
    12  H   -0.040126   0.003943   0.000038   0.402241  -0.037530   0.001821
    13  H   -0.038748  -0.005231   0.004750   0.389553  -0.044661   0.002852
    14  H    0.005310  -0.000191  -0.000002  -0.044395   0.408532  -0.038382
    15  H   -0.008174   0.002646   0.000409  -0.042488   0.395672  -0.042854
    16  H   -0.000166   0.000004   0.000000   0.006125  -0.022031   0.262369
               7          8          9         10         11         12
     1  C    0.384374   0.399610  -0.047434  -0.050670  -0.004754  -0.040126
     2  C   -0.035675  -0.038303   0.414494   0.398813  -0.023958   0.003943
     3  O    0.003070   0.001242  -0.037455  -0.038334   0.261142   0.000038
     4  C   -0.034329  -0.043857   0.004651  -0.007089   0.003680   0.402241
     5  C   -0.006395   0.004527  -0.000124   0.001201  -0.000211  -0.037530
     6  O    0.004275   0.000029  -0.000008   0.001400  -0.000007   0.001821
     7  H    0.524689  -0.025881  -0.000599   0.000754  -0.000091  -0.002185
     8  H   -0.025881   0.539144  -0.004693   0.004919  -0.000258  -0.003535
     9  H   -0.000599  -0.004693   0.529223  -0.035822   0.005439  -0.000059
    10  H    0.000754   0.004919  -0.035822   0.589071  -0.005899  -0.000171
    11  H   -0.000091  -0.000258   0.005439  -0.005899   0.327071   0.000022
    12  H   -0.002185  -0.003535  -0.000059  -0.000171   0.000022   0.521809
    13  H    0.004539  -0.002344  -0.000058   0.000676   0.000282  -0.026249
    14  H   -0.000002  -0.000047   0.000001   0.000128  -0.000023  -0.005859
    15  H    0.000502  -0.000155   0.000039  -0.003566   0.001028   0.005031
    16  H   -0.000151   0.000005   0.000000   0.000002  -0.000000  -0.000176
              13         14         15         16
     1  C   -0.038748   0.005310  -0.008174  -0.000166
     2  C   -0.005231  -0.000191   0.002646   0.000004
     3  O    0.004750  -0.000002   0.000409   0.000000
     4  C    0.389553  -0.044395  -0.042488   0.006125
     5  C   -0.044661   0.408532   0.395672  -0.022031
     6  O    0.002852  -0.038382  -0.042854   0.262369
     7  H    0.004539  -0.000002   0.000502  -0.000151
     8  H   -0.002344  -0.000047  -0.000155   0.000005
     9  H   -0.000058   0.000001   0.000039   0.000000
    10  H    0.000676   0.000128  -0.003566   0.000002
    11  H    0.000282  -0.000023   0.001028  -0.000000
    12  H   -0.026249  -0.005859   0.005031  -0.000176
    13  H    0.562107  -0.000664  -0.000112  -0.000182
    14  H   -0.000664   0.580937  -0.049353  -0.003169
    15  H   -0.000112  -0.049353   0.617099  -0.003349
    16  H   -0.000182  -0.003169  -0.003349   0.319465
 Mulliken charges:
               1
     1  C   -0.325679
     2  C   -0.007076
     3  O   -0.742909
     4  C   -0.346513
     5  C    0.002554
     6  O   -0.737134
     7  H    0.183105
     8  H    0.169594
     9  H    0.172404
    10  H    0.144586
    11  H    0.436538
    12  H    0.180985
    13  H    0.153490
    14  H    0.147178
    15  H    0.127626
    16  H    0.441253
 Sum of Mulliken charges =  -0.00000
 Mulliken charges with hydrogens summed into heavy atoms:
               1
     1  C    0.027019
     2  C    0.309913
     3  O   -0.306371
     4  C   -0.012038
     5  C    0.277358
     6  O   -0.295882
 Electronic spatial extent (au):  <R**2>=            736.9804
 Charge=             -0.0000 electrons
 Dipole moment (field-independent basis, Debye):
    X=              2.2208    Y=             -1.2672    Z=              1.1907  Tot=              2.8205
 Quadrupole moment (field-independent basis, Debye-Ang):
   XX=            -43.2279   YY=            -36.1640   ZZ=            -35.9619
   XY=             -3.3026   XZ=              3.8475   YZ=             -0.5976
 Traceless Quadrupole moment (field-independent basis, Debye-Ang):
   XX=             -4.7767   YY=              2.2873   ZZ=              2.4894
   XY=             -3.3026   XZ=              3.8475   YZ=             -0.5976
 Octapole moment (field-independent basis, Debye-Ang**2):
  XXX=             37.1842  YYY=             -4.6540  ZZZ=              6.7643  XYY=             -5.4685
  XXY=              1.8058  XXZ=             10.7860  XZZ=              6.9084  YZZ=              0.2325
  YYZ=              3.3911  XYZ=              2.0762
 Hexadecapole moment (field-independent basis, Debye-Ang**3):
 XXXX=           -610.7846 YYYY=           -146.0153 ZZZZ=           -147.7052 XXXY=             -9.0024
 XXXZ=             49.0129 YYYX=             15.1148 YYYZ=             -2.5334 ZZZX=             10.8769
 ZZZY=              0.2841 XXYY=           -118.2553 XXZZ=           -107.8506 YYZZ=            -51.3861
 XXYZ=              4.6052 YYXZ=             -2.2228 ZZXY=              6.8747
 N-N= 2.584660589466D+02 E-N=-1.238061586136D+03  KE= 3.066101504831D+02
 1\1\GINC-GTX1080DELTA\FOpt\RHF\6-31G(d)\C4H10O2\MVEROT\17-Apr-2022\0\\
 # hf/6-31G* opt\\Optimisation de geometrie\\0,1\C,1.81890354,1.0985794
 979,1.4856438968\C,1.3546442971,1.2800330477,2.9268343238\O,1.09041784
 58,0.0638786946,3.5824411896\C,3.1207970428,0.3080215604,1.3091958306\
 C,4.3433978124,0.9266180101,1.9709424268\O,4.512154187,2.228864342,1.4
 751973093\H,1.9362315279,2.079828819,1.0377067292\H,1.0320189465,0.586
 6372703,0.9390186325\H,0.4202161797,1.8260146759,2.9340462848\H,2.0716
 771451,1.8713609318,3.4917376137\H,1.903675527,-0.3758549586,3.7827591
 373\H,3.3258365015,0.2123486631,0.2473900697\H,2.9990745575,-0.7041212
 338,1.6895375575\H,5.2170907779,0.3159755398,1.7516158285\H,4.22960075
 46,0.9450771888,3.0542045395\H,5.2807433572,2.622537951,1.8629586303\\
 Version=AM64L-G09RevD.01\State=1-A\HF=-306.9900795\RMSD=5.925e-09\RMSF
 =2.067e-05\Dipole=1.0936776,0.000745,0.1878247\Quadrupole=0.9716974,0.
 5106135,-1.4823109,-1.5777977,4.1337017,1.6110726\PG=C01 [X(C4H10O2)]\
 \@


 BREAD HAS TO MOLD IN ORDER TO GET PENICILLIN.
          -- JERRY BOATZ
 Job cpu time:       0 days  0 hours  0 minutes 47.2 seconds.
 File lengths (MBytes):  RWF=    132 Int=      0 D2E=      0 Chk=      3 Scr=      2
 Normal termination of Gaussian 09 at Sun Apr 17 23:38:50 2022.
