title                                                                   
SP        RZINDO                                                      STO-3G              
Number of atoms                            I               26
Info1-9                                    I   N=           9
          33          33           0           0           0         110
           1         108         590
Charge                                     I                0
Multiplicity                               I                1
Number of electrons                        I               88
Number of alpha electrons                  I               44
Number of beta electrons                   I               44
Number of basis functions                  I               80
Number of independent functions            I               80
Number of point charges in /Mol/           I                0
Number of translation vectors              I                0
Atomic numbers                             I   N=          26
           6           6           6           8           6           6
           8           6           6           6           6           6
           6           6           6           6           8           1
           8           1           1           1           1           1
           1           1
Nuclear charges                            R   N=          26
  4.00000000E+00  4.00000000E+00  4.00000000E+00  6.00000000E+00  4.00000000E+00
  4.00000000E+00  6.00000000E+00  4.00000000E+00  4.00000000E+00  4.00000000E+00
  4.00000000E+00  4.00000000E+00  4.00000000E+00  4.00000000E+00  4.00000000E+00
  4.00000000E+00  6.00000000E+00  1.00000000E+00  6.00000000E+00  1.00000000E+00
  1.00000000E+00  1.00000000E+00  1.00000000E+00  1.00000000E+00  1.00000000E+00
  1.00000000E+00
Current cartesian coordinates              R   N=          78
 -6.36553310E-01  2.75898202E+00 -1.16055219E-04  1.76197437E+00  1.34834161E+00
  1.31188738E-05 -3.02631074E+00  1.32330594E+00 -4.01753221E-05 -6.96506962E-01
  5.11182873E+00 -2.13381448E-04 -6.36551927E-01 -2.75898081E+00  1.12091746E-04
 -3.02631220E+00 -1.32330453E+00  4.27724680E-05 -6.96503930E-01 -5.11182836E+00
  1.65791840E-04  1.76197198E+00 -1.34833995E+00 -1.44911906E-05  4.07371762E+00
  2.63640594E+00  1.02772491E-04 -5.32397225E+00 -2.63666203E+00  8.48759939E-05
  4.07371485E+00 -2.63640552E+00 -9.88030565E-05 -5.32397247E+00  2.63666209E+00
 -7.41278407E-05  6.40729593E+00  1.29185678E+00  7.83350124E-05  6.40729500E+00
 -1.29186137E+00 -4.80175854E-05 -7.60562261E+00  1.31715875E+00 -2.88647782E-05
 -7.60562190E+00 -1.31715836E+00  4.94401494E-05  4.42192456E+00  5.19410322E+00
  1.67520329E-04 -5.30142443E+00 -4.72074051E+00  1.57253029E-04  4.42191781E+00
 -5.19410427E+00 -1.72937205E-04 -5.30142388E+00  4.72074133E+00 -1.46460096E-04
  8.17618543E+00  2.38899939E+00  1.45826307E-04  8.17618254E+00 -2.38900543E+00
 -9.37982028E-05 -9.40403260E+00  2.36219089E+00 -5.73699529E-05 -9.40403319E+00
 -2.36218938E+00  8.43860718E-05  2.82279605E+00  6.09103926E+00  4.49147010E-04
  2.82278413E+00 -6.09103350E+00 -4.92162748E-04
Force Field                                I                0
Int Atom Types                             I   N=          26
           0           0           0           0           0           0
           0           0           0           0           0           0
           0           0           0           0           0           0
           0           0           0           0           0           0
           0           0
MM charges                                 R   N=          26
  0.00000000E+00  0.00000000E+00  0.00000000E+00  0.00000000E+00  0.00000000E+00
  0.00000000E+00  0.00000000E+00  0.00000000E+00  0.00000000E+00  0.00000000E+00
  0.00000000E+00  0.00000000E+00  0.00000000E+00  0.00000000E+00  0.00000000E+00
  0.00000000E+00  0.00000000E+00  0.00000000E+00  0.00000000E+00  0.00000000E+00
  0.00000000E+00  0.00000000E+00  0.00000000E+00  0.00000000E+00  0.00000000E+00
  0.00000000E+00
Integer atomic weights                     I   N=          26
          12          12          12          16          12          12
          16          12          12          12          12          12
          12          12          12          12          16           1
          16           1           1           1           1           1
           1           1
Real atomic weights                        R   N=          26
  1.20000000E+01  1.20000000E+01  1.20000000E+01  1.59949146E+01  1.20000000E+01
  1.20000000E+01  1.59949146E+01  1.20000000E+01  1.20000000E+01  1.20000000E+01
  1.20000000E+01  1.20000000E+01  1.20000000E+01  1.20000000E+01  1.20000000E+01
  1.20000000E+01  1.59949146E+01  1.00782504E+00  1.59949146E+01  1.00782504E+00
  1.00782504E+00  1.00782504E+00  1.00782504E+00  1.00782504E+00  1.00782504E+00
  1.00782504E+00
Atom fragment info                         I   N=          26
           0           0           0           0           0           0
           0           0           0           0           0           0
           0           0           0           0           0           0
           0           0           0           0           0           0
           0           0
Atom residue num                           I   N=          26
           0           0           0           0           0           0
           0           0           0           0           0           0
           0           0           0           0           0           0
           0           0           0           0           0           0
           0           0
Nuclear spins                              I   N=          26
           0           0           0           0           0           0
           0           0           0           0           0           0
           0           0           0           0           0           1
           0           1           1           1           1           1
           1           1
Nuclear ZEff                               R   N=          26
 -3.90000000E+00 -3.90000000E+00 -3.90000000E+00 -6.00000000E+00 -3.90000000E+00
 -3.90000000E+00 -6.00000000E+00 -3.90000000E+00 -3.90000000E+00 -3.90000000E+00
 -3.90000000E+00 -3.90000000E+00 -3.90000000E+00 -3.90000000E+00 -3.90000000E+00
 -3.90000000E+00 -6.00000000E+00 -1.00000000E+00 -6.00000000E+00 -1.00000000E+00
 -1.00000000E+00 -1.00000000E+00 -1.00000000E+00 -1.00000000E+00 -1.00000000E+00
 -1.00000000E+00
Nuclear ZNuc                               R   N=          26
  6.00000000E+00  6.00000000E+00  6.00000000E+00  8.00000000E+00  6.00000000E+00
  6.00000000E+00  8.00000000E+00  6.00000000E+00  6.00000000E+00  6.00000000E+00
  6.00000000E+00  6.00000000E+00  6.00000000E+00  6.00000000E+00  6.00000000E+00
  6.00000000E+00  8.00000000E+00  1.00000000E+00  8.00000000E+00  1.00000000E+00
  1.00000000E+00  1.00000000E+00  1.00000000E+00  1.00000000E+00  1.00000000E+00
  1.00000000E+00
Nuclear QMom                               R   N=          26
  0.00000000E+00  0.00000000E+00  0.00000000E+00  0.00000000E+00  0.00000000E+00
  0.00000000E+00  0.00000000E+00  0.00000000E+00  0.00000000E+00  0.00000000E+00
  0.00000000E+00  0.00000000E+00  0.00000000E+00  0.00000000E+00  0.00000000E+00
  0.00000000E+00  0.00000000E+00  0.00000000E+00  0.00000000E+00  0.00000000E+00
  0.00000000E+00  0.00000000E+00  0.00000000E+00  0.00000000E+00  0.00000000E+00
  0.00000000E+00
Nuclear GFac                               R   N=          26
  0.00000000E+00  0.00000000E+00  0.00000000E+00  0.00000000E+00  0.00000000E+00
  0.00000000E+00  0.00000000E+00  0.00000000E+00  0.00000000E+00  0.00000000E+00
  0.00000000E+00  0.00000000E+00  0.00000000E+00  0.00000000E+00  0.00000000E+00
  0.00000000E+00  0.00000000E+00  2.79284600E+00  0.00000000E+00  2.79284600E+00
  2.79284600E+00  2.79284600E+00  2.79284600E+00  2.79284600E+00  2.79284600E+00
  2.79284600E+00
MicOpt                                     I   N=          26
          -1          -1          -1          -1          -1          -1
          -1          -1          -1          -1          -1          -1
          -1          -1          -1          -1          -1          -1
          -1          -1          -1          -1          -1          -1
          -1          -1
Number of contracted shells                I               44
Number of primitive shells                 I              264
Pure/Cartesian d shells                    I                0
Pure/Cartesian f shells                    I                0
Highest angular momentum                   I                1
Largest degree of contraction              I                6
Shell types                                I   N=          44
           0           1           0           1           0           1
           0           1           0           1           0           1
           0           1           0           1           0           1
           0           1           0           1           0           1
           0           1           0           1           0           1
           0           1           0           1           0           0
           1           0           0           0           0           0
           0           0
Number of primitives per shell             I   N=          44
           6           6           6           6           6           6
           6           6           6           6           6           6
           6           6           6           6           6           6
           6           6           6           6           6           6
           6           6           6           6           6           6
           6           6           6           6           6           6
           6           6           6           6           6           6
           6           6
Shell to atom map                          I   N=          44
           1           1           2           2           3           3
           4           4           5           5           6           6
           7           7           8           8           9           9
          10          10          11          11          12          12
          13          13          14          14          15          15
          16          16          17          17          18          19
          19          20          21          22          23          24
          25          26
Primitive exponents                        R   N=         264
  7.31056039E+01  1.34068245E+01  3.76760691E+00  5.38776153E-01  2.44529755E-01
  1.16614858E-01  1.54959425E+01  4.04102668E+00  1.44591785E+00  6.04421300E-01
  2.76382592E-01  1.30663938E-01  7.31056039E+01  1.34068245E+01  3.76760691E+00
  5.38776153E-01  2.44529755E-01  1.16614858E-01  1.54959425E+01  4.04102668E+00
  1.44591785E+00  6.04421300E-01  2.76382592E-01  1.30663938E-01  7.31056039E+01
  1.34068245E+01  3.76760691E+00  5.38776153E-01  2.44529755E-01  1.16614858E-01
  1.54959425E+01  4.04102668E+00  1.44591785E+00  6.04421300E-01  2.76382592E-01
  1.30663938E-01  1.43286984E+02  2.62773760E+01  7.38450955E+00  1.05600126E+00
  4.79278319E-01  2.28565122E-01  3.03720473E+01  7.92041230E+00  2.83399899E+00
  1.18466575E+00  5.41709880E-01  2.56101318E-01  7.31056039E+01  1.34068245E+01
  3.76760691E+00  5.38776153E-01  2.44529755E-01  1.16614858E-01  1.54959425E+01
  4.04102668E+00  1.44591785E+00  6.04421300E-01  2.76382592E-01  1.30663938E-01
  7.31056039E+01  1.34068245E+01  3.76760691E+00  5.38776153E-01  2.44529755E-01
  1.16614858E-01  1.54959425E+01  4.04102668E+00  1.44591785E+00  6.04421300E-01
  2.76382592E-01  1.30663938E-01  1.43286984E+02  2.62773760E+01  7.38450955E+00
  1.05600126E+00  4.79278319E-01  2.28565122E-01  3.03720473E+01  7.92041230E+00
  2.83399899E+00  1.18466575E+00  5.41709880E-01  2.56101318E-01  7.31056039E+01
  1.34068245E+01  3.76760691E+00  5.38776153E-01  2.44529755E-01  1.16614858E-01
  1.54959425E+01  4.04102668E+00  1.44591785E+00  6.04421300E-01  2.76382592E-01
  1.30663938E-01  7.31056039E+01  1.34068245E+01  3.76760691E+00  5.38776153E-01
  2.44529755E-01  1.16614858E-01  1.54959425E+01  4.04102668E+00  1.44591785E+00
  6.04421300E-01  2.76382592E-01  1.30663938E-01  7.31056039E+01  1.34068245E+01
  3.76760691E+00  5.38776153E-01  2.44529755E-01  1.16614858E-01  1.54959425E+01
  4.04102668E+00  1.44591785E+00  6.04421300E-01  2.76382592E-01  1.30663938E-01
  7.31056039E+01  1.34068245E+01  3.76760691E+00  5.38776153E-01  2.44529755E-01
  1.16614858E-01  1.54959425E+01  4.04102668E+00  1.44591785E+00  6.04421300E-01
  2.76382592E-01  1.30663938E-01  7.31056039E+01  1.34068245E+01  3.76760691E+00
  5.38776153E-01  2.44529755E-01  1.16614858E-01  1.54959425E+01  4.04102668E+00
  1.44591785E+00  6.04421300E-01  2.76382592E-01  1.30663938E-01  7.31056039E+01
  1.34068245E+01  3.76760691E+00  5.38776153E-01  2.44529755E-01  1.16614858E-01
  1.54959425E+01  4.04102668E+00  1.44591785E+00  6.04421300E-01  2.76382592E-01
  1.30663938E-01  7.31056039E+01  1.34068245E+01  3.76760691E+00  5.38776153E-01
  2.44529755E-01  1.16614858E-01  1.54959425E+01  4.04102668E+00  1.44591785E+00
  6.04421300E-01  2.76382592E-01  1.30663938E-01  7.31056039E+01  1.34068245E+01
  3.76760691E+00  5.38776153E-01  2.44529755E-01  1.16614858E-01  1.54959425E+01
  4.04102668E+00  1.44591785E+00  6.04421300E-01  2.76382592E-01  1.30663938E-01
  7.31056039E+01  1.34068245E+01  3.76760691E+00  5.38776153E-01  2.44529755E-01
  1.16614858E-01  1.54959425E+01  4.04102668E+00  1.44591785E+00  6.04421300E-01
  2.76382592E-01  1.30663938E-01  1.43286984E+02  2.62773760E+01  7.38450955E+00
  1.05600126E+00  4.79278319E-01  2.28565122E-01  3.03720473E+01  7.92041230E+00
  2.83399899E+00  1.18466575E+00  5.41709880E-01  2.56101318E-01  3.32683653E+01
  6.09971837E+00  1.70648139E+00  5.86222413E-01  2.27647318E-01  9.37577369E-02
  1.43286984E+02  2.62773760E+01  7.38450955E+00  1.05600126E+00  4.79278319E-01
  2.28565122E-01  3.03720473E+01  7.92041230E+00  2.83399899E+00  1.18466575E+00
  5.41709880E-01  2.56101318E-01  3.32683653E+01  6.09971837E+00  1.70648139E+00
  5.86222413E-01  2.27647318E-01  9.37577369E-02  3.32683653E+01  6.09971837E+00
  1.70648139E+00  5.86222413E-01  2.27647318E-01  9.37577369E-02  3.32683653E+01
  6.09971837E+00  1.70648139E+00  5.86222413E-01  2.27647318E-01  9.37577369E-02
  3.32683653E+01  6.09971837E+00  1.70648139E+00  5.86222413E-01  2.27647318E-01
  9.37577369E-02  3.32683653E+01  6.09971837E+00  1.70648139E+00  5.86222413E-01
  2.27647318E-01  9.37577369E-02  3.32683653E+01  6.09971837E+00  1.70648139E+00
  5.86222413E-01  2.27647318E-01  9.37577369E-02  3.32683653E+01  6.09971837E+00
  1.70648139E+00  5.86222413E-01  2.27647318E-01  9.37577369E-02
Contraction coefficients                   R   N=         264
 -4.15127782E-03 -2.06702415E-02 -5.15030334E-02  3.34627117E-01  5.62106130E-01
  1.71299470E-01  7.92423365E-03  5.14410483E-02  1.89840006E-01  4.04986319E-01
  4.01236286E-01  1.05185519E-01 -4.15127782E-03 -2.06702415E-02 -5.15030334E-02
  3.34627117E-01  5.62106130E-01  1.71299470E-01  7.92423365E-03  5.14410483E-02
  1.89840006E-01  4.04986319E-01  4.01236286E-01  1.05185519E-01 -4.15127782E-03
 -2.06702415E-02 -5.15030334E-02  3.34627117E-01  5.62106130E-01  1.71299470E-01
  7.92423365E-03  5.14410483E-02  1.89840006E-01  4.04986319E-01  4.01236286E-01
  1.05185519E-01 -4.15127782E-03 -2.06702415E-02 -5.15030334E-02  3.34627117E-01
  5.62106130E-01  1.71299470E-01  7.92423365E-03  5.14410483E-02  1.89840006E-01
  4.04986319E-01  4.01236286E-01  1.05185519E-01 -4.15127782E-03 -2.06702415E-02
 -5.15030334E-02  3.34627117E-01  5.62106130E-01  1.71299470E-01  7.92423365E-03
  5.14410483E-02  1.89840006E-01  4.04986319E-01  4.01236286E-01  1.05185519E-01
 -4.15127782E-03 -2.06702415E-02 -5.15030334E-02  3.34627117E-01  5.62106130E-01
  1.71299470E-01  7.92423365E-03  5.14410483E-02  1.89840006E-01  4.04986319E-01
  4.01236286E-01  1.05185519E-01 -4.15127782E-03 -2.06702415E-02 -5.15030334E-02
  3.34627117E-01  5.62106130E-01  1.71299470E-01  7.92423365E-03  5.14410483E-02
  1.89840006E-01  4.04986319E-01  4.01236286E-01  1.05185519E-01 -4.15127782E-03
 -2.06702415E-02 -5.15030334E-02  3.34627117E-01  5.62106130E-01  1.71299470E-01
  7.92423365E-03  5.14410483E-02  1.89840006E-01  4.04986319E-01  4.01236286E-01
  1.05185519E-01 -4.15127782E-03 -2.06702415E-02 -5.15030334E-02  3.34627117E-01
  5.62106130E-01  1.71299470E-01  7.92423365E-03  5.14410483E-02  1.89840006E-01
  4.04986319E-01  4.01236286E-01  1.05185519E-01 -4.15127782E-03 -2.06702415E-02
 -5.15030334E-02  3.34627117E-01  5.62106130E-01  1.71299470E-01  7.92423365E-03
  5.14410483E-02  1.89840006E-01  4.04986319E-01  4.01236286E-01  1.05185519E-01
 -4.15127782E-03 -2.06702415E-02 -5.15030334E-02  3.34627117E-01  5.62106130E-01
  1.71299470E-01  7.92423365E-03  5.14410483E-02  1.89840006E-01  4.04986319E-01
  4.01236286E-01  1.05185519E-01 -4.15127782E-03 -2.06702415E-02 -5.15030334E-02
  3.34627117E-01  5.62106130E-01  1.71299470E-01  7.92423365E-03  5.14410483E-02
  1.89840006E-01  4.04986319E-01  4.01236286E-01  1.05185519E-01 -4.15127782E-03
 -2.06702415E-02 -5.15030334E-02  3.34627117E-01  5.62106130E-01  1.71299470E-01
  7.92423365E-03  5.14410483E-02  1.89840006E-01  4.04986319E-01  4.01236286E-01
  1.05185519E-01 -4.15127782E-03 -2.06702415E-02 -5.15030334E-02  3.34627117E-01
  5.62106130E-01  1.71299470E-01  7.92423365E-03  5.14410483E-02  1.89840006E-01
  4.04986319E-01  4.01236286E-01  1.05185519E-01 -4.15127782E-03 -2.06702415E-02
 -5.15030334E-02  3.34627117E-01  5.62106130E-01  1.71299470E-01  7.92423365E-03
  5.14410483E-02  1.89840006E-01  4.04986319E-01  4.01236286E-01  1.05185519E-01
 -4.15127782E-03 -2.06702415E-02 -5.15030334E-02  3.34627117E-01  5.62106130E-01
  1.71299470E-01  7.92423365E-03  5.14410483E-02  1.89840006E-01  4.04986319E-01
  4.01236286E-01  1.05185519E-01 -4.15127782E-03 -2.06702415E-02 -5.15030334E-02
  3.34627117E-01  5.62106130E-01  1.71299470E-01  7.92423365E-03  5.14410483E-02
  1.89840006E-01  4.04986319E-01  4.01236286E-01  1.05185519E-01  9.16359628E-03
  4.93614929E-02  1.68538305E-01  3.70562800E-01  4.16491530E-01  1.30334084E-01
 -4.15127782E-03 -2.06702415E-02 -5.15030334E-02  3.34627117E-01  5.62106130E-01
  1.71299470E-01  7.92423365E-03  5.14410483E-02  1.89840006E-01  4.04986319E-01
  4.01236286E-01  1.05185519E-01  9.16359628E-03  4.93614929E-02  1.68538305E-01
  3.70562800E-01  4.16491530E-01  1.30334084E-01  9.16359628E-03  4.93614929E-02
  1.68538305E-01  3.70562800E-01  4.16491530E-01  1.30334084E-01  9.16359628E-03
  4.93614929E-02  1.68538305E-01  3.70562800E-01  4.16491530E-01  1.30334084E-01
  9.16359628E-03  4.93614929E-02  1.68538305E-01  3.70562800E-01  4.16491530E-01
  1.30334084E-01  9.16359628E-03  4.93614929E-02  1.68538305E-01  3.70562800E-01
  4.16491530E-01  1.30334084E-01  9.16359628E-03  4.93614929E-02  1.68538305E-01
  3.70562800E-01  4.16491530E-01  1.30334084E-01  9.16359628E-03  4.93614929E-02
  1.68538305E-01  3.70562800E-01  4.16491530E-01  1.30334084E-01
Coordinates of each shell                  R   N=         132
 -6.36553310E-01  2.75898202E+00 -1.16055219E-04 -6.36553310E-01  2.75898202E+00
 -1.16055219E-04  1.76197437E+00  1.34834161E+00  1.31188738E-05  1.76197437E+00
  1.34834161E+00  1.31188738E-05 -3.02631074E+00  1.32330594E+00 -4.01753221E-05
 -3.02631074E+00  1.32330594E+00 -4.01753221E-05 -6.96506962E-01  5.11182873E+00
 -2.13381448E-04 -6.96506962E-01  5.11182873E+00 -2.13381448E-04 -6.36551927E-01
 -2.75898081E+00  1.12091746E-04 -6.36551927E-01 -2.75898081E+00  1.12091746E-04
 -3.02631220E+00 -1.32330453E+00  4.27724680E-05 -3.02631220E+00 -1.32330453E+00
  4.27724680E-05 -6.96503930E-01 -5.11182836E+00  1.65791840E-04 -6.96503930E-01
 -5.11182836E+00  1.65791840E-04  1.76197198E+00 -1.34833995E+00 -1.44911906E-05
  1.76197198E+00 -1.34833995E+00 -1.44911906E-05  4.07371762E+00  2.63640594E+00
  1.02772491E-04  4.07371762E+00  2.63640594E+00  1.02772491E-04 -5.32397225E+00
 -2.63666203E+00  8.48759939E-05 -5.32397225E+00 -2.63666203E+00  8.48759939E-05
  4.07371485E+00 -2.63640552E+00 -9.88030565E-05  4.07371485E+00 -2.63640552E+00
 -9.88030565E-05 -5.32397247E+00  2.63666209E+00 -7.41278407E-05 -5.32397247E+00
  2.63666209E+00 -7.41278407E-05  6.40729593E+00  1.29185678E+00  7.83350124E-05
  6.40729593E+00  1.29185678E+00  7.83350124E-05  6.40729500E+00 -1.29186137E+00
 -4.80175854E-05  6.40729500E+00 -1.29186137E+00 -4.80175854E-05 -7.60562261E+00
  1.31715875E+00 -2.88647782E-05 -7.60562261E+00  1.31715875E+00 -2.88647782E-05
 -7.60562190E+00 -1.31715836E+00  4.94401494E-05 -7.60562190E+00 -1.31715836E+00
  4.94401494E-05  4.42192456E+00  5.19410322E+00  1.67520329E-04  4.42192456E+00
  5.19410322E+00  1.67520329E-04 -5.30142443E+00 -4.72074051E+00  1.57253029E-04
  4.42191781E+00 -5.19410427E+00 -1.72937205E-04  4.42191781E+00 -5.19410427E+00
 -1.72937205E-04 -5.30142388E+00  4.72074133E+00 -1.46460096E-04  8.17618543E+00
  2.38899939E+00  1.45826307E-04  8.17618254E+00 -2.38900543E+00 -9.37982028E-05
 -9.40403260E+00  2.36219089E+00 -5.73699529E-05 -9.40403319E+00 -2.36218938E+00
  8.43860718E-05  2.82279605E+00  6.09103926E+00  4.49147010E-04  2.82278413E+00
 -6.09103350E+00 -4.92162748E-04
Constraint Structure                       R   N=          78
 -6.36553310E-01  2.75898202E+00 -1.16055219E-04  1.76197437E+00  1.34834161E+00
  1.31188738E-05 -3.02631074E+00  1.32330594E+00 -4.01753221E-05 -6.96506962E-01
  5.11182873E+00 -2.13381448E-04 -6.36551927E-01 -2.75898081E+00  1.12091746E-04
 -3.02631220E+00 -1.32330453E+00  4.27724680E-05 -6.96503930E-01 -5.11182836E+00
  1.65791840E-04  1.76197198E+00 -1.34833995E+00 -1.44911906E-05  4.07371762E+00
  2.63640594E+00  1.02772491E-04 -5.32397225E+00 -2.63666203E+00  8.48759939E-05
  4.07371485E+00 -2.63640552E+00 -9.88030565E-05 -5.32397247E+00  2.63666209E+00
 -7.41278407E-05  6.40729593E+00  1.29185678E+00  7.83350124E-05  6.40729500E+00
 -1.29186137E+00 -4.80175854E-05 -7.60562261E+00  1.31715875E+00 -2.88647782E-05
 -7.60562190E+00 -1.31715836E+00  4.94401494E-05  4.42192456E+00  5.19410322E+00
  1.67520329E-04 -5.30142443E+00 -4.72074051E+00  1.57253029E-04  4.42191781E+00
 -5.19410427E+00 -1.72937205E-04 -5.30142388E+00  4.72074133E+00 -1.46460096E-04
  8.17618543E+00  2.38899939E+00  1.45826307E-04  8.17618254E+00 -2.38900543E+00
 -9.37982028E-05 -9.40403260E+00  2.36219089E+00 -5.73699529E-05 -9.40403319E+00
 -2.36218938E+00  8.43860718E-05  2.82279605E+00  6.09103926E+00  4.49147010E-04
  2.82278413E+00 -6.09103350E+00 -4.92162748E-04
Num ILSW                                   I              100
ILSW                                       I   N=         100
           0           0           0           0           2           0
           0           0           0           0           0          -1
           0           0           0           0           0           0
           0           0           1           0           0           0
           1           0           0           0           0           0
           0           0      100000           0          -1           0
           0           0           0           0           0           0
           0           0           0           5           0           0
           0           0           1           0           0           0
           0           0           4          41           0           0
           0           0           0           0           0           0
           0           0           0           0           0           0
           0           0           0           0           0           0
           0           0           0           0           0           0
           0           0           0           0           0           0
           0           0           0           0           0           0
           0           0           0           0
Num RLSW                                   I               41
RLSW                                       R   N=          41
  1.00000000E+00  1.00000000E+00  1.00000000E+00  1.00000000E+00  1.00000000E+00
  0.00000000E+00  0.00000000E+00  1.00000000E+00  0.00000000E+00  0.00000000E+00
  0.00000000E+00  0.00000000E+00  1.00000000E+00  0.00000000E+00  0.00000000E+00
  0.00000000E+00  0.00000000E+00  1.00000000E+00  0.00000000E+00  0.00000000E+00
  0.00000000E+00  0.00000000E+00  1.00000000E+00  0.00000000E+00  0.00000000E+00
  0.00000000E+00  0.00000000E+00  1.00000000E+00  0.00000000E+00  0.00000000E+00
  0.00000000E+00  0.00000000E+00  1.00000000E+00  0.00000000E+00  0.00000000E+00
  0.00000000E+00  0.00000000E+00  0.00000000E+00  1.00000000E+00  1.00000000E+00
  0.00000000E+00
MxBond                                     I                3
NBond                                      I   N=          26
           3           3           3           1           3           3
           1           3           3           3           3           3
           3           3           3           3           2           1
           2           1           1           1           1           1
           1           1
IBond                                      I   N=          78
           2           3           4           1           8           9
           1           6          12           1           0           0
           6           7           8           3           5          10
           5           0           0           2           5          11
           2          13          17           6          16          18
           8          14          19           3          15          20
           9          14          21          11          13          22
          12          16          23          10          15          24
           9          25           0          10           0           0
          11          26           0          12           0           0
          13           0           0          14           0           0
          15           0           0          16           0           0
          17           0           0          19           0           0
RBond                                      R   N=          78
  1.00000000E+00  1.00000000E+00  2.00000000E+00  1.00000000E+00  1.50000000E+00
  1.50000000E+00  1.00000000E+00  1.50000000E+00  1.50000000E+00  2.00000000E+00
  0.00000000E+00  0.00000000E+00  1.00000000E+00  2.00000000E+00  1.00000000E+00
  1.50000000E+00  1.00000000E+00  1.50000000E+00  2.00000000E+00  0.00000000E+00
  0.00000000E+00  1.50000000E+00  1.00000000E+00  1.50000000E+00  1.50000000E+00
  1.50000000E+00  1.50000000E+00  1.50000000E+00  1.50000000E+00  1.00000000E+00
  1.50000000E+00  1.50000000E+00  1.50000000E+00  1.50000000E+00  1.50000000E+00
  1.00000000E+00  1.50000000E+00  2.00000000E+00  1.00000000E+00  1.50000000E+00
  2.00000000E+00  1.00000000E+00  1.50000000E+00  1.50000000E+00  1.00000000E+00
  1.50000000E+00  1.50000000E+00  1.00000000E+00  1.50000000E+00  1.00000000E+00
  0.00000000E+00  1.00000000E+00  0.00000000E+00  0.00000000E+00  1.50000000E+00
  1.00000000E+00  0.00000000E+00  1.00000000E+00  0.00000000E+00  0.00000000E+00
  1.00000000E+00  0.00000000E+00  0.00000000E+00  1.00000000E+00  0.00000000E+00
  0.00000000E+00  1.00000000E+00  0.00000000E+00  0.00000000E+00  1.00000000E+00
  0.00000000E+00  0.00000000E+00  1.00000000E+00  0.00000000E+00  0.00000000E+00
  1.00000000E+00  0.00000000E+00  0.00000000E+00
Virial Ratio                               R      8.841664746445052E-01
SCF Energy                                 R     -1.322520502695163E+02
CIS Energy                                 R     -1.321553937947535E+02
Total Energy                               R     -1.321553937947535E+02
Post-SCF wavefunction norm                 R      1.000000000000000E+00
RMS Density                                R      4.571181324439850E-09
External E-field                           R   N=          35
  0.00000000E+00  0.00000000E+00  0.00000000E+00  0.00000000E+00  0.00000000E+00
  0.00000000E+00  0.00000000E+00  0.00000000E+00  0.00000000E+00  0.00000000E+00
  0.00000000E+00  0.00000000E+00  0.00000000E+00  0.00000000E+00  0.00000000E+00
  0.00000000E+00  0.00000000E+00  0.00000000E+00  0.00000000E+00  0.00000000E+00
  0.00000000E+00  0.00000000E+00  0.00000000E+00  0.00000000E+00  0.00000000E+00
  0.00000000E+00  0.00000000E+00  0.00000000E+00  0.00000000E+00  0.00000000E+00
  0.00000000E+00  0.00000000E+00  0.00000000E+00  0.00000000E+00  0.00000000E+00
IOpCl                                      I                0
IROHF                                      I                0
Alpha Orbital Energies                     R   N=          80
 -1.75248975E+00 -1.68159305E+00 -1.65609471E+00 -1.53894032E+00 -1.53511520E+00
 -1.50517640E+00 -1.34846007E+00 -1.22893081E+00 -1.22187675E+00 -1.08059776E+00
 -1.05245234E+00 -1.03245908E+00 -9.92886630E-01 -9.18312635E-01 -8.96362926E-01
 -8.49284614E-01 -7.61115276E-01 -7.28487387E-01 -7.28291177E-01 -6.83676739E-01
 -6.64254200E-01 -6.38821984E-01 -6.01182872E-01 -5.96295629E-01 -5.81412822E-01
 -5.75245477E-01 -5.64945490E-01 -5.46057187E-01 -5.43818612E-01 -5.42766354E-01
 -5.28779770E-01 -4.95999151E-01 -4.92940874E-01 -4.89304459E-01 -4.77028178E-01
 -4.70122158E-01 -4.68840126E-01 -4.31194908E-01 -3.72368884E-01 -3.65291934E-01
 -3.62370292E-01 -3.53081959E-01 -3.52270300E-01 -3.16713943E-01 -6.78665189E-02
 -1.85471108E-02 -2.41657701E-04  7.96885052E-03  4.59249280E-02  4.78214591E-02
  5.40556382E-02  8.33786341E-02  8.70042079E-02  8.98529961E-02  1.05742683E-01
  1.06054439E-01  1.13969272E-01  1.21245634E-01  1.29669799E-01  1.79399801E-01
  1.80326362E-01  1.81563336E-01  2.05042707E-01  2.31640320E-01  2.46246617E-01