 Entering Gaussian System, Link 0=g09
 Input=anthraquinone-2oh-2-zindo.com
 Output=anthraquinone-2oh-2-zindo.log
 Initial command:
 /opt/g09/l1.exe "/local/z485411/Gaussian/tmp/Gau-7885.inp" -scrdir="/local/z485411/Gaussian/tmp/"
 Entering Link 1 = /opt/g09/l1.exe PID=      7887.
  
 Copyright (c) 1988,1990,1992,1993,1995,1998,2003,2009,2013,
            Gaussian, Inc.  All Rights Reserved.
  
 This is part of the Gaussian(R) 09 program.  It is based on
 the Gaussian(R) 03 system (copyright 2003, Gaussian, Inc.),
 the Gaussian(R) 98 system (copyright 1998, Gaussian, Inc.),
 the Gaussian(R) 94 system (copyright 1995, Gaussian, Inc.),
 the Gaussian 92(TM) system (copyright 1992, Gaussian, Inc.),
 the Gaussian 90(TM) system (copyright 1990, Gaussian, Inc.),
 the Gaussian 88(TM) system (copyright 1988, Gaussian, Inc.),
 the Gaussian 86(TM) system (copyright 1986, Carnegie Mellon
 University), and the Gaussian 82(TM) system (copyright 1983,
 Carnegie Mellon University). Gaussian is a federally registered
 trademark of Gaussian, Inc.
  
 This software contains proprietary and confidential information,
 including trade secrets, belonging to Gaussian, Inc.
  
 This software is provided under written license and may be
 used, copied, transmitted, or stored only in accord with that
 written license.
  
 The following legend is applicable only to US Government
 contracts under FAR:
  
                    RESTRICTED RIGHTS LEGEND
  
 Use, reproduction and disclosure by the US Government is
 subject to restrictions as set forth in subparagraphs (a)
 and (c) of the Commercial Computer Software - Restricted
 Rights clause in FAR 52.227-19.
  
 Gaussian, Inc.
 340 Quinnipiac St., Bldg. 40, Wallingford CT 06492
  
  
 ---------------------------------------------------------------
 Warning -- This program may not be used in any manner that
 competes with the business of Gaussian, Inc. or will provide
 assistance to any competitor of Gaussian, Inc.  The licensee
 of this program is prohibited from giving any competitor of
 Gaussian, Inc. access to this program.  By using this program,
 the user acknowledges that Gaussian, Inc. is engaged in the
 business of creating and licensing software in the field of
 computational chemistry and represents and warrants to the
 licensee that it is not a competitor of Gaussian, Inc. and that
 it will not use this program in any manner prohibited above.
 ---------------------------------------------------------------
  

 Cite this work as:
 Gaussian 09, Revision D.01,
 M. J. Frisch, G. W. Trucks, H. B. Schlegel, G. E. Scuseria, 
 M. A. Robb, J. R. Cheeseman, G. Scalmani, V. Barone, B. Mennucci, 
 G. A. Petersson, H. Nakatsuji, M. Caricato, X. Li, H. P. Hratchian, 
 A. F. Izmaylov, J. Bloino, G. Zheng, J. L. Sonnenberg, M. Hada, 
 M. Ehara, K. Toyota, R. Fukuda, J. Hasegawa, M. Ishida, T. Nakajima, 
 Y. Honda, O. Kitao, H. Nakai, T. Vreven, J. A. Montgomery, Jr., 
 J. E. Peralta, F. Ogliaro, M. Bearpark, J. J. Heyd, E. Brothers, 
 K. N. Kudin, V. N. Staroverov, T. Keith, R. Kobayashi, J. Normand, 
 K. Raghavachari, A. Rendell, J. C. Burant, S. S. Iyengar, J. Tomasi, 
 M. Cossi, N. Rega, J. M. Millam, M. Klene, J. E. Knox, J. B. Cross, 
 V. Bakken, C. Adamo, J. Jaramillo, R. Gomperts, R. E. Stratmann, 
 O. Yazyev, A. J. Austin, R. Cammi, C. Pomelli, J. W. Ochterski, 
 R. L. Martin, K. Morokuma, V. G. Zakrzewski, G. A. Voth, 
 P. Salvador, J. J. Dannenberg, S. Dapprich, A. D. Daniels, 
 O. Farkas, J. B. Foresman, J. V. Ortiz, J. Cioslowski, 
 and D. J. Fox, Gaussian, Inc., Wallingford CT, 2013.
 
 ******************************************
 Gaussian 09:  AM64L-G09RevD.01 24-Apr-2013
                 7-Apr-2020 
 ******************************************
 %chk=anthraquinone-2oh-2-zindo
 ------------------
 # zindo(Nstate=10)
 ------------------
 1/38=1/1;
 2/12=2,17=6,18=5,40=1/2;
 3/5=2,16=1,25=1,41=400000/1,2,8,3;
 4/5=3,35=1/1;
 5/5=2,35=1,38=5/2;
 8/6=1,108=10/1;
 9/41=10,42=1,49=10/14;
 6/7=2,8=2,9=2,10=2/1;
 99/5=1,9=1/99;
 -----
 title
 -----
 Symbolic Z-matrix:
 Charge =  0 Multiplicity = 1
 6                    0     0.00629   0.00073  -0.00237 
 6                    0     0.01081  -0.00009   1.47622 
 6                    0     1.32132   0.00023  -0.67897 
 8                    0    -1.04637   0.0014   -0.6532 
 6                    0     2.52697  -0.00167   1.52732 
 6                    0     2.52     -0.00081   0.04846 
 8                    0     3.59029  -0.00229   2.16059 
 6                    0     1.21332  -0.00111   2.20597 
 6                    0    -1.21459   0.00023   2.17185 
 6                    0     3.7439   -0.00114  -0.63244 
 6                    0     1.16203  -0.0017    3.61412 
 6                    0     1.36023   0.0009   -2.07898 
 6                    0    -1.25131  -0.00039   3.57903 
 6                    0    -0.06923  -0.00134   4.29638 
 6                    0     2.58266   0.00055  -2.74965 
 6                    0     3.77442  -0.00046  -2.02643 
 8                    0    -2.36397   0.00118   1.42218 
 1                    0     4.68029  -0.00198  -0.04987 
 8                    0     2.35769  -0.00263   4.28754 
 1                    0     0.41115   0.00173  -2.64062 
 1                    0    -2.21972  -0.00011   4.10143 
 1                    0    -0.08551  -0.00183   5.39659 
 1                    0     2.6035    0.00109  -3.84985 
 1                    0     4.74071  -0.00074  -2.55287 
 1                    0    -3.11846   0.00146   2.03133 
 1                    0     2.16569  -0.00312   5.23805 
 
                          Input orientation:                          
 ---------------------------------------------------------------------
 Center     Atomic      Atomic             Coordinates (Angstroms)
 Number     Number       Type             X           Y           Z
 ---------------------------------------------------------------------
      1          6           0        0.006290    0.000733   -0.002367
      2          6           0        0.010811   -0.000094    1.476220
      3          6           0        1.321319    0.000228   -0.678969
      4          8           0       -1.046368    0.001403   -0.653196
      5          6           0        2.526974   -0.001672    1.527324
      6          6           0        2.520002   -0.000813    0.048459
      7          8           0        3.590293   -0.002291    2.160587
      8          6           0        1.213324   -0.001111    2.205971
      9          6           0       -1.214587    0.000231    2.171854
     10          6           0        3.743900   -0.001143   -0.632440
     11          6           0        1.162032   -0.001698    3.614117
     12          6           0        1.360233    0.000897   -2.078981
     13          6           0       -1.251313   -0.000394    3.579034
     14          6           0       -0.069234   -0.001339    4.296385
     15          6           0        2.582664    0.000553   -2.749654
     16          6           0        3.774421   -0.000463   -2.026429
     17          8           0       -2.363968    0.001182    1.422177
     18          1           0        4.680288   -0.001980   -0.049874
     19          8           0        2.357689   -0.002630    4.287539
     20          1           0        0.411149    0.001729   -2.640625
     21          1           0       -2.219718   -0.000110    4.101434
     22          1           0       -0.085513   -0.001829    5.396587
     23          1           0        2.603498    0.001094   -3.849846
     24          1           0        4.740714   -0.000739   -2.552866
     25          1           0       -3.118457    0.001464    2.031332
     26          1           0        2.165690   -0.003124    5.238045
 ---------------------------------------------------------------------
                    Distance matrix (angstroms):
                    1          2          3          4          5
     1  C    0.000000
     2  C    1.478594   0.000000
     3  C    1.478882   2.522354   0.000000
     4  O    1.237606   2.377402   2.367828   0.000000
     5  C    2.948526   2.516682   2.514227   4.186102   0.000000
     6  C    2.514226   2.886961   1.402139   3.634738   1.478882
     7  O    4.186103   3.644318   3.634739   5.423653   1.237606
     8  C    2.516683   1.406618   2.886961   3.644318   1.478593
     9  C    2.493547   1.409080   3.815496   2.830054   3.796670
    10  C    3.790346   4.287470   2.423028   4.790314   2.479010
    11  C    3.796670   2.428151   4.296040   4.804893   2.493546
    12  C    2.479009   3.802683   1.400553   2.797247   3.790347
    13  C    3.795787   2.452506   4.974839   4.237190   4.299415
    14  C    4.299416   2.821301   5.166022   5.045112   3.795786
    15  C    3.766336   4.946963   2.424609   4.191063   4.277341
    16  C    4.277340   5.141334   2.798814   5.012562   3.766336
    17  O    2.765402   2.375394   4.242188   2.458301   4.892073
    18  H    4.674240   4.912533   3.417373   5.758350   2.669141
    19  O    4.892073   3.662152   5.073487   5.999874   2.765401
    20  H    2.669142   4.136265   2.162523   2.464595   4.674241
    21  H    4.668650   3.444852   5.949050   4.897271   5.399734
    22  H    5.399735   3.921551   6.236310   6.125612   4.668649
    23  H    4.642045   5.923597   3.420299   4.851813   5.377715
    24  H    5.377715   6.213334   3.899199   6.090900   4.642047
    25  H    3.728267   3.178124   5.201667   3.391201   5.667885
    26  H    5.667887   4.335302   5.976958   6.709997   3.728268
                    6          7          8          9         10
     6  C    0.000000
     7  O    2.367828   0.000000
     8  C    2.522353   2.377403   0.000000
     9  C    4.296040   4.804894   2.428151   0.000000
    10  C    1.400553   2.797248   3.802682   5.696548   0.000000
    11  C    3.815495   2.830053   1.409080   2.780008   4.969838
    12  C    2.423029   4.790315   4.287470   4.969839   2.788253
    13  C    5.166021   5.045111   2.821301   1.407659   6.533656
    14  C    4.974839   4.237189   2.452506   2.413601   6.231638
    15  C    2.798815   5.012563   5.141334   6.216137   2.414760
    16  C    2.424609   4.191063   4.946961   6.520413   1.394323
    17  O    5.073487   5.999874   3.662152   1.372258   6.444184
    18  H    2.162523   2.464595   4.136264   6.299653   1.102817
    19  O    4.242187   2.458300   2.375394   4.151781   5.111534
    20  H    3.417373   5.758351   4.912534   5.079663   3.891021
    21  H    6.236309   6.125612   3.921551   2.175676   7.614086
    22  H    5.949049   4.897269   3.444852   3.416682   7.142379
    23  H    3.899200   6.090901   6.213333   7.130122   3.413535
    24  H    3.420300   4.851815   5.923598   7.601881   2.163718
    25  H    5.976957   6.709996   4.335301   1.909049   7.361225
    26  H    5.201668   3.391201   3.178125   4.563750   6.078926
                   11         12         13         14         15
    11  C    0.000000
    12  C    5.696548   0.000000
    13  C    2.413600   6.231638   0.000000
    14  C    1.407660   6.533657   1.382716   0.000000
    15  C    6.520413   1.394324   7.399437   7.528561   0.000000
    16  C    6.216135   2.414760   7.528560   7.399437   1.394037
    17  O    4.151781   5.111534   2.426940   3.677891   6.470961
    18  H    5.079661   3.891022   6.953623   6.438006   3.418895
    19  O    1.372259   6.444184   3.677891   2.426939   7.040789
    20  H    6.299654   1.102817   6.438008   6.953624   2.174251
    21  H    3.416682   7.142379   1.100323   2.159303   8.366617
    22  H    2.175676   7.614086   2.159303   1.100323   8.572072
    23  H    7.601880   2.163717   8.369458   8.573481   1.100389
    24  H    7.130122   3.413535   8.573482   8.369459   2.167004
    25  H    4.563749   6.078926   2.425203   3.798452   7.440471
    26  H    1.909050   7.361226   3.798452   2.425204   7.998576
                   16         17         18         19         20
    16  C    0.000000
    17  O    7.040789   0.000000
    18  H    2.174251   7.196422   0.000000
    19  O    6.470960   5.523075   4.920124   0.000000
    20  H    3.418895   4.920125   4.993751   7.196422   0.000000
    21  H    8.572071   2.683138   8.052543   4.581189   7.237183
    22  H    8.366616   4.581190   7.237182   2.683137   8.052544
    23  H    2.167005   7.243614   4.330456   8.141098   2.503719
    24  H    1.100390   8.141098   2.503722   7.243615   4.330455
    25  H    7.998575   0.969703   8.071670   5.922724   5.855365
    26  H    7.440471   5.922725   5.855364   0.969704   8.071671
                   21         22         23         24         25
    21  H    0.000000
    22  H    2.496449   0.000000
    23  H    9.299799   9.629502   0.000000
    24  H    9.629503   9.299800   2.499971   0.000000
    25  H    2.256780   4.530309   8.205426   9.098431   0.000000
    26  H    4.530309   2.256779   9.098432   8.205428   6.181039
                   26
    26  H    0.000000
 Stoichiometry    C14H8O4
 Framework group  C1[X(C14H8O4)]
 Deg. of freedom    72
 Full point group                 C1      NOp   1
 Largest Abelian subgroup         C1      NOp   1
 Largest concise Abelian subgroup C1      NOp   1
                         Standard orientation:                         
 ---------------------------------------------------------------------
 Center     Atomic      Atomic             Coordinates (Angstroms)
 Number     Number       Type             X           Y           Z
 ---------------------------------------------------------------------
      1          6           0       -0.333627   -1.474263    0.000125
      2          6           0        0.928066   -0.703309   -0.000003
      3          6           0       -1.594287   -0.701069    0.000012
      4          8           0       -0.343901   -2.711826   -0.000079
      5          6           0       -0.333626    1.474263   -0.000199
      6          6           0       -1.594286    0.701069   -0.000040
      7          8           0       -0.343900    2.711827    0.000053
      8          6           0        0.928066    0.703309   -0.000028
      9          6           0        2.158496   -1.390004   -0.000012
     10          6           0       -2.811341    1.394126   -0.000030
     11          6           0        2.158496    1.390004    0.000020
     12          6           0       -2.811341   -1.394126    0.000043
     13          6           0        3.380543   -0.691358    0.000005
     14          6           0        3.380543    0.691358    0.000036
     15          6           0       -4.018892   -0.697018    0.000043
     16          6           0       -4.018891    0.697019    0.000010
     17          8           0        2.113897   -2.761538   -0.000034
     18          1           0       -2.799104    2.496876   -0.000088
     19          8           0        2.113897    2.761537    0.000050
     20          1           0       -2.799105   -2.496875    0.000098
     21          1           0        4.329548   -1.248224    0.000013
     22          1           0        4.329547    1.248224    0.000055
     23          1           0       -4.970251   -1.249985    0.000077
     24          1           0       -4.970252    1.249985    0.000008
     25          1           0        3.026089   -3.090519    0.000127
     26          1           0        3.026090    3.090519   -0.000100
 ---------------------------------------------------------------------
 Rotational constants (GHZ):      0.7125064      0.3839343      0.2494943
 Standard basis: VSTO-6G (5D, 7F)
 There are    80 symmetry adapted cartesian basis functions of A   symmetry.
 There are    80 symmetry adapted basis functions of A   symmetry.
    80 basis functions,   480 primitive gaussians,    80 cartesian basis functions
    44 alpha electrons       44 beta electrons
       nuclear repulsion energy       613.5932236633 Hartrees.
 Integral buffers will be    131072 words long.
 Regular integral format.
 Two-electron integral symmetry is turned off.
 Do NDO integrals.
 One-electron integrals computed using PRISM.
 Generate ZINDO/S integrals.
 NDO Nuclear repulsion=   473.875917116597 Hartrees.
 NBasis=    80 RedAO= F EigKep=  0.00D+00  NBF=    80
 NBsUse=    80 1.00D-04 EigRej=  0.00D+00 NBFU=    80
 DipDrv:  will hold  3 matrices at once.
 Simple Huckel Guess.
 Overlap will be assumed to be unity.
 Requested convergence on RMS density matrix=1.00D-08 within 128 cycles.
 Requested convergence on MAX density matrix=1.00D-06.
 Requested convergence on             energy=1.00D-06.
 No special actions if energy rises.
 SCF Done:  E(RZINDO/S) =  -132.232046049     A.U. after   14 cycles
            NFock= 14  Conv=0.28D-08     -V/T= 0.8843
 Range of M.O.s used for correlation:     1    80
 NBasis=    80 NAE=    44 NBE=    44 NFC=     0 NFV=     0
 NROrb=     80 NOA=    44 NOB=    44 NVA=    36 NVB=    36
 Orbital symmetries:
       Occupied  (A) (A) (A) (A) (A) (A) (A) (A) (A) (A) (A) (A)
                 (A) (A) (A) (A) (A) (A) (A) (A) (A) (A) (A) (A)
                 (A) (A) (A) (A) (A) (A) (A) (A) (A) (A) (A) (A)
                 (A) (A) (A) (A) (A) (A) (A) (A)
       Virtual   (A) (A) (A) (A) (A) (A) (A) (A) (A) (A) (A) (A)
                 (A) (A) (A) (A) (A) (A) (A) (A) (A) (A) (A) (A)
                 (A) (A) (A) (A) (A) (A) (A) (A) (A) (A) (A) (A)
    40 initial guesses have been made.
 Convergence on wavefunction:    0.001000000000000
 Iteration     1 Dimension    40 NMult     0 NNew     40
 CISAX will form    40 AO SS matrices at one time.
 New state      1 was old state      5
 New state      2 was old state      6
 New state      3 was old state      1
 New state      4 was old state      2
 New state      5 was old state      3
 New state      6 was old state      7
 New state      7 was old state      8
 New state      8 was old state      4
 New state      9 was old state     11
 New state     10 was old state     28
 Iteration     2 Dimension    80 NMult    40 NNew     40
 New state      4 was old state      5
 New state      5 was old state      4
 New state     10 was old state     13
 Iteration     3 Dimension    90 NMult    80 NNew     10
 Iteration     4 Dimension   100 NMult    90 NNew     10
 Iteration     5 Dimension   110 NMult   100 NNew     10
 Iteration     6 Dimension   112 NMult   110 NNew      2
 ***********************************************************************
 Excited states from <AA,BB:AA,BB> singles matrix:
 ***********************************************************************
 
 Ground to excited state transition densities written to RWF  633
 Ground to excited state transition electric dipole moments (Au):
       state          X           Y           Z        Dip. S.      Osc.
         1        -0.0002     -0.0002     -0.0159      0.0003      0.0000
         2        -0.0003     -0.0001      0.0000      0.0000      0.0000
         3        -1.8196      0.0000     -0.0000      3.3109      0.2764
         4        -0.0000     -0.3614      0.0000      0.1306      0.0127
         5         0.9148     -0.0000     -0.0000      0.8369      0.0839
         6        -0.0000     -0.5966     -0.0001      0.3559      0.0385
         7         0.6144     -0.0000     -0.0000      0.3775      0.0450
         8         0.0000     -2.2260     -0.0001      4.9551      0.6021
         9         2.0727     -0.0000     -0.0000      4.2962      0.5402
        10        -0.0000      1.3894     -0.0001      1.9304      0.2575
 Ground to excited state transition velocity dipole moments (Au):
       state          X           Y           Z        Dip. S.      Osc.
         1         0.0000      0.0000      0.0072      0.0001      0.0004
         2        -0.0000      0.0000      0.0000      0.0000      0.0000
         3         0.1227     -0.0000      0.0000      0.0150      0.0801
         4         0.0000      0.0150      0.0000      0.0002      0.0010
         5        -0.0819     -0.0000      0.0000      0.0067      0.0298
         6        -0.0000      0.0103      0.0000      0.0001      0.0004
         7        -0.0733      0.0000     -0.0000      0.0054      0.0200
         8        -0.0000      0.1487     -0.0000      0.0221      0.0809
         9        -0.2459     -0.0000      0.0000      0.0605      0.2137
        10         0.0000     -0.1075      0.0000      0.0115      0.0385
 Ground to excited state transition magnetic dipole moments (Au):
       state          X           Y           Z
         1         0.0000     -0.9929     -0.0000
         2        -0.0721      0.0000      0.0001
         3         0.0001     -0.0000      0.0000
         4        -0.0000     -0.0002     -1.2715
         5        -0.0000     -0.0000     -0.0000
         6         0.0000      0.0000     -0.4627
         7         0.0001     -0.0000      0.0000
         8         0.0000      0.0001      0.9389
         9         0.0000     -0.0000      0.0000
        10        -0.0000      0.0050      0.5884
 Ground to excited state transition velocity quadrupole moments (Au):
       state          XX          YY          ZZ          XY          XZ          YZ
         1        -0.0001     -0.0000      0.0000      0.0002      0.0383      0.0000
         2         0.0001     -0.0001      0.0000     -0.0000      0.0000     -0.0354
         3         0.1822     -0.0053      0.0039      0.0000      0.0000      0.0000
         4        -0.0000      0.0000     -0.0000     -0.0883      0.0000     -0.0000
         5         0.5487     -0.0681      0.0151      0.0000      0.0000      0.0000
         6         0.0000      0.0000     -0.0000     -0.4583      0.0000     -0.0000
         7        -0.0927     -0.0227     -0.0099      0.0000      0.0000      0.0000
         8         0.0000     -0.0000     -0.0000      0.7323     -0.0000      0.0000
         9         1.2042     -0.2492      0.0301      0.0000     -0.0000     -0.0000
        10        -0.0000     -0.0000      0.0000      0.3687      0.0008      0.0000
 <0|del|b> * <b|rxdel|0> + <0|del|b> * <b|delr+rdel|0>
 Rotatory Strengths (R) in cgs (10**-40 erg-esu-cm/Gauss)
       state          XX          YY          ZZ    R(velocity)    E-M Angle
         1        -0.1694     -0.0049     -0.1606     -0.1116       90.00
         2         0.0000      0.0053      0.0018      0.0024       90.00
         3         0.0000      0.0384      0.0153      0.0179       90.00
         4        -0.0079     -0.0004     -0.0067     -0.0050       90.00
         5         0.0000      0.0072      0.0092      0.0055       90.00
         6        -0.0024     -0.0000      0.0015     -0.0003       90.00
         7        -0.0000     -0.0178     -0.0081     -0.0087       90.00
         8         0.0095     -0.0043      0.0393      0.0148       90.00
         9         0.0000     -0.0002     -0.0282     -0.0095       90.00
        10        -0.7064      0.0186     -1.1025     -0.5968       90.46
 1/2[<0|r|b>*<b|rxdel|0> + (<0|rxdel|b>*<b|r|0>)*]
 Rotatory Strengths (R) in cgs (10**-40 erg-esu-cm/Gauss)
       state          XX          YY          ZZ     R(length)
         1         0.0000     -0.1181     -0.0002     -0.0394
         2        -0.0158      0.0000     -0.0000     -0.0053
         3         0.0997      0.0000      0.0000      0.0332
         4        -0.0000     -0.0494      0.0097     -0.0133
         5         0.0275     -0.0000     -0.0000      0.0092
         6         0.0000      0.0148     -0.0311     -0.0054
         7        -0.0389     -0.0000      0.0000     -0.0130
         8        -0.0000      0.2279      0.0470      0.0916
         9        -0.0451     -0.0000      0.0000     -0.0150
        10        -0.0000     -4.8890      0.0566     -1.6108
  1/2[<0|del|b>*<b|r|0> + (<0|r|b>*<b|del|0>)*] (Au)
       state          X           Y           Z        Dip. S.   Osc.(frdel)
         1        -0.0000     -0.0000     -0.0001      0.0001      0.0001
         2         0.0000     -0.0000      0.0000     -0.0000     -0.0000
         3        -0.2232     -0.0000     -0.0000      0.2232      0.1488
         4        -0.0000     -0.0054      0.0000      0.0054      0.0036
         5        -0.0749      0.0000     -0.0000      0.0749      0.0500
         6         0.0000     -0.0062     -0.0000      0.0062      0.0041
         7        -0.0450     -0.0000      0.0000      0.0450      0.0300
         8        -0.0000     -0.3311      0.0000      0.3311      0.2207
         9        -0.5097      0.0000     -0.0000      0.5097      0.3398
        10        -0.0000     -0.1493     -0.0000      0.1493      0.0995

 Excitation energies and oscillator strengths:
 
 Excited State   1:      Singlet-A      2.5480 eV  486.60 nm  f=0.0000  <S**2>=0.000
      39 -> 46         0.28182
      39 -> 50        -0.22916
      40 -> 45         0.56774
      40 -> 49        -0.16249
 This state for optimization and/or second-order correction.
 Total Energy, E(CIS) =  -132.138409501    
 Copying the excited state density for this state as the 1-particle RhoCI density.
 
 Excited State   2:      Singlet-A      2.5701 eV  482.42 nm  f=0.0000  <S**2>=0.000
      39 -> 45         0.56352
      39 -> 49        -0.17039
      40 -> 46         0.28675
      40 -> 50        -0.22750
 
 Excited State   3:      Singlet-A      3.4070 eV  363.91 nm  f=0.2764  <S**2>=0.000
      44 -> 45         0.66156
      44 -> 47         0.16839
 
 Excited State   4:      Singlet-A      3.9671 eV  312.53 nm  f=0.0127  <S**2>=0.000
      41 -> 45        -0.29901
      42 -> 45         0.58616
      44 -> 46        -0.16128
 
 Excited State   5:      Singlet-A      4.0900 eV  303.14 nm  f=0.0839  <S**2>=0.000
      42 -> 46        -0.15977
      42 -> 48        -0.19453
      43 -> 45         0.60689
      43 -> 47        -0.22106
 
 Excited State   6:      Singlet-A      4.4194 eV  280.55 nm  f=0.0385  <S**2>=0.000
      41 -> 45         0.34891
      42 -> 45         0.29788
      43 -> 46         0.11948
      44 -> 46         0.42194
      44 -> 48        -0.25286
 
 Excited State   7:      Singlet-A      4.8679 eV  254.70 nm  f=0.0450  <S**2>=0.000
      41 -> 46        -0.29481
      41 -> 48         0.17491
      44 -> 45        -0.21181
      44 -> 47         0.50506
      44 -> 49         0.23933
 
 Excited State   8:      Singlet-A      4.9599 eV  249.97 nm  f=0.6021  <S**2>=0.000
      41 -> 45         0.48518
      43 -> 46         0.12176
      43 -> 48         0.12885
      44 -> 46        -0.42031
      44 -> 48         0.16353
 
 Excited State   9:      Singlet-A      5.1326 eV  241.56 nm  f=0.5402  <S**2>=0.000
      42 -> 46         0.46933
      42 -> 48         0.30257
      43 -> 45         0.31210
      43 -> 47         0.19738
      43 -> 49        -0.16795
 
 Excited State  10:      Singlet-A      5.4445 eV  227.72 nm  f=0.2575  <S**2>=0.000
      41 -> 45        -0.16716
      42 -> 45        -0.19443
      42 -> 47        -0.25526
      42 -> 49         0.10980
      43 -> 46         0.46943
      43 -> 48         0.33404
 SavETr:  write IOETrn=   770 NScale= 10 NData=  16 NLR=1 NState=   10 LETran=     190.

 **********************************************************************

            Population analysis using the SCF density.

 **********************************************************************

 Orbital symmetries:
       Occupied  (A) (A) (A) (A) (A) (A) (A) (A) (A) (A) (A) (A)
                 (A) (A) (A) (A) (A) (A) (A) (A) (A) (A) (A) (A)
                 (A) (A) (A) (A) (A) (A) (A) (A) (A) (A) (A) (A)
                 (A) (A) (A) (A) (A) (A) (A) (A)
       Virtual   (A) (A) (A) (A) (A) (A) (A) (A) (A) (A) (A) (A)
                 (A) (A) (A) (A) (A) (A) (A) (A) (A) (A) (A) (A)
                 (A) (A) (A) (A) (A) (A) (A) (A) (A) (A) (A) (A)
 The electronic state is 1-A.
 Alpha  occ. eigenvalues --   -1.74366  -1.66543  -1.65561  -1.55137  -1.53470
 Alpha  occ. eigenvalues --   -1.50244  -1.34972  -1.22673  -1.22077  -1.08607
 Alpha  occ. eigenvalues --   -1.05375  -1.00124  -0.98920  -0.91525  -0.87276
 Alpha  occ. eigenvalues --   -0.84613  -0.79323  -0.71703  -0.69531  -0.67737
 Alpha  occ. eigenvalues --   -0.66613  -0.63468  -0.60119  -0.59869  -0.59368
 Alpha  occ. eigenvalues --   -0.57418  -0.55768  -0.55362  -0.53987  -0.52988
 Alpha  occ. eigenvalues --   -0.52019  -0.49527  -0.49406  -0.48449  -0.47092
 Alpha  occ. eigenvalues --   -0.46537  -0.46523  -0.43499  -0.36454  -0.35856
 Alpha  occ. eigenvalues --   -0.35832  -0.34638  -0.34638  -0.31794
 Alpha virt. eigenvalues --   -0.06039  -0.01209   0.00275   0.01108   0.05157
 Alpha virt. eigenvalues --    0.05294   0.05931   0.08620   0.09000   0.09521
 Alpha virt. eigenvalues --    0.10656   0.11178   0.11822   0.12236   0.13496
 Alpha virt. eigenvalues --    0.18037   0.18510   0.18595   0.20770   0.23123
 Alpha virt. eigenvalues --    0.24100   0.24681   0.26450   0.30038   0.31239
 Alpha virt. eigenvalues --    0.31474   0.36967   0.37960   0.40070   0.40828
 Alpha virt. eigenvalues --    0.42214   0.44438   0.46147   0.46167   0.48095
 Alpha virt. eigenvalues --    0.50673
          Condensed to atoms (all electrons):
               1          2          3          4          5          6
     1  C    3.677573   0.000000   0.000000   0.000000   0.000000   0.000000
     2  C    0.000000   3.995285   0.000000   0.000000   0.000000   0.000000
     3  C    0.000000   0.000000   3.988830   0.000000   0.000000   0.000000
     4  O    0.000000   0.000000   0.000000   6.496465   0.000000   0.000000
     5  C    0.000000   0.000000   0.000000   0.000000   3.677573   0.000000
     6  C    0.000000   0.000000   0.000000   0.000000   0.000000   3.988830
     7  O    0.000000   0.000000   0.000000   0.000000   0.000000   0.000000
     8  C    0.000000   0.000000   0.000000   0.000000   0.000000   0.000000
     9  C    0.000000   0.000000   0.000000   0.000000   0.000000   0.000000
    10  C    0.000000   0.000000   0.000000   0.000000   0.000000   0.000000
    11  C    0.000000   0.000000   0.000000   0.000000   0.000000   0.000000
    12  C    0.000000   0.000000   0.000000   0.000000   0.000000   0.000000
    13  C    0.000000   0.000000   0.000000   0.000000   0.000000   0.000000
    14  C    0.000000   0.000000   0.000000   0.000000   0.000000   0.000000
    15  C    0.000000   0.000000   0.000000   0.000000   0.000000   0.000000
    16  C    0.000000   0.000000   0.000000   0.000000   0.000000   0.000000
    17  O    0.000000   0.000000   0.000000   0.000000   0.000000   0.000000
    18  H    0.000000   0.000000   0.000000   0.000000   0.000000   0.000000
    19  O    0.000000   0.000000   0.000000   0.000000   0.000000   0.000000
    20  H    0.000000   0.000000   0.000000   0.000000   0.000000   0.000000
    21  H    0.000000   0.000000   0.000000   0.000000   0.000000   0.000000
    22  H    0.000000   0.000000   0.000000   0.000000   0.000000   0.000000
    23  H    0.000000   0.000000   0.000000   0.000000   0.000000   0.000000
    24  H    0.000000   0.000000   0.000000   0.000000   0.000000   0.000000
    25  H    0.000000   0.000000   0.000000   0.000000   0.000000   0.000000
    26  H    0.000000   0.000000   0.000000   0.000000   0.000000   0.000000
               7          8          9         10         11         12
     1  C    0.000000   0.000000   0.000000   0.000000   0.000000   0.000000
     2  C    0.000000   0.000000   0.000000   0.000000   0.000000   0.000000
     3  C    0.000000   0.000000   0.000000   0.000000   0.000000   0.000000
     4  O    0.000000   0.000000   0.000000   0.000000   0.000000   0.000000
     5  C    0.000000   0.000000   0.000000   0.000000   0.000000   0.000000
     6  C    0.000000   0.000000   0.000000   0.000000   0.000000   0.000000
     7  O    6.496465   0.000000   0.000000   0.000000   0.000000   0.000000
     8  C    0.000000   3.995285   0.000000   0.000000   0.000000   0.000000
     9  C    0.000000   0.000000   3.838733   0.000000   0.000000   0.000000
    10  C    0.000000   0.000000   0.000000   3.999584   0.000000   0.000000
    11  C    0.000000   0.000000   0.000000   0.000000   3.838733   0.000000
    12  C    0.000000   0.000000   0.000000   0.000000   0.000000   3.999584
    13  C    0.000000   0.000000   0.000000   0.000000   0.000000   0.000000
    14  C    0.000000   0.000000   0.000000   0.000000   0.000000   0.000000
    15  C    0.000000   0.000000   0.000000   0.000000   0.000000   0.000000
    16  C    0.000000   0.000000   0.000000   0.000000   0.000000   0.000000
    17  O    0.000000   0.000000   0.000000   0.000000   0.000000   0.000000
    18  H    0.000000   0.000000   0.000000   0.000000   0.000000   0.000000
    19  O    0.000000   0.000000   0.000000   0.000000   0.000000   0.000000
    20  H    0.000000   0.000000   0.000000   0.000000   0.000000   0.000000
    21  H    0.000000   0.000000   0.000000   0.000000   0.000000   0.000000
    22  H    0.000000   0.000000   0.000000   0.000000   0.000000   0.000000
    23  H    0.000000   0.000000   0.000000   0.000000   0.000000   0.000000
    24  H    0.000000   0.000000   0.000000   0.000000   0.000000   0.000000
    25  H    0.000000   0.000000   0.000000   0.000000   0.000000   0.000000
    26  H    0.000000   0.000000   0.000000   0.000000   0.000000   0.000000
              13         14         15         16         17         18
     1  C    0.000000   0.000000   0.000000   0.000000   0.000000   0.000000
     2  C    0.000000   0.000000   0.000000   0.000000   0.000000   0.000000
     3  C    0.000000   0.000000   0.000000   0.000000   0.000000   0.000000
     4  O    0.000000   0.000000   0.000000   0.000000   0.000000   0.000000
     5  C    0.000000   0.000000   0.000000   0.000000   0.000000   0.000000
     6  C    0.000000   0.000000   0.000000   0.000000   0.000000   0.000000
     7  O    0.000000   0.000000   0.000000   0.000000   0.000000   0.000000
     8  C    0.000000   0.000000   0.000000   0.000000   0.000000   0.000000
     9  C    0.000000   0.000000   0.000000   0.000000   0.000000   0.000000
    10  C    0.000000   0.000000   0.000000   0.000000   0.000000   0.000000
    11  C    0.000000   0.000000   0.000000   0.000000   0.000000   0.000000
    12  C    0.000000   0.000000   0.000000   0.000000   0.000000   0.000000
    13  C    4.028174   0.000000   0.000000   0.000000   0.000000   0.000000
    14  C    0.000000   4.028174   0.000000   0.000000   0.000000   0.000000
    15  C    0.000000   0.000000   4.016042   0.000000   0.000000   0.000000
    16  C    0.000000   0.000000   0.000000   4.016042   0.000000   0.000000
    17  O    0.000000   0.000000   0.000000   0.000000   6.313708   0.000000
    18  H    0.000000   0.000000   0.000000   0.000000   0.000000   0.944276
    19  O    0.000000   0.000000   0.000000   0.000000   0.000000   0.000000
    20  H    0.000000   0.000000   0.000000   0.000000   0.000000   0.000000
    21  H    0.000000   0.000000   0.000000   0.000000   0.000000   0.000000
    22  H    0.000000   0.000000   0.000000   0.000000   0.000000   0.000000
    23  H    0.000000   0.000000   0.000000   0.000000   0.000000   0.000000
    24  H    0.000000   0.000000   0.000000   0.000000   0.000000   0.000000
    25  H    0.000000   0.000000   0.000000   0.000000   0.000000   0.000000
    26  H    0.000000   0.000000   0.000000   0.000000   0.000000   0.000000
              19         20         21         22         23         24
     1  C    0.000000   0.000000   0.000000   0.000000   0.000000   0.000000
     2  C    0.000000   0.000000   0.000000   0.000000   0.000000   0.000000
     3  C    0.000000   0.000000   0.000000   0.000000   0.000000   0.000000
     4  O    0.000000   0.000000   0.000000   0.000000   0.000000   0.000000
     5  C    0.000000   0.000000   0.000000   0.000000   0.000000   0.000000
     6  C    0.000000   0.000000   0.000000   0.000000   0.000000   0.000000
     7  O    0.000000   0.000000   0.000000   0.000000   0.000000   0.000000
     8  C    0.000000   0.000000   0.000000   0.000000   0.000000   0.000000
     9  C    0.000000   0.000000   0.000000   0.000000   0.000000   0.000000
    10  C    0.000000   0.000000   0.000000   0.000000   0.000000   0.000000
    11  C    0.000000   0.000000   0.000000   0.000000   0.000000   0.000000
    12  C    0.000000   0.000000   0.000000   0.000000   0.000000   0.000000
    13  C    0.000000   0.000000   0.000000   0.000000   0.000000   0.000000
    14  C    0.000000   0.000000   0.000000   0.000000   0.000000   0.000000
    15  C    0.000000   0.000000   0.000000   0.000000   0.000000   0.000000
    16  C    0.000000   0.000000   0.000000   0.000000   0.000000   0.000000
    17  O    0.000000   0.000000   0.000000   0.000000   0.000000   0.000000
    18  H    0.000000   0.000000   0.000000   0.000000   0.000000   0.000000
    19  O    6.313707   0.000000   0.000000   0.000000   0.000000   0.000000
    20  H    0.000000   0.944276   0.000000   0.000000   0.000000   0.000000
    21  H    0.000000   0.000000   0.956832   0.000000   0.000000   0.000000
    22  H    0.000000   0.000000   0.000000   0.956832   0.000000   0.000000
    23  H    0.000000   0.000000   0.000000   0.000000   0.961125   0.000000
    24  H    0.000000   0.000000   0.000000   0.000000   0.000000   0.961125
    25  H    0.000000   0.000000   0.000000   0.000000   0.000000   0.000000
    26  H    0.000000   0.000000   0.000000   0.000000   0.000000   0.000000
              25         26
     1  C    0.000000   0.000000
     2  C    0.000000   0.000000
     3  C    0.000000   0.000000
     4  O    0.000000   0.000000
     5  C    0.000000   0.000000
     6  C    0.000000   0.000000
     7  O    0.000000   0.000000
     8  C    0.000000   0.000000
     9  C    0.000000   0.000000
    10  C    0.000000   0.000000
    11  C    0.000000   0.000000
    12  C    0.000000   0.000000
    13  C    0.000000   0.000000
    14  C    0.000000   0.000000
    15  C    0.000000   0.000000
    16  C    0.000000   0.000000
    17  O    0.000000   0.000000
    18  H    0.000000   0.000000
    19  O    0.000000   0.000000
    20  H    0.000000   0.000000
    21  H    0.000000   0.000000
    22  H    0.000000   0.000000
    23  H    0.000000   0.000000
    24  H    0.000000   0.000000
    25  H    0.783371   0.000000
    26  H    0.000000   0.783372
 Mulliken charges:
               1
     1  C    0.322427
     2  C    0.004715
     3  C    0.011170
     4  O   -0.496465
     5  C    0.322427
     6  C    0.011170
     7  O   -0.496465
     8  C    0.004715
     9  C    0.161267
    10  C    0.000416
    11  C    0.161267
    12  C    0.000416
    13  C   -0.028174
    14  C   -0.028174
    15  C   -0.016042
    16  C   -0.016042
    17  O   -0.313708
    18  H    0.055724
    19  O   -0.313707
    20  H    0.055724
    21  H    0.043168
    22  H    0.043168
    23  H    0.038875
    24  H    0.038875
    25  H    0.216629
    26  H    0.216628
 Sum of Mulliken charges =  -0.00000
 Mulliken charges with hydrogens summed into heavy atoms:
               1
     1  C    0.322427
     2  C    0.004715
     3  C    0.011170
     4  O   -0.496465
     5  C    0.322427
     6  C    0.011170
     7  O   -0.496465
     8  C    0.004715
     9  C    0.161267
    10  C    0.056139
    11  C    0.161267
    12  C    0.056139
    13  C    0.014994
    14  C    0.014994
    15  C    0.022833
    16  C    0.022833
    17  O   -0.097079
    19  O   -0.097079
 Charge=             -0.0000 electrons
 Dipole moment (field-independent basis, Debye):
    X=              4.0109    Y=             -0.0000    Z=             -0.0000  Tot=              4.0109
 N-N= 4.738759171166D+02 E-N= 0.000000000000D+00  KE=-1.142475921032D+03
 1\1\GINC-GTX1080ALPHA\SP\RZINDO\STO-3G\C14H8O4\Z485411\07-Apr-2020\0\\
 # zindo(Nstate=10)\\title\\0,1\C,0,0.00629,0.000733,-0.002367\C,0,0.01
 0811,-0.000094,1.47622\C,0,1.321319,0.000228,-0.678969\O,0,-1.046368,0
 .001403,-0.653196\C,0,2.526974,-0.001672,1.527324\C,0,2.520002,-0.0008
 13,0.048459\O,0,3.590293,-0.002291,2.160587\C,0,1.213324,-0.001111,2.2
 05971\C,0,-1.214587,0.000231,2.171854\C,0,3.7439,-0.001143,-0.63244\C,
 0,1.162032,-0.001698,3.614117\C,0,1.360233,0.000897,-2.078981\C,0,-1.2
 51313,-0.000394,3.579034\C,0,-0.069234,-0.001339,4.296385\C,0,2.582664
 ,0.000553,-2.749654\C,0,3.774421,-0.000463,-2.026429\O,0,-2.363968,0.0
 01182,1.422177\H,0,4.680288,-0.00198,-0.049874\O,0,2.357689,-0.00263,4
 .287539\H,0,0.411149,0.001729,-2.640625\H,0,-2.219718,-0.00011,4.10143
 4\H,0,-0.085513,-0.001829,5.396587\H,0,2.603498,0.001094,-3.849846\H,0
 ,4.740714,-0.000739,-2.552866\H,0,-3.118457,0.001464,2.031332\H,0,2.16
 569,-0.003124,5.238045\\Version=AM64L-G09RevD.01\State=1-A\HF=-132.232
 046\RMSD=2.817e-09\PG=C01 [X(C14H8O4)]\\@


 GOORD'S AXIOM:  A MEETING IS AN EVENT AT WHICH
 THE MINUTES ARE KEPT AND THE HOURS ARE LOST.
 Job cpu time:       0 days  0 hours  0 minutes  0.9 seconds.
 File lengths (MBytes):  RWF=     31 Int=      0 D2E=      0 Chk=      5 Scr=      1
 Normal termination of Gaussian 09 at Tue Apr  7 14:42:21 2020.
