title                                                                   
SP        RZINDO                                                      STO-3G              
Number of atoms                            I               28
Info1-9                                    I   N=           9
          36          35           0           0           0         110
           1         108         590
Charge                                     I                0
Multiplicity                               I                1
Number of electrons                        I               88
Number of alpha electrons                  I               44
Number of beta electrons                   I               44
Number of basis functions                  I               82
Number of independent functions            I               82
Number of point charges in /Mol/           I                0
Number of translation vectors              I                0
Atomic numbers                             I   N=          28
           6           6           6           8           6           6
           8           6           6           6           6           6
           6           6           6           6           1           7
           1           7           1           1           1           1
           1           1           1           1
Nuclear charges                            R   N=          28
  4.00000000E+00  4.00000000E+00  4.00000000E+00  6.00000000E+00  4.00000000E+00
  4.00000000E+00  6.00000000E+00  4.00000000E+00  4.00000000E+00  4.00000000E+00
  4.00000000E+00  4.00000000E+00  4.00000000E+00  4.00000000E+00  4.00000000E+00
  4.00000000E+00  1.00000000E+00  5.00000000E+00  1.00000000E+00  5.00000000E+00
  1.00000000E+00  1.00000000E+00  1.00000000E+00  1.00000000E+00  1.00000000E+00
  1.00000000E+00  1.00000000E+00  1.00000000E+00
Current cartesian coordinates              R   N=          84
 -6.21636969E-01  2.73853192E+00 -2.98757222E-01 -3.01858337E+00  1.31454554E+00
 -1.36397718E-01  1.76843933E+00  1.34491619E+00  4.10768716E-02 -7.01378191E-01
  5.03536724E+00 -8.01569941E-01 -6.21863662E-01 -2.73819340E+00  3.00809735E-01
  1.76822607E+00 -1.34493506E+00 -4.03777423E-02 -7.01582518E-01 -5.03453882E+00
  8.05828525E-01 -3.01870685E+00 -1.31427275E+00  1.36818544E-01 -5.31648617E+00
  2.62197461E+00 -2.72897635E-01  4.06654936E+00 -2.67679184E+00 -3.21392976E-01
 -5.31669605E+00 -2.62168655E+00  2.71889672E-01  4.06722745E+00  2.67632432E+00
  3.20720661E-01 -7.59735785E+00  1.31088721E+00 -1.36546288E-01 -7.59746595E+00
 -1.31058177E+00  1.34019816E-01  6.37779883E+00  1.27689433E+00  1.80276036E-01
  6.37746145E+00 -1.27776469E+00 -1.82753626E-01 -5.29183514E+00  4.69358190E+00
 -4.94644938E-01  4.23144487E+00 -5.23087042E+00 -8.94459575E-01 -5.29219967E+00
 -4.69328045E+00  4.93765874E-01  4.23310880E+00  5.23028167E+00  8.93915767E-01
 -9.39586257E+00  2.34906592E+00 -2.44510518E-01 -9.39605209E+00 -2.34873659E+00
  2.40826988E-01  8.19344367E+00  2.28508838E+00  3.51681195E-01  8.19280882E+00
 -2.28625360E+00 -3.55555710E-01  5.83710763E+00  6.06308570E+00  3.77136222E-01
  2.69449249E+00  6.27975453E+00  6.21230202E-01  5.83565803E+00 -6.06395065E+00
 -3.78791326E-01  2.69281498E+00 -6.27994969E+00 -6.20328770E-01
Force Field                                I                0
Int Atom Types                             I   N=          28
           0           0           0           0           0           0
           0           0           0           0           0           0
           0           0           0           0           0           0
           0           0           0           0           0           0
           0           0           0           0
MM charges                                 R   N=          28
  0.00000000E+00  0.00000000E+00  0.00000000E+00  0.00000000E+00  0.00000000E+00
  0.00000000E+00  0.00000000E+00  0.00000000E+00  0.00000000E+00  0.00000000E+00
  0.00000000E+00  0.00000000E+00  0.00000000E+00  0.00000000E+00  0.00000000E+00
  0.00000000E+00  0.00000000E+00  0.00000000E+00  0.00000000E+00  0.00000000E+00
  0.00000000E+00  0.00000000E+00  0.00000000E+00  0.00000000E+00  0.00000000E+00
  0.00000000E+00  0.00000000E+00  0.00000000E+00
Integer atomic weights                     I   N=          28
          12          12          12          16          12          12
          16          12          12          12          12          12
          12          12          12          12           1          14
           1          14           1           1           1           1
           1           1           1           1
Real atomic weights                        R   N=          28
  1.20000000E+01  1.20000000E+01  1.20000000E+01  1.59949146E+01  1.20000000E+01
  1.20000000E+01  1.59949146E+01  1.20000000E+01  1.20000000E+01  1.20000000E+01
  1.20000000E+01  1.20000000E+01  1.20000000E+01  1.20000000E+01  1.20000000E+01
  1.20000000E+01  1.00782504E+00  1.40030740E+01  1.00782504E+00  1.40030740E+01
  1.00782504E+00  1.00782504E+00  1.00782504E+00  1.00782504E+00  1.00782504E+00
  1.00782504E+00  1.00782504E+00  1.00782504E+00
Atom fragment info                         I   N=          28
           0           0           0           0           0           0
           0           0           0           0           0           0
           0           0           0           0           0           0
           0           0           0           0           0           0
           0           0           0           0
Atom residue num                           I   N=          28
           0           0           0           0           0           0
           0           0           0           0           0           0
           0           0           0           0           0           0
           0           0           0           0           0           0
           0           0           0           0
Nuclear spins                              I   N=          28
           0           0           0           0           0           0
           0           0           0           0           0           0
           0           0           0           0           1           2
           1           2           1           1           1           1
           1           1           1           1
Nuclear ZEff                               R   N=          28
 -3.90000000E+00 -3.90000000E+00 -3.90000000E+00 -6.00000000E+00 -3.90000000E+00
 -3.90000000E+00 -6.00000000E+00 -3.90000000E+00 -3.90000000E+00 -3.90000000E+00
 -3.90000000E+00 -3.90000000E+00 -3.90000000E+00 -3.90000000E+00 -3.90000000E+00
 -3.90000000E+00 -1.00000000E+00 -4.90000000E+00 -1.00000000E+00 -4.90000000E+00
 -1.00000000E+00 -1.00000000E+00 -1.00000000E+00 -1.00000000E+00 -1.00000000E+00
 -1.00000000E+00 -1.00000000E+00 -1.00000000E+00
Nuclear ZNuc                               R   N=          28
  6.00000000E+00  6.00000000E+00  6.00000000E+00  8.00000000E+00  6.00000000E+00
  6.00000000E+00  8.00000000E+00  6.00000000E+00  6.00000000E+00  6.00000000E+00
  6.00000000E+00  6.00000000E+00  6.00000000E+00  6.00000000E+00  6.00000000E+00
  6.00000000E+00  1.00000000E+00  7.00000000E+00  1.00000000E+00  7.00000000E+00
  1.00000000E+00  1.00000000E+00  1.00000000E+00  1.00000000E+00  1.00000000E+00
  1.00000000E+00  1.00000000E+00  1.00000000E+00
Nuclear QMom                               R   N=          28
  0.00000000E+00  0.00000000E+00  0.00000000E+00  0.00000000E+00  0.00000000E+00
  0.00000000E+00  0.00000000E+00  0.00000000E+00  0.00000000E+00  0.00000000E+00
  0.00000000E+00  0.00000000E+00  0.00000000E+00  0.00000000E+00  0.00000000E+00
  0.00000000E+00  0.00000000E+00  2.04400000E+00  0.00000000E+00  2.04400000E+00
  0.00000000E+00  0.00000000E+00  0.00000000E+00  0.00000000E+00  0.00000000E+00
  0.00000000E+00  0.00000000E+00  0.00000000E+00
Nuclear GFac                               R   N=          28
  0.00000000E+00  0.00000000E+00  0.00000000E+00  0.00000000E+00  0.00000000E+00
  0.00000000E+00  0.00000000E+00  0.00000000E+00  0.00000000E+00  0.00000000E+00
  0.00000000E+00  0.00000000E+00  0.00000000E+00  0.00000000E+00  0.00000000E+00
  0.00000000E+00  2.79284600E+00  4.03761000E-01  2.79284600E+00  4.03761000E-01
  2.79284600E+00  2.79284600E+00  2.79284600E+00  2.79284600E+00  2.79284600E+00
  2.79284600E+00  2.79284600E+00  2.79284600E+00
MicOpt                                     I   N=          28
          -1          -1          -1          -1          -1          -1
          -1          -1          -1          -1          -1          -1
          -1          -1          -1          -1          -1          -1
          -1          -1          -1          -1          -1          -1
          -1          -1          -1          -1
Number of contracted shells                I               46
Number of primitive shells                 I              276
Pure/Cartesian d shells                    I                0
Pure/Cartesian f shells                    I                0
Highest angular momentum                   I                1
Largest degree of contraction              I                6
Shell types                                I   N=          46
           0           1           0           1           0           1
           0           1           0           1           0           1
           0           1           0           1           0           1
           0           1           0           1           0           1
           0           1           0           1           0           1
           0           1           0           0           1           0
           0           1           0           0           0           0
           0           0           0           0
Number of primitives per shell             I   N=          46
           6           6           6           6           6           6
           6           6           6           6           6           6
           6           6           6           6           6           6
           6           6           6           6           6           6
           6           6           6           6           6           6
           6           6           6           6           6           6
           6           6           6           6           6           6
           6           6           6           6
Shell to atom map                          I   N=          46
           1           1           2           2           3           3
           4           4           5           5           6           6
           7           7           8           8           9           9
          10          10          11          11          12          12
          13          13          14          14          15          15
          16          16          17          18          18          19
          20          20          21          22          23          24
          25          26          27          28
Primitive exponents                        R   N=         276
  7.31056039E+01  1.34068245E+01  3.76760691E+00  5.38776153E-01  2.44529755E-01
  1.16614858E-01  1.54959425E+01  4.04102668E+00  1.44591785E+00  6.04421300E-01
  2.76382592E-01  1.30663938E-01  7.31056039E+01  1.34068245E+01  3.76760691E+00
  5.38776153E-01  2.44529755E-01  1.16614858E-01  1.54959425E+01  4.04102668E+00
  1.44591785E+00  6.04421300E-01  2.76382592E-01  1.30663938E-01  7.31056039E+01
  1.34068245E+01  3.76760691E+00  5.38776153E-01  2.44529755E-01  1.16614858E-01
  1.54959425E+01  4.04102668E+00  1.44591785E+00  6.04421300E-01  2.76382592E-01
  1.30663938E-01  1.43286984E+02  2.62773760E+01  7.38450955E+00  1.05600126E+00
  4.79278319E-01  2.28565122E-01  3.03720473E+01  7.92041230E+00  2.83399899E+00
  1.18466575E+00  5.41709880E-01  2.56101318E-01  7.31056039E+01  1.34068245E+01
  3.76760691E+00  5.38776153E-01  2.44529755E-01  1.16614858E-01  1.54959425E+01
  4.04102668E+00  1.44591785E+00  6.04421300E-01  2.76382592E-01  1.30663938E-01
  7.31056039E+01  1.34068245E+01  3.76760691E+00  5.38776153E-01  2.44529755E-01
  1.16614858E-01  1.54959425E+01  4.04102668E+00  1.44591785E+00  6.04421300E-01
  2.76382592E-01  1.30663938E-01  1.43286984E+02  2.62773760E+01  7.38450955E+00
  1.05600126E+00  4.79278319E-01  2.28565122E-01  3.03720473E+01  7.92041230E+00
  2.83399899E+00  1.18466575E+00  5.41709880E-01  2.56101318E-01  7.31056039E+01
  1.34068245E+01  3.76760691E+00  5.38776153E-01  2.44529755E-01  1.16614858E-01
  1.54959425E+01  4.04102668E+00  1.44591785E+00  6.04421300E-01  2.76382592E-01
  1.30663938E-01  7.31056039E+01  1.34068245E+01  3.76760691E+00  5.38776153E-01
  2.44529755E-01  1.16614858E-01  1.54959425E+01  4.04102668E+00  1.44591785E+00
  6.04421300E-01  2.76382592E-01  1.30663938E-01  7.31056039E+01  1.34068245E+01
  3.76760691E+00  5.38776153E-01  2.44529755E-01  1.16614858E-01  1.54959425E+01
  4.04102668E+00  1.44591785E+00  6.04421300E-01  2.76382592E-01  1.30663938E-01
  7.31056039E+01  1.34068245E+01  3.76760691E+00  5.38776153E-01  2.44529755E-01
  1.16614858E-01  1.54959425E+01  4.04102668E+00  1.44591785E+00  6.04421300E-01
  2.76382592E-01  1.30663938E-01  7.31056039E+01  1.34068245E+01  3.76760691E+00
  5.38776153E-01  2.44529755E-01  1.16614858E-01  1.54959425E+01  4.04102668E+00
  1.44591785E+00  6.04421300E-01  2.76382592E-01  1.30663938E-01  7.31056039E+01
  1.34068245E+01  3.76760691E+00  5.38776153E-01  2.44529755E-01  1.16614858E-01
  1.54959425E+01  4.04102668E+00  1.44591785E+00  6.04421300E-01  2.76382592E-01
  1.30663938E-01  7.31056039E+01  1.34068245E+01  3.76760691E+00  5.38776153E-01
  2.44529755E-01  1.16614858E-01  1.54959425E+01  4.04102668E+00  1.44591785E+00
  6.04421300E-01  2.76382592E-01  1.30663938E-01  7.31056039E+01  1.34068245E+01
  3.76760691E+00  5.38776153E-01  2.44529755E-01  1.16614858E-01  1.54959425E+01
  4.04102668E+00  1.44591785E+00  6.04421300E-01  2.76382592E-01  1.30663938E-01
  7.31056039E+01  1.34068245E+01  3.76760691E+00  5.38776153E-01  2.44529755E-01
  1.16614858E-01  1.54959425E+01  4.04102668E+00  1.44591785E+00  6.04421300E-01
  2.76382592E-01  1.30663938E-01  3.32683653E+01  6.09971837E+00  1.70648139E+00
  5.86222413E-01  2.27647318E-01  9.37577369E-02  1.05272070E+02  1.93058272E+01
  5.42535396E+00  7.75837661E-01  3.52122847E-01  1.67925396E-01  2.23141572E+01
  5.81907842E+00  2.08212170E+00  8.70366672E-01  3.97990932E-01  1.88156070E-01
  3.32683653E+01  6.09971837E+00  1.70648139E+00  5.86222413E-01  2.27647318E-01
  9.37577369E-02  1.05272070E+02  1.93058272E+01  5.42535396E+00  7.75837661E-01
  3.52122847E-01  1.67925396E-01  2.23141572E+01  5.81907842E+00  2.08212170E+00
  8.70366672E-01  3.97990932E-01  1.88156070E-01  3.32683653E+01  6.09971837E+00
  1.70648139E+00  5.86222413E-01  2.27647318E-01  9.37577369E-02  3.32683653E+01
  6.09971837E+00  1.70648139E+00  5.86222413E-01  2.27647318E-01  9.37577369E-02
  3.32683653E+01  6.09971837E+00  1.70648139E+00  5.86222413E-01  2.27647318E-01
  9.37577369E-02  3.32683653E+01  6.09971837E+00  1.70648139E+00  5.86222413E-01
  2.27647318E-01  9.37577369E-02  3.32683653E+01  6.09971837E+00  1.70648139E+00
  5.86222413E-01  2.27647318E-01  9.37577369E-02  3.32683653E+01  6.09971837E+00
  1.70648139E+00  5.86222413E-01  2.27647318E-01  9.37577369E-02  3.32683653E+01
  6.09971837E+00  1.70648139E+00  5.86222413E-01  2.27647318E-01  9.37577369E-02
  3.32683653E+01  6.09971837E+00  1.70648139E+00  5.86222413E-01  2.27647318E-01
  9.37577369E-02
Contraction coefficients                   R   N=         276
 -4.15127782E-03 -2.06702415E-02 -5.15030334E-02  3.34627117E-01  5.62106130E-01
  1.71299470E-01  7.92423365E-03  5.14410483E-02  1.89840006E-01  4.04986319E-01
  4.01236286E-01  1.05185519E-01 -4.15127782E-03 -2.06702415E-02 -5.15030334E-02
  3.34627117E-01  5.62106130E-01  1.71299470E-01  7.92423365E-03  5.14410483E-02
  1.89840006E-01  4.04986319E-01  4.01236286E-01  1.05185519E-01 -4.15127782E-03
 -2.06702415E-02 -5.15030334E-02  3.34627117E-01  5.62106130E-01  1.71299470E-01
  7.92423365E-03  5.14410483E-02  1.89840006E-01  4.04986319E-01  4.01236286E-01
  1.05185519E-01 -4.15127782E-03 -2.06702415E-02 -5.15030334E-02  3.34627117E-01
  5.62106130E-01  1.71299470E-01  7.92423365E-03  5.14410483E-02  1.89840006E-01
  4.04986319E-01  4.01236286E-01  1.05185519E-01 -4.15127782E-03 -2.06702415E-02
 -5.15030334E-02  3.34627117E-01  5.62106130E-01  1.71299470E-01  7.92423365E-03
  5.14410483E-02  1.89840006E-01  4.04986319E-01  4.01236286E-01  1.05185519E-01
 -4.15127782E-03 -2.06702415E-02 -5.15030334E-02  3.34627117E-01  5.62106130E-01
  1.71299470E-01  7.92423365E-03  5.14410483E-02  1.89840006E-01  4.04986319E-01
  4.01236286E-01  1.05185519E-01 -4.15127782E-03 -2.06702415E-02 -5.15030334E-02
  3.34627117E-01  5.62106130E-01  1.71299470E-01  7.92423365E-03  5.14410483E-02
  1.89840006E-01  4.04986319E-01  4.01236286E-01  1.05185519E-01 -4.15127782E-03
 -2.06702415E-02 -5.15030334E-02  3.34627117E-01  5.62106130E-01  1.71299470E-01
  7.92423365E-03  5.14410483E-02  1.89840006E-01  4.04986319E-01  4.01236286E-01
  1.05185519E-01 -4.15127782E-03 -2.06702415E-02 -5.15030334E-02  3.34627117E-01
  5.62106130E-01  1.71299470E-01  7.92423365E-03  5.14410483E-02  1.89840006E-01
  4.04986319E-01  4.01236286E-01  1.05185519E-01 -4.15127782E-03 -2.06702415E-02
 -5.15030334E-02  3.34627117E-01  5.62106130E-01  1.71299470E-01  7.92423365E-03
  5.14410483E-02  1.89840006E-01  4.04986319E-01  4.01236286E-01  1.05185519E-01
 -4.15127782E-03 -2.06702415E-02 -5.15030334E-02  3.34627117E-01  5.62106130E-01
  1.71299470E-01  7.92423365E-03  5.14410483E-02  1.89840006E-01  4.04986319E-01
  4.01236286E-01  1.05185519E-01 -4.15127782E-03 -2.06702415E-02 -5.15030334E-02
  3.34627117E-01  5.62106130E-01  1.71299470E-01  7.92423365E-03  5.14410483E-02
  1.89840006E-01  4.04986319E-01  4.01236286E-01  1.05185519E-01 -4.15127782E-03
 -2.06702415E-02 -5.15030334E-02  3.34627117E-01  5.62106130E-01  1.71299470E-01
  7.92423365E-03  5.14410483E-02  1.89840006E-01  4.04986319E-01  4.01236286E-01
  1.05185519E-01 -4.15127782E-03 -2.06702415E-02 -5.15030334E-02  3.34627117E-01
  5.62106130E-01  1.71299470E-01  7.92423365E-03  5.14410483E-02  1.89840006E-01
  4.04986319E-01  4.01236286E-01  1.05185519E-01 -4.15127782E-03 -2.06702415E-02
 -5.15030334E-02  3.34627117E-01  5.62106130E-01  1.71299470E-01  7.92423365E-03
  5.14410483E-02  1.89840006E-01  4.04986319E-01  4.01236286E-01  1.05185519E-01
 -4.15127782E-03 -2.06702415E-02 -5.15030334E-02  3.34627117E-01  5.62106130E-01
  1.71299470E-01  7.92423365E-03  5.14410483E-02  1.89840006E-01  4.04986319E-01
  4.01236286E-01  1.05185519E-01  9.16359628E-03  4.93614929E-02  1.68538305E-01
  3.70562800E-01  4.16491530E-01  1.30334084E-01 -4.15127782E-03 -2.06702415E-02
 -5.15030334E-02  3.34627117E-01  5.62106130E-01  1.71299470E-01  7.92423365E-03
  5.14410483E-02  1.89840006E-01  4.04986319E-01  4.01236286E-01  1.05185519E-01
  9.16359628E-03  4.93614929E-02  1.68538305E-01  3.70562800E-01  4.16491530E-01
  1.30334084E-01 -4.15127782E-03 -2.06702415E-02 -5.15030334E-02  3.34627117E-01
  5.62106130E-01  1.71299470E-01  7.92423365E-03  5.14410483E-02  1.89840006E-01
  4.04986319E-01  4.01236286E-01  1.05185519E-01  9.16359628E-03  4.93614929E-02
  1.68538305E-01  3.70562800E-01  4.16491530E-01  1.30334084E-01  9.16359628E-03
  4.93614929E-02  1.68538305E-01  3.70562800E-01  4.16491530E-01  1.30334084E-01
  9.16359628E-03  4.93614929E-02  1.68538305E-01  3.70562800E-01  4.16491530E-01
  1.30334084E-01  9.16359628E-03  4.93614929E-02  1.68538305E-01  3.70562800E-01
  4.16491530E-01  1.30334084E-01  9.16359628E-03  4.93614929E-02  1.68538305E-01
  3.70562800E-01  4.16491530E-01  1.30334084E-01  9.16359628E-03  4.93614929E-02
  1.68538305E-01  3.70562800E-01  4.16491530E-01  1.30334084E-01  9.16359628E-03
  4.93614929E-02  1.68538305E-01  3.70562800E-01  4.16491530E-01  1.30334084E-01
  9.16359628E-03  4.93614929E-02  1.68538305E-01  3.70562800E-01  4.16491530E-01
  1.30334084E-01
Coordinates of each shell                  R   N=         138
 -6.21636969E-01  2.73853192E+00 -2.98757222E-01 -6.21636969E-01  2.73853192E+00
 -2.98757222E-01 -3.01858337E+00  1.31454554E+00 -1.36397718E-01 -3.01858337E+00
  1.31454554E+00 -1.36397718E-01  1.76843933E+00  1.34491619E+00  4.10768716E-02
  1.76843933E+00  1.34491619E+00  4.10768716E-02 -7.01378191E-01  5.03536724E+00
 -8.01569941E-01 -7.01378191E-01  5.03536724E+00 -8.01569941E-01 -6.21863662E-01
 -2.73819340E+00  3.00809735E-01 -6.21863662E-01 -2.73819340E+00  3.00809735E-01
  1.76822607E+00 -1.34493506E+00 -4.03777423E-02  1.76822607E+00 -1.34493506E+00
 -4.03777423E-02 -7.01582518E-01 -5.03453882E+00  8.05828525E-01 -7.01582518E-01
 -5.03453882E+00  8.05828525E-01 -3.01870685E+00 -1.31427275E+00  1.36818544E-01
 -3.01870685E+00 -1.31427275E+00  1.36818544E-01 -5.31648617E+00  2.62197461E+00
 -2.72897635E-01 -5.31648617E+00  2.62197461E+00 -2.72897635E-01  4.06654936E+00
 -2.67679184E+00 -3.21392976E-01  4.06654936E+00 -2.67679184E+00 -3.21392976E-01
 -5.31669605E+00 -2.62168655E+00  2.71889672E-01 -5.31669605E+00 -2.62168655E+00
  2.71889672E-01  4.06722745E+00  2.67632432E+00  3.20720661E-01  4.06722745E+00
  2.67632432E+00  3.20720661E-01 -7.59735785E+00  1.31088721E+00 -1.36546288E-01
 -7.59735785E+00  1.31088721E+00 -1.36546288E-01 -7.59746595E+00 -1.31058177E+00
  1.34019816E-01 -7.59746595E+00 -1.31058177E+00  1.34019816E-01  6.37779883E+00
  1.27689433E+00  1.80276036E-01  6.37779883E+00  1.27689433E+00  1.80276036E-01
  6.37746145E+00 -1.27776469E+00 -1.82753626E-01  6.37746145E+00 -1.27776469E+00
 -1.82753626E-01 -5.29183514E+00  4.69358190E+00 -4.94644938E-01  4.23144487E+00
 -5.23087042E+00 -8.94459575E-01  4.23144487E+00 -5.23087042E+00 -8.94459575E-01
 -5.29219967E+00 -4.69328045E+00  4.93765874E-01  4.23310880E+00  5.23028167E+00
  8.93915767E-01  4.23310880E+00  5.23028167E+00  8.93915767E-01 -9.39586257E+00
  2.34906592E+00 -2.44510518E-01 -9.39605209E+00 -2.34873659E+00  2.40826988E-01
  8.19344367E+00  2.28508838E+00  3.51681195E-01  8.19280882E+00 -2.28625360E+00
 -3.55555710E-01  5.83710763E+00  6.06308570E+00  3.77136222E-01  2.69449249E+00
  6.27975453E+00  6.21230202E-01  5.83565803E+00 -6.06395065E+00 -3.78791326E-01
  2.69281498E+00 -6.27994969E+00 -6.20328770E-01
Constraint Structure                       R   N=          84
 -6.21636969E-01  2.73853192E+00 -2.98757222E-01 -3.01858337E+00  1.31454554E+00
 -1.36397718E-01  1.76843933E+00  1.34491619E+00  4.10768716E-02 -7.01378191E-01
  5.03536724E+00 -8.01569941E-01 -6.21863662E-01 -2.73819340E+00  3.00809735E-01
  1.76822607E+00 -1.34493506E+00 -4.03777423E-02 -7.01582518E-01 -5.03453882E+00
  8.05828525E-01 -3.01870685E+00 -1.31427275E+00  1.36818544E-01 -5.31648617E+00
  2.62197461E+00 -2.72897635E-01  4.06654936E+00 -2.67679184E+00 -3.21392976E-01
 -5.31669605E+00 -2.62168655E+00  2.71889672E-01  4.06722745E+00  2.67632432E+00
  3.20720661E-01 -7.59735785E+00  1.31088721E+00 -1.36546288E-01 -7.59746595E+00
 -1.31058177E+00  1.34019816E-01  6.37779883E+00  1.27689433E+00  1.80276036E-01
  6.37746145E+00 -1.27776469E+00 -1.82753626E-01 -5.29183514E+00  4.69358190E+00
 -4.94644938E-01  4.23144487E+00 -5.23087042E+00 -8.94459575E-01 -5.29219967E+00
 -4.69328045E+00  4.93765874E-01  4.23310880E+00  5.23028167E+00  8.93915767E-01
 -9.39586257E+00  2.34906592E+00 -2.44510518E-01 -9.39605209E+00 -2.34873659E+00
  2.40826988E-01  8.19344367E+00  2.28508838E+00  3.51681195E-01  8.19280882E+00
 -2.28625360E+00 -3.55555710E-01  5.83710763E+00  6.06308570E+00  3.77136222E-01
  2.69449249E+00  6.27975453E+00  6.21230202E-01  5.83565803E+00 -6.06395065E+00
 -3.78791326E-01  2.69281498E+00 -6.27994969E+00 -6.20328770E-01
Num ILSW                                   I              100
ILSW                                       I   N=         100
           0           0           0           0           2           0
           0           0           0           0           0          -1
           0           0           0           0           0           0
           0           0           1           0           0           0
           1           0           0           0           0           0
           0           0      100000           0          -1           0
           0           0           0           0           0           0
           0           0           0           5           0           0
           0           0           1           0           0           0
           0           0           4          41           0           0
           0           0           0           0           0           0
           0           0           0           0           0           0
           0           0           0           0           0           0
           0           0           0           0           0           0
           0           0           0           0           0           0
           0           0           0           0           0           0
           0           0           0           0
Num RLSW                                   I               41
RLSW                                       R   N=          41
  1.00000000E+00  1.00000000E+00  1.00000000E+00  1.00000000E+00  1.00000000E+00
  0.00000000E+00  0.00000000E+00  1.00000000E+00  0.00000000E+00  0.00000000E+00
  0.00000000E+00  0.00000000E+00  1.00000000E+00  0.00000000E+00  0.00000000E+00
  0.00000000E+00  0.00000000E+00  1.00000000E+00  0.00000000E+00  0.00000000E+00
  0.00000000E+00  0.00000000E+00  1.00000000E+00  0.00000000E+00  0.00000000E+00
  0.00000000E+00  0.00000000E+00  1.00000000E+00  0.00000000E+00  0.00000000E+00
  0.00000000E+00  0.00000000E+00  1.00000000E+00  0.00000000E+00  0.00000000E+00
  0.00000000E+00  0.00000000E+00  0.00000000E+00  1.00000000E+00  1.00000000E+00
  0.00000000E+00
MxBond                                     I                3
NBond                                      I   N=          28
           3           3           3           1           3           3
           1           3           3           3           3           3
           3           3           3           3           1           3
           1           3           1           1           1           1
           1           1           1           1
IBond                                      I   N=          84
           2           3           4           1           8           9
           1           6          12           1           0           0
           6           7           8           3           5          10
           5           0           0           2           5          11
           2          13          17           6          16          18
           8          14          19           3          15          20
           9          14          21          11          13          22
          12          16          23          10          15          24
           9           0           0          10          27          28
          11           0           0          12          25          26
          13           0           0          14           0           0
          15           0           0          16           0           0
          20           0           0          20           0           0
          18           0           0          18           0           0
RBond                                      R   N=          84
  1.00000000E+00  1.00000000E+00  2.00000000E+00  1.00000000E+00  1.50000000E+00
  1.50000000E+00  1.00000000E+00  1.50000000E+00  1.50000000E+00  2.00000000E+00
  0.00000000E+00  0.00000000E+00  1.00000000E+00  2.00000000E+00  1.00000000E+00
  1.50000000E+00  1.00000000E+00  1.50000000E+00  2.00000000E+00  0.00000000E+00
  0.00000000E+00  1.50000000E+00  1.00000000E+00  1.50000000E+00  1.50000000E+00
  1.50000000E+00  1.00000000E+00  1.50000000E+00  1.00000000E+00  1.00000000E+00
  1.50000000E+00  1.50000000E+00  1.00000000E+00  1.50000000E+00  1.00000000E+00
  1.00000000E+00  1.50000000E+00  1.50000000E+00  1.00000000E+00  1.50000000E+00
  1.50000000E+00  1.00000000E+00  1.00000000E+00  2.00000000E+00  1.00000000E+00
  1.00000000E+00  2.00000000E+00  1.00000000E+00  1.00000000E+00  0.00000000E+00
  0.00000000E+00  1.00000000E+00  1.00000000E+00  1.00000000E+00  1.00000000E+00
  0.00000000E+00  0.00000000E+00  1.00000000E+00  1.00000000E+00  1.00000000E+00
  1.00000000E+00  0.00000000E+00  0.00000000E+00  1.00000000E+00  0.00000000E+00
  0.00000000E+00  1.00000000E+00  0.00000000E+00  0.00000000E+00  1.00000000E+00
  0.00000000E+00  0.00000000E+00  1.00000000E+00  0.00000000E+00  0.00000000E+00
  1.00000000E+00  0.00000000E+00  0.00000000E+00  1.00000000E+00  0.00000000E+00
  0.00000000E+00  1.00000000E+00  0.00000000E+00  0.00000000E+00
Virial Ratio                               R      8.874993870475404E-01
SCF Energy                                 R     -1.270011878472702E+02
CIS Energy                                 R     -1.269040384282095E+02
Total Energy                               R     -1.269040384282095E+02
Post-SCF wavefunction norm                 R      1.000000000000000E+00
RMS Density                                R      3.704322961969729E-09
External E-field                           R   N=          35
  0.00000000E+00  0.00000000E+00  0.00000000E+00  0.00000000E+00  0.00000000E+00
  0.00000000E+00  0.00000000E+00  0.00000000E+00  0.00000000E+00  0.00000000E+00
  0.00000000E+00  0.00000000E+00  0.00000000E+00  0.00000000E+00  0.00000000E+00
  0.00000000E+00  0.00000000E+00  0.00000000E+00  0.00000000E+00  0.00000000E+00
  0.00000000E+00  0.00000000E+00  0.00000000E+00  0.00000000E+00  0.00000000E+00
  0.00000000E+00  0.00000000E+00  0.00000000E+00  0.00000000E+00  0.00000000E+00