 Entering Gaussian System, Link 0=g09
 Input=anthraquinone-2oh-zindo.com
 Output=anthraquinone-2oh-zindo.log
 Initial command:
 /opt/g09/l1.exe "/local/z485411/Gaussian/tmp/Gau-8256.inp" -scrdir="/local/z485411/Gaussian/tmp/"
 Entering Link 1 = /opt/g09/l1.exe PID=      8258.
  
 Copyright (c) 1988,1990,1992,1993,1995,1998,2003,2009,2013,
            Gaussian, Inc.  All Rights Reserved.
  
 This is part of the Gaussian(R) 09 program.  It is based on
 the Gaussian(R) 03 system (copyright 2003, Gaussian, Inc.),
 the Gaussian(R) 98 system (copyright 1998, Gaussian, Inc.),
 the Gaussian(R) 94 system (copyright 1995, Gaussian, Inc.),
 the Gaussian 92(TM) system (copyright 1992, Gaussian, Inc.),
 the Gaussian 90(TM) system (copyright 1990, Gaussian, Inc.),
 the Gaussian 88(TM) system (copyright 1988, Gaussian, Inc.),
 the Gaussian 86(TM) system (copyright 1986, Carnegie Mellon
 University), and the Gaussian 82(TM) system (copyright 1983,
 Carnegie Mellon University). Gaussian is a federally registered
 trademark of Gaussian, Inc.
  
 This software contains proprietary and confidential information,
 including trade secrets, belonging to Gaussian, Inc.
  
 This software is provided under written license and may be
 used, copied, transmitted, or stored only in accord with that
 written license.
  
 The following legend is applicable only to US Government
 contracts under FAR:
  
                    RESTRICTED RIGHTS LEGEND
  
 Use, reproduction and disclosure by the US Government is
 subject to restrictions as set forth in subparagraphs (a)
 and (c) of the Commercial Computer Software - Restricted
 Rights clause in FAR 52.227-19.
  
 Gaussian, Inc.
 340 Quinnipiac St., Bldg. 40, Wallingford CT 06492
  
  
 ---------------------------------------------------------------
 Warning -- This program may not be used in any manner that
 competes with the business of Gaussian, Inc. or will provide
 assistance to any competitor of Gaussian, Inc.  The licensee
 of this program is prohibited from giving any competitor of
 Gaussian, Inc. access to this program.  By using this program,
 the user acknowledges that Gaussian, Inc. is engaged in the
 business of creating and licensing software in the field of
 computational chemistry and represents and warrants to the
 licensee that it is not a competitor of Gaussian, Inc. and that
 it will not use this program in any manner prohibited above.
 ---------------------------------------------------------------
  

 Cite this work as:
 Gaussian 09, Revision D.01,
 M. J. Frisch, G. W. Trucks, H. B. Schlegel, G. E. Scuseria, 
 M. A. Robb, J. R. Cheeseman, G. Scalmani, V. Barone, B. Mennucci, 
 G. A. Petersson, H. Nakatsuji, M. Caricato, X. Li, H. P. Hratchian, 
 A. F. Izmaylov, J. Bloino, G. Zheng, J. L. Sonnenberg, M. Hada, 
 M. Ehara, K. Toyota, R. Fukuda, J. Hasegawa, M. Ishida, T. Nakajima, 
 Y. Honda, O. Kitao, H. Nakai, T. Vreven, J. A. Montgomery, Jr., 
 J. E. Peralta, F. Ogliaro, M. Bearpark, J. J. Heyd, E. Brothers, 
 K. N. Kudin, V. N. Staroverov, T. Keith, R. Kobayashi, J. Normand, 
 K. Raghavachari, A. Rendell, J. C. Burant, S. S. Iyengar, J. Tomasi, 
 M. Cossi, N. Rega, J. M. Millam, M. Klene, J. E. Knox, J. B. Cross, 
 V. Bakken, C. Adamo, J. Jaramillo, R. Gomperts, R. E. Stratmann, 
 O. Yazyev, A. J. Austin, R. Cammi, C. Pomelli, J. W. Ochterski, 
 R. L. Martin, K. Morokuma, V. G. Zakrzewski, G. A. Voth, 
 P. Salvador, J. J. Dannenberg, S. Dapprich, A. D. Daniels, 
 O. Farkas, J. B. Foresman, J. V. Ortiz, J. Cioslowski, 
 and D. J. Fox, Gaussian, Inc., Wallingford CT, 2013.
 
 ******************************************
 Gaussian 09:  AM64L-G09RevD.01 24-Apr-2013
                 7-Apr-2020 
 ******************************************
 %chk=anthraquinone-2oh-zindo
 ------------------
 # zindo(Nstate=10)
 ------------------
 1/38=1/1;
 2/12=2,17=6,18=5,40=1/2;
 3/5=2,16=1,25=1,41=400000/1,2,8,3;
 4/5=3,35=1/1;
 5/5=2,35=1,38=5/2;
 8/6=1,108=10/1;
 9/41=10,42=1,49=10/14;
 6/7=2,8=2,9=2,10=2/1;
 99/5=1,9=1/99;
 -----
 title
 -----
 Symbolic Z-matrix:
 Charge =  0 Multiplicity = 1
 6                    0     0.03725   0.00066  -0.02589 
 6                    0     0.01692  -0.00009   1.44645 
 6                    0     1.34281   0.00024  -0.71285 
 8                    0    -1.0107    0.00158  -0.69896 
 6                    0     2.53352  -0.00151   1.489 
 6                    0     2.54011  -0.00078   0.01374 
 8                    0     3.61439  -0.0024    2.10782 
 6                    0     1.23688  -0.00108   2.18679 
 6                    0    -1.20045   0.00018   2.13864 
 6                    0     3.76506  -0.00114  -0.66513 
 6                    0     1.18492  -0.00166   3.58623 
 6                    0     1.37945   0.0009   -2.11286 
 6                    0    -1.23284  -0.00046   3.56346 
 6                    0    -0.06399  -0.00134   4.27279 
 6                    0     2.60278   0.00054  -2.7828 
 6                    0     3.79453  -0.00048  -2.05958 
 8                    0    -2.45312   0.00107   1.59399 
 1                    0     4.70169  -0.00195  -0.08277 
 8                    0     2.24641  -0.00259   4.44594 
 1                    0     0.43045   0.0017   -2.67481 
 1                    0    -2.21481  -0.0002    4.06249 
 1                    0    -0.05328  -0.00184   5.37423 
 1                    0     2.62375   0.00106  -3.88329 
 1                    0     4.76102  -0.00077  -2.58627 
 1                    0    -2.41987   0.00136   0.62431 
 1                    0     3.09119  -0.00265   3.96874 
 
                          Input orientation:                          
 ---------------------------------------------------------------------
 Center     Atomic      Atomic             Coordinates (Angstroms)
 Number     Number       Type             X           Y           Z
 ---------------------------------------------------------------------
      1          6           0        0.037245    0.000655   -0.025892
      2          6           0        0.016920   -0.000093    1.446454
      3          6           0        1.342810    0.000242   -0.712850
      4          8           0       -1.010702    0.001580   -0.698959
      5          6           0        2.533521   -0.001505    1.488996
      6          6           0        2.540113   -0.000780    0.013743
      7          8           0        3.614387   -0.002399    2.107819
      8          6           0        1.236875   -0.001075    2.186793
      9          6           0       -1.200449    0.000183    2.138644
     10          6           0        3.765058   -0.001136   -0.665132
     11          6           0        1.184924   -0.001659    3.586227
     12          6           0        1.379454    0.000897   -2.112857
     13          6           0       -1.232842   -0.000455    3.563463
     14          6           0       -0.063991   -0.001343    4.272790
     15          6           0        2.602784    0.000536   -2.782802
     16          6           0        3.794525   -0.000479   -2.059583
     17          8           0       -2.453124    0.001071    1.593986
     18          1           0        4.701686   -0.001946   -0.082774
     19          8           0        2.246409   -0.002588    4.445935
     20          1           0        0.430445    0.001704   -2.674814
     21          1           0       -2.214806   -0.000202    4.062486
     22          1           0       -0.053279   -0.001841    5.374226
     23          1           0        2.623752    0.001056   -3.883287
     24          1           0        4.761019   -0.000765   -2.586268
     25          1           0       -2.419869    0.001359    0.624312
     26          1           0        3.091194   -0.002645    3.968742
 ---------------------------------------------------------------------
                    Distance matrix (angstroms):
                    1          2          3          4          5
     1  C    0.000000
     2  C    1.472486   0.000000
     3  C    1.475267   2.533886   0.000000
     4  O    1.245477   2.378825   2.353553   0.000000
     5  C    2.919980   2.516961   2.503182   4.165174   0.000000
     6  C    2.503182   2.901580   1.400526   3.621635   1.475268
     7  O    4.165174   3.657756   3.621635   5.410126   1.245477
     8  C    2.516960   1.427022   2.901578   3.657755   1.472485
     9  C    2.493412   1.400398   3.820888   2.843940   3.790063
    10  C    3.782224   4.302015   2.422718   4.775881   2.481320
    11  C    3.790063   2.437799   4.301976   4.814935   2.493410
    12  C    2.481320   3.811193   1.400487   2.777040   3.782224
    13  C    3.807439   2.458380   4.992077   4.268207   4.299873
    14  C    4.299874   2.827494   5.180318   5.061083   3.807437
    15  C    3.765972   4.957146   2.423270   4.171293   4.272360
    16  C    4.272359   5.153891   2.797248   4.994147   3.765972
    17  O    2.970849   2.474446   4.441915   2.708907   4.987751
    18  H    4.664789   4.928040   3.417462   5.745526   2.677947
    19  O    4.987750   3.737314   5.237324   6.089230   2.970845
    20  H    2.677946   4.141963   2.163727   2.445589   4.664789
    21  H    4.667609   3.438637   5.954869   4.911337   5.400876
    22  H    5.400877   3.928400   6.245123   6.148191   4.667606
    23  H    4.644299   5.933103   3.419427   4.832101   5.373041
    24  H    5.373041   6.226502   3.897929   6.072455   4.644300
    25  H    2.541687   2.571743   3.993214   1.933080   5.028296
    26  H    5.028292   3.976569   4.997415   6.213936   2.541681
                    6          7          8          9         10
     6  C    0.000000
     7  O    2.353555   0.000000
     8  C    2.533885   2.378824   0.000000
     9  C    4.301977   4.814935   2.437800   0.000000
    10  C    1.400486   2.777042   3.811192   5.702405   0.000000
    11  C    3.820887   2.843938   1.400398   2.790252   4.973042
    12  C    2.422717   4.775881   4.302014   4.973043   2.790523
    13  C    5.180319   5.061080   2.827494   1.425187   6.546756
    14  C    4.992078   4.268204   2.458381   2.417875   6.248575
    15  C    2.797247   4.994149   5.153890   6.219744   2.415659
    16  C    2.423269   4.171294   4.957145   6.524943   1.394762
    17  O    5.237326   6.089230   3.737314   1.365960   6.615845
    18  H    2.163727   2.445591   4.141962   6.306338   1.102911
    19  O    4.441913   2.708902   2.474446   4.147822   5.331914
    20  H    3.417462   5.745527   4.928038   5.082243   3.893388
    21  H    6.245124   6.148188   3.928400   2.174877   7.622936
    22  H    5.954869   4.911333   3.438637   3.432928   7.145176
    23  H    3.897928   6.072456   6.226500   7.133594   3.414543
    24  H    3.419427   4.832103   5.933102   7.606832   2.163955
    25  H    4.997421   6.213940   3.976573   1.944271   6.317911
    26  H    3.993208   1.933071   2.571739   4.665562   4.682615
                   11         12         13         14         15
    11  C    0.000000
    12  C    5.702404   0.000000
    13  C    2.417873   6.248576   0.000000
    14  C    1.425187   6.546757   1.367245   0.000000
    15  C    6.524942   1.394763   7.415329   7.542750   0.000000
    16  C    6.219742   2.415659   7.542749   7.415328   1.394021
    17  O    4.147822   5.331917   2.316879   3.589422   6.687188
    18  H    5.082242   3.893388   6.965175   6.456208   3.419875
    19  O    1.365961   6.615843   3.589422   2.316879   7.237517
    20  H    6.306337   1.102912   6.456209   6.965176   2.175022
    21  H    3.432927   7.145178   1.101489   2.161072   8.370612
    22  H    2.174876   7.622935   2.161072   1.101488   8.578565
    23  H    7.606831   2.163955   8.386144   8.587524   1.100685
    24  H    7.133593   3.414543   8.587524   8.386143   2.167165
    25  H    4.665563   4.682622   3.169802   4.342990   6.069223
    26  H    1.944270   6.317904   4.342988   3.169801   6.769188
                   16         17         18         19         20
    16  C    0.000000
    17  O    7.237519   0.000000
    18  H    2.175021   7.348662   0.000000
    19  O    6.687184   5.497203   5.151465   0.000000
    20  H    3.419875   5.151468   4.996217   7.348660   0.000000
    21  H    8.578566   2.479978   8.063563   4.477664   7.237995
    22  H    8.370610   4.477664   7.237993   2.479978   8.063563
    23  H    2.167166   7.468279   4.331480   8.337766   2.504197
    24  H    1.100685   8.337769   2.504197   7.468276   4.331480
    25  H    6.769194   0.970244   7.156572   6.031498   4.359876
    26  H    6.069216   6.031496   4.359870   0.970245   7.156566
                   21         22         23         24         25
    21  H    0.000000
    22  H    2.528411   0.000000
    23  H    9.303062   9.636807   0.000000
    24  H    9.636808   9.303060   2.500034   0.000000
    25  H    3.444284   5.306830   6.764360   7.865938   0.000000
    26  H    5.306829   3.444285   7.865931   6.764353   6.446475
                   26
    26  H    0.000000
 Stoichiometry    C14H8O4
 Framework group  C1[X(C14H8O4)]
 Deg. of freedom    72
 Full point group                 C1      NOp   1
 Largest Abelian subgroup         C1      NOp   1
 Largest concise Abelian subgroup C1      NOp   1
                         Standard orientation:                         
 ---------------------------------------------------------------------
 Center     Atomic      Atomic             Coordinates (Angstroms)
 Number     Number       Type             X           Y           Z
 ---------------------------------------------------------------------
      1          6           0       -0.336850    1.459990   -0.000061
      2          6           0        0.932397    0.713512    0.000007
      3          6           0       -1.601455    0.700263   -0.000021
      4          8           0       -0.368576    2.705063   -0.000113
      5          6           0       -0.336849   -1.459990    0.000059
      6          6           0       -1.601455   -0.700263    0.000023
      7          8           0       -0.368574   -2.705063    0.000088
      8          6           0        0.932395   -0.713511   -0.000008
      9          6           0        2.155719    1.395126    0.000054
     10          6           0       -2.817325   -1.395261    0.000045
     11          6           0        2.155717   -1.395126   -0.000052
     12          6           0       -2.817325    1.395261   -0.000039
     13          6           0        3.390595    0.683621    0.000041
     14          6           0        3.390594   -0.683624   -0.000025
     15          6           0       -4.024722    0.697010   -0.000015
     16          6           0       -4.024722   -0.697010    0.000026
     17          8           0        2.339982    2.748601    0.000089
     18          1           0       -2.805393   -2.498108    0.000083
     19          8           0        2.339978   -2.748602   -0.000092
     20          1           0       -2.805393    2.498109   -0.000078
     21          1           0        4.326651    1.264204    0.000077
     22          1           0        4.326649   -1.264207   -0.000050
     23          1           0       -4.976400    1.250018   -0.000030
     24          1           0       -4.976400   -1.250017    0.000045
     25          1           0        1.493759    3.223239    0.000238
     26          1           0        1.493753   -3.223236   -0.000260
 ---------------------------------------------------------------------
 Rotational constants (GHZ):      0.7147155      0.3773487      0.2469607
 Standard basis: VSTO-6G (5D, 7F)
 There are    80 symmetry adapted cartesian basis functions of A   symmetry.
 There are    80 symmetry adapted basis functions of A   symmetry.
    80 basis functions,   480 primitive gaussians,    80 cartesian basis functions
    44 alpha electrons       44 beta electrons
       nuclear repulsion energy       613.1834750487 Hartrees.
 Integral buffers will be    131072 words long.
 Regular integral format.
 Two-electron integral symmetry is turned off.
 Do NDO integrals.
 One-electron integrals computed using PRISM.
 Generate ZINDO/S integrals.
 NDO Nuclear repulsion=   473.642874009303 Hartrees.
 NBasis=    80 RedAO= F EigKep=  0.00D+00  NBF=    80
 NBsUse=    80 1.00D-04 EigRej=  0.00D+00 NBFU=    80
 DipDrv:  will hold  3 matrices at once.
 Simple Huckel Guess.
 Overlap will be assumed to be unity.
 Requested convergence on RMS density matrix=1.00D-08 within 128 cycles.
 Requested convergence on MAX density matrix=1.00D-06.
 Requested convergence on             energy=1.00D-06.
 No special actions if energy rises.
 SCF Done:  E(RZINDO/S) =  -132.252050270     A.U. after   14 cycles
            NFock= 14  Conv=0.46D-08     -V/T= 0.8842
 Range of M.O.s used for correlation:     1    80
 NBasis=    80 NAE=    44 NBE=    44 NFC=     0 NFV=     0
 NROrb=     80 NOA=    44 NOB=    44 NVA=    36 NVB=    36
 Orbital symmetries:
       Occupied  (A) (A) (A) (A) (A) (A) (A) (A) (A) (A) (A) (A)
                 (A) (A) (A) (A) (A) (A) (A) (A) (A) (A) (A) (A)
                 (A) (A) (A) (A) (A) (A) (A) (A) (A) (A) (A) (A)
                 (A) (A) (A) (A) (A) (A) (A) (A)
       Virtual   (A) (A) (A) (A) (A) (A) (A) (A) (A) (A) (A) (A)
                 (A) (A) (A) (A) (A) (A) (A) (A) (A) (A) (A) (A)
                 (A) (A) (A) (A) (A) (A) (A) (A) (A) (A) (A) (A)
    40 initial guesses have been made.
 Convergence on wavefunction:    0.001000000000000
 Iteration     1 Dimension    40 NMult     0 NNew     40
 CISAX will form    40 AO SS matrices at one time.
 New state      1 was old state      5
 New state      2 was old state      7
 New state      3 was old state      1
 New state      4 was old state      2
 New state      5 was old state      3
 New state      7 was old state      8
 New state      8 was old state      4
 New state      9 was old state     10
 New state     10 was old state     25
 Iteration     2 Dimension    80 NMult    40 NNew     40
 New state     10 was old state     11
 Iteration     3 Dimension    90 NMult    80 NNew     10
 Iteration     4 Dimension   100 NMult    90 NNew     10
 Iteration     5 Dimension   110 NMult   100 NNew     10
 Iteration     6 Dimension   114 NMult   110 NNew      4
 Iteration     7 Dimension   115 NMult   114 NNew      1
 ***********************************************************************
 Excited states from <AA,BB:AA,BB> singles matrix:
 ***********************************************************************
 
 Ground to excited state transition densities written to RWF  633
 Ground to excited state transition electric dipole moments (Au):
       state          X           Y           Z        Dip. S.      Osc.
         1         0.0000     -0.0002     -0.0005      0.0000      0.0000
         2         0.0002     -0.0000     -0.0000      0.0000      0.0000
         3         2.0010     -0.0000      0.0000      4.0041      0.3198
         4        -0.0000     -0.2151      0.0000      0.0463      0.0044
         5         0.9072     -0.0000     -0.0000      0.8231      0.0821
         6         0.0000      0.5612     -0.0001      0.3149      0.0336
         7        -0.4234      0.0000     -0.0000      0.1793      0.0209
         8        -0.0000      2.0116      0.0001      4.0464      0.4787
         9         2.2722     -0.0000     -0.0000      5.1630      0.6478
        10         0.0000     -1.2795      0.0001      1.6370      0.2163
 Ground to excited state transition velocity dipole moments (Au):
       state          X           Y           Z        Dip. S.      Osc.
         1        -0.0000      0.0000     -0.0013      0.0000      0.0000
         2        -0.0000      0.0000     -0.0000      0.0000      0.0000
         3        -0.1122      0.0000      0.0000      0.0126      0.0701
         4         0.0000      0.0109     -0.0000      0.0001      0.0006
         5        -0.0834      0.0000      0.0000      0.0070      0.0310
         6        -0.0000     -0.0066      0.0000      0.0000      0.0002
         7         0.0426     -0.0000      0.0000      0.0018      0.0069
         8         0.0000     -0.1280     -0.0000      0.0164      0.0615
         9        -0.2679      0.0000     -0.0000      0.0718      0.2543
        10        -0.0000      0.1017     -0.0000      0.0103      0.0348
 Ground to excited state transition magnetic dipole moments (Au):
       state          X           Y           Z
         1        -0.0000     -0.9159     -0.0001
         2        -0.0401      0.0000     -0.0000
         3        -0.0000     -0.0000     -0.0000
         4        -0.0000      0.0001     -1.2827
         5         0.0000      0.0000     -0.0000
         6         0.0000     -0.0001      0.7263
         7         0.0000      0.0000     -0.0000
         8         0.0000     -0.0000     -0.8230
         9        -0.0000     -0.0000     -0.0000
        10        -0.0000      0.0000      0.3105
 Ground to excited state transition velocity quadrupole moments (Au):
       state          XX          YY          ZZ          XY          XZ          YZ
         1         0.0000     -0.0000      0.0000     -0.0000      0.0095      0.0000
         2        -0.0000     -0.0001      0.0000      0.0000     -0.0000     -0.0131
         3        -0.0396     -0.0540     -0.0041      0.0000      0.0000     -0.0001
         4        -0.0000      0.0000     -0.0000     -0.0825     -0.0000     -0.0000
         5         0.5542     -0.0566      0.0161     -0.0000      0.0000      0.0000
         6         0.0000     -0.0000      0.0000      0.3607      0.0000     -0.0000
         7         0.0265      0.0024      0.0113     -0.0000      0.0000      0.0000
         8        -0.0000      0.0000     -0.0000     -0.4973     -0.0000      0.0000
         9         1.2095     -0.2398      0.0296     -0.0000      0.0000      0.0000
        10         0.0000      0.0000      0.0000      0.1836      0.0000     -0.0000
 <0|del|b> * <b|rxdel|0> + <0|del|b> * <b|delr+rdel|0>
 Rotatory Strengths (R) in cgs (10**-40 erg-esu-cm/Gauss)
       state          XX          YY          ZZ    R(velocity)    E-M Angle
         1        -0.0630      0.0006     -0.0623     -0.0416       90.00
         2         0.0000      0.0068      0.0034      0.0034       90.00
         3        -0.0000      0.0229     -0.0139      0.0030       90.00
         4         0.0307      0.0252      0.0015      0.0191       90.00
         5        -0.0000     -0.0036      0.0003     -0.0011       90.00
         6         0.0355      0.0111      0.0013      0.0160       90.00
         7        -0.0000      0.0028     -0.0002      0.0009       90.00
         8         0.0236      0.0064      0.0097      0.0132       90.00
         9         0.0000     -0.0004      0.0073      0.0023       90.00
        10        -0.0075     -0.0030      0.0084     -0.0007       90.00
 1/2[<0|r|b>*<b|rxdel|0> + (<0|rxdel|b>*<b|r|0>)*]
 Rotatory Strengths (R) in cgs (10**-40 erg-esu-cm/Gauss)
       state          XX          YY          ZZ     R(length)
         1         0.0000     -0.1134     -0.0000     -0.0378
         2         0.0045      0.0000     -0.0000      0.0015
         3         0.0194     -0.0000      0.0000      0.0065
         4        -0.0000      0.0097      0.0311      0.0136
         5        -0.0054      0.0000     -0.0000     -0.0018
         6        -0.0000      0.0502      0.0569      0.0357
         7         0.0045     -0.0000     -0.0000      0.0015
         8         0.0000      0.0198      0.0311      0.0170
         9         0.0109     -0.0000     -0.0000      0.0036
        10         0.0000      0.0311     -0.0113      0.0066
  1/2[<0|del|b>*<b|r|0> + (<0|r|b>*<b|del|0>)*] (Au)
       state          X           Y           Z        Dip. S.   Osc.(frdel)
         1        -0.0000     -0.0000      0.0000     -0.0000     -0.0000
         2        -0.0000     -0.0000      0.0000      0.0000      0.0000
         3        -0.2246     -0.0000      0.0000      0.2246      0.1497
         4        -0.0000     -0.0023     -0.0000      0.0023      0.0016
         5        -0.0756     -0.0000     -0.0000      0.0756      0.0504
         6        -0.0000     -0.0037     -0.0000      0.0037      0.0025
         7        -0.0180     -0.0000     -0.0000      0.0180      0.0120
         8        -0.0000     -0.2574     -0.0000      0.2574      0.1716
         9        -0.6088     -0.0000      0.0000      0.6088      0.4059
        10        -0.0000     -0.1301     -0.0000      0.1301      0.0868

 Excitation energies and oscillator strengths:
 
 Excited State   1:      Singlet-A      2.6302 eV  471.39 nm  f=0.0000  <S**2>=0.000
      39 -> 46         0.29663
      39 -> 49        -0.20966
      40 -> 45         0.57207
      40 -> 50        -0.15608
 This state for optimization and/or second-order correction.
 Total Energy, E(CIS) =  -132.155393795    
 Copying the excited state density for this state as the 1-particle RhoCI density.
 
 Excited State   2:      Singlet-A      2.6629 eV  465.59 nm  f=0.0000  <S**2>=0.000
      39 -> 45         0.56554
      39 -> 50        -0.16473
      40 -> 46         0.30475
      40 -> 49        -0.20902
 
 Excited State   3:      Singlet-A      3.2602 eV  380.29 nm  f=0.3198  <S**2>=0.000
      44 -> 45         0.67382
      44 -> 47         0.13834
 
 Excited State   4:      Singlet-A      3.8598 eV  321.22 nm  f=0.0044  <S**2>=0.000
      41 -> 45         0.20722
      41 -> 47         0.10411
      43 -> 45         0.61351
      44 -> 46         0.19933
 
 Excited State   5:      Singlet-A      4.0708 eV  304.57 nm  f=0.0821  <S**2>=0.000
      42 -> 45         0.61456
      42 -> 47        -0.20773
      43 -> 46        -0.16123
      43 -> 48         0.17128
 
 Excited State   6:      Singlet-A      4.3491 eV  285.08 nm  f=0.0336  <S**2>=0.000
      41 -> 45         0.34859
      42 -> 46        -0.13168
      43 -> 45        -0.27801
      44 -> 46         0.42204
      44 -> 48         0.27300
 
 Excited State   7:      Singlet-A      4.7697 eV  259.94 nm  f=0.0209  <S**2>=0.000
      41 -> 46        -0.23418
      41 -> 48        -0.16128
      43 -> 46        -0.12169
      43 -> 48        -0.12632
      44 -> 45        -0.16923
      44 -> 47         0.53048
      44 -> 50         0.25020
 
 Excited State   8:      Singlet-A      4.8286 eV  256.77 nm  f=0.4787  <S**2>=0.000
      41 -> 45         0.51363
      42 -> 46        -0.13302
      42 -> 48         0.10611
      44 -> 46        -0.41664
      44 -> 48        -0.11501
 
 Excited State   9:      Singlet-A      5.1209 eV  242.11 nm  f=0.6478  <S**2>=0.000
      41 -> 46        -0.10766
      41 -> 48         0.14789
      42 -> 45         0.29275
      42 -> 47         0.18260
      42 -> 50        -0.15554
      43 -> 46         0.50864
      43 -> 48        -0.21679
 
 Excited State  10:      Singlet-A      5.3927 eV  229.91 nm  f=0.2163  <S**2>=0.000
      38 -> 45        -0.12557
      41 -> 47         0.11607
      43 -> 47         0.11014
      44 -> 46        -0.23767
      44 -> 48         0.47802
      44 -> 49         0.37283
 SavETr:  write IOETrn=   770 NScale= 10 NData=  16 NLR=1 NState=   10 LETran=     190.

 **********************************************************************

            Population analysis using the SCF density.

 **********************************************************************

 Orbital symmetries:
       Occupied  (A) (A) (A) (A) (A) (A) (A) (A) (A) (A) (A) (A)
                 (A) (A) (A) (A) (A) (A) (A) (A) (A) (A) (A) (A)
                 (A) (A) (A) (A) (A) (A) (A) (A) (A) (A) (A) (A)
                 (A) (A) (A) (A) (A) (A) (A) (A)
       Virtual   (A) (A) (A) (A) (A) (A) (A) (A) (A) (A) (A) (A)
                 (A) (A) (A) (A) (A) (A) (A) (A) (A) (A) (A) (A)
                 (A) (A) (A) (A) (A) (A) (A) (A) (A) (A) (A) (A)
 The electronic state is 1-A.
 Alpha  occ. eigenvalues --   -1.75249  -1.68159  -1.65609  -1.53894  -1.53512
 Alpha  occ. eigenvalues --   -1.50518  -1.34846  -1.22893  -1.22188  -1.08060
 Alpha  occ. eigenvalues --   -1.05245  -1.03246  -0.99289  -0.91831  -0.89636
 Alpha  occ. eigenvalues --   -0.84928  -0.76112  -0.72849  -0.72829  -0.68368
 Alpha  occ. eigenvalues --   -0.66425  -0.63882  -0.60118  -0.59630  -0.58141
 Alpha  occ. eigenvalues --   -0.57525  -0.56495  -0.54606  -0.54382  -0.54277
 Alpha  occ. eigenvalues --   -0.52878  -0.49600  -0.49294  -0.48930  -0.47703
 Alpha  occ. eigenvalues --   -0.47012  -0.46884  -0.43119  -0.37237  -0.36529
 Alpha  occ. eigenvalues --   -0.36237  -0.35308  -0.35227  -0.31671
 Alpha virt. eigenvalues --   -0.06787  -0.01855  -0.00024   0.00797   0.04592
 Alpha virt. eigenvalues --    0.04782   0.05406   0.08338   0.08700   0.08985
 Alpha virt. eigenvalues --    0.10574   0.10605   0.11397   0.12125   0.12967
 Alpha virt. eigenvalues --    0.17940   0.18033   0.18156   0.20504   0.23164
 Alpha virt. eigenvalues --    0.24625   0.25582   0.26925   0.29463   0.31068
 Alpha virt. eigenvalues --    0.31454   0.36581   0.37372   0.39441   0.40628
 Alpha virt. eigenvalues --    0.42383   0.44165   0.45264   0.45749   0.48238
 Alpha virt. eigenvalues --    0.49772
          Condensed to atoms (all electrons):
               1          2          3          4          5          6
     1  C    3.676915   0.000000   0.000000   0.000000   0.000000   0.000000
     2  C    0.000000   4.014822   0.000000   0.000000   0.000000   0.000000
     3  C    0.000000   0.000000   3.987195   0.000000   0.000000   0.000000
     4  O    0.000000   0.000000   0.000000   6.520012   0.000000   0.000000
     5  C    0.000000   0.000000   0.000000   0.000000   3.676915   0.000000
     6  C    0.000000   0.000000   0.000000   0.000000   0.000000   3.987195
     7  O    0.000000   0.000000   0.000000   0.000000   0.000000   0.000000
     8  C    0.000000   0.000000   0.000000   0.000000   0.000000   0.000000
     9  C    0.000000   0.000000   0.000000   0.000000   0.000000   0.000000
    10  C    0.000000   0.000000   0.000000   0.000000   0.000000   0.000000
    11  C    0.000000   0.000000   0.000000   0.000000   0.000000   0.000000
    12  C    0.000000   0.000000   0.000000   0.000000   0.000000   0.000000
    13  C    0.000000   0.000000   0.000000   0.000000   0.000000   0.000000
    14  C    0.000000   0.000000   0.000000   0.000000   0.000000   0.000000
    15  C    0.000000   0.000000   0.000000   0.000000   0.000000   0.000000
    16  C    0.000000   0.000000   0.000000   0.000000   0.000000   0.000000
    17  O    0.000000   0.000000   0.000000   0.000000   0.000000   0.000000
    18  H    0.000000   0.000000   0.000000   0.000000   0.000000   0.000000
    19  O    0.000000   0.000000   0.000000   0.000000   0.000000   0.000000
    20  H    0.000000   0.000000   0.000000   0.000000   0.000000   0.000000
    21  H    0.000000   0.000000   0.000000   0.000000   0.000000   0.000000
    22  H    0.000000   0.000000   0.000000   0.000000   0.000000   0.000000
    23  H    0.000000   0.000000   0.000000   0.000000   0.000000   0.000000
    24  H    0.000000   0.000000   0.000000   0.000000   0.000000   0.000000
    25  H    0.000000   0.000000   0.000000   0.000000   0.000000   0.000000
    26  H    0.000000   0.000000   0.000000   0.000000   0.000000   0.000000
               7          8          9         10         11         12
     1  C    0.000000   0.000000   0.000000   0.000000   0.000000   0.000000
     2  C    0.000000   0.000000   0.000000   0.000000   0.000000   0.000000
     3  C    0.000000   0.000000   0.000000   0.000000   0.000000   0.000000
     4  O    0.000000   0.000000   0.000000   0.000000   0.000000   0.000000
     5  C    0.000000   0.000000   0.000000   0.000000   0.000000   0.000000
     6  C    0.000000   0.000000   0.000000   0.000000   0.000000   0.000000
     7  O    6.520012   0.000000   0.000000   0.000000   0.000000   0.000000
     8  C    0.000000   4.014822   0.000000   0.000000   0.000000   0.000000
     9  C    0.000000   0.000000   3.821633   0.000000   0.000000   0.000000
    10  C    0.000000   0.000000   0.000000   3.997545   0.000000   0.000000
    11  C    0.000000   0.000000   0.000000   0.000000   3.821633   0.000000
    12  C    0.000000   0.000000   0.000000   0.000000   0.000000   3.997545
    13  C    0.000000   0.000000   0.000000   0.000000   0.000000   0.000000
    14  C    0.000000   0.000000   0.000000   0.000000   0.000000   0.000000
    15  C    0.000000   0.000000   0.000000   0.000000   0.000000   0.000000
    16  C    0.000000   0.000000   0.000000   0.000000   0.000000   0.000000
    17  O    0.000000   0.000000   0.000000   0.000000   0.000000   0.000000
    18  H    0.000000   0.000000   0.000000   0.000000   0.000000   0.000000
    19  O    0.000000   0.000000   0.000000   0.000000   0.000000   0.000000
    20  H    0.000000   0.000000   0.000000   0.000000   0.000000   0.000000
    21  H    0.000000   0.000000   0.000000   0.000000   0.000000   0.000000
    22  H    0.000000   0.000000   0.000000   0.000000   0.000000   0.000000
    23  H    0.000000   0.000000   0.000000   0.000000   0.000000   0.000000
    24  H    0.000000   0.000000   0.000000   0.000000   0.000000   0.000000
    25  H    0.000000   0.000000   0.000000   0.000000   0.000000   0.000000
    26  H    0.000000   0.000000   0.000000   0.000000   0.000000   0.000000
              13         14         15         16         17         18
     1  C    0.000000   0.000000   0.000000   0.000000   0.000000   0.000000
     2  C    0.000000   0.000000   0.000000   0.000000   0.000000   0.000000
     3  C    0.000000   0.000000   0.000000   0.000000   0.000000   0.000000
     4  O    0.000000   0.000000   0.000000   0.000000   0.000000   0.000000
     5  C    0.000000   0.000000   0.000000   0.000000   0.000000   0.000000
     6  C    0.000000   0.000000   0.000000   0.000000   0.000000   0.000000
     7  O    0.000000   0.000000   0.000000   0.000000   0.000000   0.000000
     8  C    0.000000   0.000000   0.000000   0.000000   0.000000   0.000000
     9  C    0.000000   0.000000   0.000000   0.000000   0.000000   0.000000
    10  C    0.000000   0.000000   0.000000   0.000000   0.000000   0.000000
    11  C    0.000000   0.000000   0.000000   0.000000   0.000000   0.000000
    12  C    0.000000   0.000000   0.000000   0.000000   0.000000   0.000000
    13  C    4.013210   0.000000   0.000000   0.000000   0.000000   0.000000
    14  C    0.000000   4.013210   0.000000   0.000000   0.000000   0.000000
    15  C    0.000000   0.000000   4.013714   0.000000   0.000000   0.000000
    16  C    0.000000   0.000000   0.000000   4.013714   0.000000   0.000000
    17  O    0.000000   0.000000   0.000000   0.000000   6.346290   0.000000
    18  H    0.000000   0.000000   0.000000   0.000000   0.000000   0.943493
    19  O    0.000000   0.000000   0.000000   0.000000   0.000000   0.000000
    20  H    0.000000   0.000000   0.000000   0.000000   0.000000   0.000000
    21  H    0.000000   0.000000   0.000000   0.000000   0.000000   0.000000
    22  H    0.000000   0.000000   0.000000   0.000000   0.000000   0.000000
    23  H    0.000000   0.000000   0.000000   0.000000   0.000000   0.000000
    24  H    0.000000   0.000000   0.000000   0.000000   0.000000   0.000000
    25  H    0.000000   0.000000   0.000000   0.000000   0.000000   0.000000
    26  H    0.000000   0.000000   0.000000   0.000000   0.000000   0.000000
              19         20         21         22         23         24
     1  C    0.000000   0.000000   0.000000   0.000000   0.000000   0.000000
     2  C    0.000000   0.000000   0.000000   0.000000   0.000000   0.000000
     3  C    0.000000   0.000000   0.000000   0.000000   0.000000   0.000000
     4  O    0.000000   0.000000   0.000000   0.000000   0.000000   0.000000
     5  C    0.000000   0.000000   0.000000   0.000000   0.000000   0.000000
     6  C    0.000000   0.000000   0.000000   0.000000   0.000000   0.000000
     7  O    0.000000   0.000000   0.000000   0.000000   0.000000   0.000000
     8  C    0.000000   0.000000   0.000000   0.000000   0.000000   0.000000
     9  C    0.000000   0.000000   0.000000   0.000000   0.000000   0.000000
    10  C    0.000000   0.000000   0.000000   0.000000   0.000000   0.000000
    11  C    0.000000   0.000000   0.000000   0.000000   0.000000   0.000000
    12  C    0.000000   0.000000   0.000000   0.000000   0.000000   0.000000
    13  C    0.000000   0.000000   0.000000   0.000000   0.000000   0.000000
    14  C    0.000000   0.000000   0.000000   0.000000   0.000000   0.000000
    15  C    0.000000   0.000000   0.000000   0.000000   0.000000   0.000000
    16  C    0.000000   0.000000   0.000000   0.000000   0.000000   0.000000
    17  O    0.000000   0.000000   0.000000   0.000000   0.000000   0.000000
    18  H    0.000000   0.000000   0.000000   0.000000   0.000000   0.000000
    19  O    6.346291   0.000000   0.000000   0.000000   0.000000   0.000000
    20  H    0.000000   0.943493   0.000000   0.000000   0.000000   0.000000
    21  H    0.000000   0.000000   0.948156   0.000000   0.000000   0.000000
    22  H    0.000000   0.000000   0.000000   0.948155   0.000000   0.000000
    23  H    0.000000   0.000000   0.000000   0.000000   0.959751   0.000000
    24  H    0.000000   0.000000   0.000000   0.000000   0.000000   0.959751
    25  H    0.000000   0.000000   0.000000   0.000000   0.000000   0.000000
    26  H    0.000000   0.000000   0.000000   0.000000   0.000000   0.000000
              25         26
     1  C    0.000000   0.000000
     2  C    0.000000   0.000000
     3  C    0.000000   0.000000
     4  O    0.000000   0.000000
     5  C    0.000000   0.000000
     6  C    0.000000   0.000000
     7  O    0.000000   0.000000
     8  C    0.000000   0.000000
     9  C    0.000000   0.000000
    10  C    0.000000   0.000000
    11  C    0.000000   0.000000
    12  C    0.000000   0.000000
    13  C    0.000000   0.000000
    14  C    0.000000   0.000000
    15  C    0.000000   0.000000
    16  C    0.000000   0.000000
    17  O    0.000000   0.000000
    18  H    0.000000   0.000000
    19  O    0.000000   0.000000
    20  H    0.000000   0.000000
    21  H    0.000000   0.000000
    22  H    0.000000   0.000000
    23  H    0.000000   0.000000
    24  H    0.000000   0.000000
    25  H    0.757264   0.000000
    26  H    0.000000   0.757264
 Mulliken charges:
               1
     1  C    0.323085
     2  C   -0.014822
     3  C    0.012805
     4  O   -0.520012
     5  C    0.323085
     6  C    0.012805
     7  O   -0.520012
     8  C   -0.014822
     9  C    0.178367
    10  C    0.002455
    11  C    0.178367
    12  C    0.002455
    13  C   -0.013210
    14  C   -0.013210
    15  C   -0.013714
    16  C   -0.013714
    17  O   -0.346290
    18  H    0.056507
    19  O   -0.346291
    20  H    0.056507
    21  H    0.051844
    22  H    0.051845
    23  H    0.040249
    24  H    0.040249
    25  H    0.242736
    26  H    0.242736
 Sum of Mulliken charges =   0.00000
 Mulliken charges with hydrogens summed into heavy atoms:
               1
     1  C    0.323085
     2  C   -0.014822
     3  C    0.012805
     4  O   -0.520012
     5  C    0.323085
     6  C    0.012805
     7  O   -0.520012
     8  C   -0.014822
     9  C    0.178367
    10  C    0.058962
    11  C    0.178367
    12  C    0.058962
    13  C    0.038635
    14  C    0.038635
    15  C    0.026535
    16  C    0.026535
    17  O   -0.103555
    19  O   -0.103555
 Charge=              0.0000 electrons
 Dipole moment (field-independent basis, Debye):
    X=             -3.1729    Y=              0.0000    Z=              0.0000  Tot=              3.1729
 N-N= 4.736428740093D+02 E-N= 0.000000000000D+00  KE=-1.141742426155D+03
 1\1\GINC-GTX1080ALPHA\SP\RZINDO\STO-3G\C14H8O4\Z485411\07-Apr-2020\0\\
 # zindo(Nstate=10)\\title\\0,1\C,0,0.037245,0.000655,-0.025892\C,0,0.0
 1692,-0.000093,1.446454\C,0,1.34281,0.000242,-0.71285\O,0,-1.010702,0.
 00158,-0.698959\C,0,2.533521,-0.001505,1.488996\C,0,2.540113,-0.00078,
 0.013743\O,0,3.614387,-0.002399,2.107819\C,0,1.236875,-0.001075,2.1867
 93\C,0,-1.200449,0.000183,2.138644\C,0,3.765058,-0.001136,-0.665132\C,
 0,1.184924,-0.001659,3.586227\C,0,1.379454,0.000897,-2.112857\C,0,-1.2
 32842,-0.000455,3.563463\C,0,-0.063991,-0.001343,4.27279\C,0,2.602784,
 0.000536,-2.782802\C,0,3.794525,-0.000479,-2.059583\O,0,-2.453124,0.00
 1071,1.593986\H,0,4.701686,-0.001946,-0.082774\O,0,2.246409,-0.002588,
 4.445935\H,0,0.430445,0.001704,-2.674814\H,0,-2.214806,-0.000202,4.062
 486\H,0,-0.053279,-0.001841,5.374226\H,0,2.623752,0.001056,-3.883287\H
 ,0,4.761019,-0.000765,-2.586268\H,0,-2.419869,0.001359,0.624312\H,0,3.
 091194,-0.002645,3.968742\\Version=AM64L-G09RevD.01\State=1-A\HF=-132.
 2520503\RMSD=4.571e-09\PG=C01 [X(C14H8O4)]\\@


 TERRY FORSTER, PORTLY ATLANTA BRAVES RELIEVER,
 ANNOUNCING THAT HE WAS GOING TO A FAT FARM:
 "A WAIST IS A TERRIBLE THING TO MIND."
 Job cpu time:       0 days  0 hours  0 minutes  0.9 seconds.
 File lengths (MBytes):  RWF=     33 Int=      0 D2E=      0 Chk=      5 Scr=      1
 Normal termination of Gaussian 09 at Tue Apr  7 14:43:39 2020.
