title                                                                   
SP        RZINDO                                                      STO-3G              
Number of atoms                            I               26
Info1-9                                    I   N=           9
          34          33           0           0           0         110
           1         108         590
Charge                                     I                0
Multiplicity                               I                1
Number of electrons                        I               88
Number of alpha electrons                  I               44
Number of beta electrons                   I               44
Number of basis functions                  I               80
Number of independent functions            I               80
Number of point charges in /Mol/           I                0
Number of translation vectors              I                0
Atomic numbers                             I   N=          26
           6           6           6           8           6           6
           8           6           6           6           6           6
           6           6           6           6           8           1
           8           1           1           1           1           1
           1           1
Nuclear charges                            R   N=          26
  4.00000000E+00  4.00000000E+00  4.00000000E+00  6.00000000E+00  4.00000000E+00
  4.00000000E+00  6.00000000E+00  4.00000000E+00  4.00000000E+00  4.00000000E+00
  4.00000000E+00  4.00000000E+00  4.00000000E+00  4.00000000E+00  4.00000000E+00
  4.00000000E+00  6.00000000E+00  1.00000000E+00  6.00000000E+00  1.00000000E+00
  1.00000000E+00  1.00000000E+00  1.00000000E+00  1.00000000E+00  1.00000000E+00
  1.00000000E+00
Current cartesian coordinates              R   N=          78
 -6.30464198E-01 -2.78595403E+00  2.36908905E-04  1.75379108E+00 -1.32906219E+00
 -6.11028651E-06 -3.01276578E+00 -1.32482920E+00  2.17565937E-05 -6.49879603E-01
 -5.12460911E+00 -1.49308190E-04 -6.30462587E-01  2.78595340E+00 -3.76817973E-04
 -3.01276406E+00  1.32482934E+00 -7.60742105E-05 -6.49877331E-01  5.12461001E+00
  1.01021935E-04  1.75379076E+00  1.32906119E+00 -5.26158219E-05  4.07896621E+00
 -2.62672739E+00 -2.27799996E-05 -5.31266392E+00  2.63451725E+00 -5.72762414E-05
  4.07896546E+00  2.62672627E+00  3.83287190E-05 -5.31266462E+00 -2.63451683E+00
  8.03822878E-05  6.38830001E+00 -1.30647764E+00  1.03492117E-05  6.38830045E+00
  1.30647731E+00  6.80370730E-05 -7.59460593E+00 -1.31717343E+00  8.03239677E-05
 -7.59460409E+00  1.31717542E+00  1.89351244E-05  3.99468576E+00 -5.21855005E+00
 -6.45394944E-05 -5.28953914E+00  4.71841191E+00 -1.65926678E-04  3.99468601E+00
  5.21854933E+00  9.53550262E-05 -5.28954248E+00 -4.71841047E+00  1.85247223E-04
  8.18165949E+00 -2.35880174E+00  2.41777111E-05  8.18165903E+00  2.35880228E+00
  1.04078983E-04 -9.39241403E+00 -2.36212996E+00  1.45311861E-04 -9.39241486E+00
  2.36212970E+00  1.44799155E-05  5.71847924E+00 -5.84023511E+00  2.40814364E-04
  5.71848126E+00  5.84023515E+00 -1.88501686E-04
Force Field                                I                0
Int Atom Types                             I   N=          26
           0           0           0           0           0           0
           0           0           0           0           0           0
           0           0           0           0           0           0
           0           0           0           0           0           0
           0           0
MM charges                                 R   N=          26
  0.00000000E+00  0.00000000E+00  0.00000000E+00  0.00000000E+00  0.00000000E+00
  0.00000000E+00  0.00000000E+00  0.00000000E+00  0.00000000E+00  0.00000000E+00
  0.00000000E+00  0.00000000E+00  0.00000000E+00  0.00000000E+00  0.00000000E+00
  0.00000000E+00  0.00000000E+00  0.00000000E+00  0.00000000E+00  0.00000000E+00
  0.00000000E+00  0.00000000E+00  0.00000000E+00  0.00000000E+00  0.00000000E+00
  0.00000000E+00
Integer atomic weights                     I   N=          26
          12          12          12          16          12          12
          16          12          12          12          12          12
          12          12          12          12          16           1
          16           1           1           1           1           1
           1           1
Real atomic weights                        R   N=          26
  1.20000000E+01  1.20000000E+01  1.20000000E+01  1.59949146E+01  1.20000000E+01
  1.20000000E+01  1.59949146E+01  1.20000000E+01  1.20000000E+01  1.20000000E+01
  1.20000000E+01  1.20000000E+01  1.20000000E+01  1.20000000E+01  1.20000000E+01
  1.20000000E+01  1.59949146E+01  1.00782504E+00  1.59949146E+01  1.00782504E+00
  1.00782504E+00  1.00782504E+00  1.00782504E+00  1.00782504E+00  1.00782504E+00
  1.00782504E+00
Atom fragment info                         I   N=          26
           0           0           0           0           0           0
           0           0           0           0           0           0
           0           0           0           0           0           0
           0           0           0           0           0           0
           0           0
Atom residue num                           I   N=          26
           0           0           0           0           0           0
           0           0           0           0           0           0
           0           0           0           0           0           0
           0           0           0           0           0           0
           0           0
Nuclear spins                              I   N=          26
           0           0           0           0           0           0
           0           0           0           0           0           0
           0           0           0           0           0           1
           0           1           1           1           1           1
           1           1
Nuclear ZEff                               R   N=          26
 -3.90000000E+00 -3.90000000E+00 -3.90000000E+00 -6.00000000E+00 -3.90000000E+00
 -3.90000000E+00 -6.00000000E+00 -3.90000000E+00 -3.90000000E+00 -3.90000000E+00
 -3.90000000E+00 -3.90000000E+00 -3.90000000E+00 -3.90000000E+00 -3.90000000E+00
 -3.90000000E+00 -6.00000000E+00 -1.00000000E+00 -6.00000000E+00 -1.00000000E+00
 -1.00000000E+00 -1.00000000E+00 -1.00000000E+00 -1.00000000E+00 -1.00000000E+00
 -1.00000000E+00
Nuclear ZNuc                               R   N=          26
  6.00000000E+00  6.00000000E+00  6.00000000E+00  8.00000000E+00  6.00000000E+00
  6.00000000E+00  8.00000000E+00  6.00000000E+00  6.00000000E+00  6.00000000E+00
  6.00000000E+00  6.00000000E+00  6.00000000E+00  6.00000000E+00  6.00000000E+00
  6.00000000E+00  8.00000000E+00  1.00000000E+00  8.00000000E+00  1.00000000E+00
  1.00000000E+00  1.00000000E+00  1.00000000E+00  1.00000000E+00  1.00000000E+00
  1.00000000E+00
Nuclear QMom                               R   N=          26
  0.00000000E+00  0.00000000E+00  0.00000000E+00  0.00000000E+00  0.00000000E+00
  0.00000000E+00  0.00000000E+00  0.00000000E+00  0.00000000E+00  0.00000000E+00
  0.00000000E+00  0.00000000E+00  0.00000000E+00  0.00000000E+00  0.00000000E+00
  0.00000000E+00  0.00000000E+00  0.00000000E+00  0.00000000E+00  0.00000000E+00
  0.00000000E+00  0.00000000E+00  0.00000000E+00  0.00000000E+00  0.00000000E+00
  0.00000000E+00
Nuclear GFac                               R   N=          26
  0.00000000E+00  0.00000000E+00  0.00000000E+00  0.00000000E+00  0.00000000E+00
  0.00000000E+00  0.00000000E+00  0.00000000E+00  0.00000000E+00  0.00000000E+00
  0.00000000E+00  0.00000000E+00  0.00000000E+00  0.00000000E+00  0.00000000E+00
  0.00000000E+00  0.00000000E+00  2.79284600E+00  0.00000000E+00  2.79284600E+00
  2.79284600E+00  2.79284600E+00  2.79284600E+00  2.79284600E+00  2.79284600E+00
  2.79284600E+00
MicOpt                                     I   N=          26
          -1          -1          -1          -1          -1          -1
          -1          -1          -1          -1          -1          -1
          -1          -1          -1          -1          -1          -1
          -1          -1          -1          -1          -1          -1
          -1          -1
Number of contracted shells                I               44
Number of primitive shells                 I              264
Pure/Cartesian d shells                    I                0
Pure/Cartesian f shells                    I                0
Highest angular momentum                   I                1
Largest degree of contraction              I                6
Shell types                                I   N=          44
           0           1           0           1           0           1
           0           1           0           1           0           1
           0           1           0           1           0           1
           0           1           0           1           0           1
           0           1           0           1           0           1
           0           1           0           1           0           0
           1           0           0           0           0           0
           0           0
Number of primitives per shell             I   N=          44
           6           6           6           6           6           6
           6           6           6           6           6           6
           6           6           6           6           6           6
           6           6           6           6           6           6
           6           6           6           6           6           6
           6           6           6           6           6           6
           6           6           6           6           6           6
           6           6
Shell to atom map                          I   N=          44
           1           1           2           2           3           3
           4           4           5           5           6           6
           7           7           8           8           9           9
          10          10          11          11          12          12
          13          13          14          14          15          15
          16          16          17          17          18          19
          19          20          21          22          23          24
          25          26
Primitive exponents                        R   N=         264
  7.31056039E+01  1.34068245E+01  3.76760691E+00  5.38776153E-01  2.44529755E-01
  1.16614858E-01  1.54959425E+01  4.04102668E+00  1.44591785E+00  6.04421300E-01
  2.76382592E-01  1.30663938E-01  7.31056039E+01  1.34068245E+01  3.76760691E+00
  5.38776153E-01  2.44529755E-01  1.16614858E-01  1.54959425E+01  4.04102668E+00
  1.44591785E+00  6.04421300E-01  2.76382592E-01  1.30663938E-01  7.31056039E+01
  1.34068245E+01  3.76760691E+00  5.38776153E-01  2.44529755E-01  1.16614858E-01
  1.54959425E+01  4.04102668E+00  1.44591785E+00  6.04421300E-01  2.76382592E-01
  1.30663938E-01  1.43286984E+02  2.62773760E+01  7.38450955E+00  1.05600126E+00
  4.79278319E-01  2.28565122E-01  3.03720473E+01  7.92041230E+00  2.83399899E+00
  1.18466575E+00  5.41709880E-01  2.56101318E-01  7.31056039E+01  1.34068245E+01
  3.76760691E+00  5.38776153E-01  2.44529755E-01  1.16614858E-01  1.54959425E+01
  4.04102668E+00  1.44591785E+00  6.04421300E-01  2.76382592E-01  1.30663938E-01
  7.31056039E+01  1.34068245E+01  3.76760691E+00  5.38776153E-01  2.44529755E-01
  1.16614858E-01  1.54959425E+01  4.04102668E+00  1.44591785E+00  6.04421300E-01
  2.76382592E-01  1.30663938E-01  1.43286984E+02  2.62773760E+01  7.38450955E+00
  1.05600126E+00  4.79278319E-01  2.28565122E-01  3.03720473E+01  7.92041230E+00
  2.83399899E+00  1.18466575E+00  5.41709880E-01  2.56101318E-01  7.31056039E+01
  1.34068245E+01  3.76760691E+00  5.38776153E-01  2.44529755E-01  1.16614858E-01
  1.54959425E+01  4.04102668E+00  1.44591785E+00  6.04421300E-01  2.76382592E-01
  1.30663938E-01  7.31056039E+01  1.34068245E+01  3.76760691E+00  5.38776153E-01
  2.44529755E-01  1.16614858E-01  1.54959425E+01  4.04102668E+00  1.44591785E+00
  6.04421300E-01  2.76382592E-01  1.30663938E-01  7.31056039E+01  1.34068245E+01
  3.76760691E+00  5.38776153E-01  2.44529755E-01  1.16614858E-01  1.54959425E+01
  4.04102668E+00  1.44591785E+00  6.04421300E-01  2.76382592E-01  1.30663938E-01
  7.31056039E+01  1.34068245E+01  3.76760691E+00  5.38776153E-01  2.44529755E-01
  1.16614858E-01  1.54959425E+01  4.04102668E+00  1.44591785E+00  6.04421300E-01
  2.76382592E-01  1.30663938E-01  7.31056039E+01  1.34068245E+01  3.76760691E+00
  5.38776153E-01  2.44529755E-01  1.16614858E-01  1.54959425E+01  4.04102668E+00
  1.44591785E+00  6.04421300E-01  2.76382592E-01  1.30663938E-01  7.31056039E+01
  1.34068245E+01  3.76760691E+00  5.38776153E-01  2.44529755E-01  1.16614858E-01
  1.54959425E+01  4.04102668E+00  1.44591785E+00  6.04421300E-01  2.76382592E-01
  1.30663938E-01  7.31056039E+01  1.34068245E+01  3.76760691E+00  5.38776153E-01
  2.44529755E-01  1.16614858E-01  1.54959425E+01  4.04102668E+00  1.44591785E+00
  6.04421300E-01  2.76382592E-01  1.30663938E-01  7.31056039E+01  1.34068245E+01
  3.76760691E+00  5.38776153E-01  2.44529755E-01  1.16614858E-01  1.54959425E+01
  4.04102668E+00  1.44591785E+00  6.04421300E-01  2.76382592E-01  1.30663938E-01
  7.31056039E+01  1.34068245E+01  3.76760691E+00  5.38776153E-01  2.44529755E-01
  1.16614858E-01  1.54959425E+01  4.04102668E+00  1.44591785E+00  6.04421300E-01
  2.76382592E-01  1.30663938E-01  1.43286984E+02  2.62773760E+01  7.38450955E+00
  1.05600126E+00  4.79278319E-01  2.28565122E-01  3.03720473E+01  7.92041230E+00
  2.83399899E+00  1.18466575E+00  5.41709880E-01  2.56101318E-01  3.32683653E+01
  6.09971837E+00  1.70648139E+00  5.86222413E-01  2.27647318E-01  9.37577369E-02
  1.43286984E+02  2.62773760E+01  7.38450955E+00  1.05600126E+00  4.79278319E-01
  2.28565122E-01  3.03720473E+01  7.92041230E+00  2.83399899E+00  1.18466575E+00
  5.41709880E-01  2.56101318E-01  3.32683653E+01  6.09971837E+00  1.70648139E+00
  5.86222413E-01  2.27647318E-01  9.37577369E-02  3.32683653E+01  6.09971837E+00
  1.70648139E+00  5.86222413E-01  2.27647318E-01  9.37577369E-02  3.32683653E+01
  6.09971837E+00  1.70648139E+00  5.86222413E-01  2.27647318E-01  9.37577369E-02
  3.32683653E+01  6.09971837E+00  1.70648139E+00  5.86222413E-01  2.27647318E-01
  9.37577369E-02  3.32683653E+01  6.09971837E+00  1.70648139E+00  5.86222413E-01
  2.27647318E-01  9.37577369E-02  3.32683653E+01  6.09971837E+00  1.70648139E+00
  5.86222413E-01  2.27647318E-01  9.37577369E-02  3.32683653E+01  6.09971837E+00
  1.70648139E+00  5.86222413E-01  2.27647318E-01  9.37577369E-02
Contraction coefficients                   R   N=         264
 -4.15127782E-03 -2.06702415E-02 -5.15030334E-02  3.34627117E-01  5.62106130E-01
  1.71299470E-01  7.92423365E-03  5.14410483E-02  1.89840006E-01  4.04986319E-01
  4.01236286E-01  1.05185519E-01 -4.15127782E-03 -2.06702415E-02 -5.15030334E-02
  3.34627117E-01  5.62106130E-01  1.71299470E-01  7.92423365E-03  5.14410483E-02
  1.89840006E-01  4.04986319E-01  4.01236286E-01  1.05185519E-01 -4.15127782E-03
 -2.06702415E-02 -5.15030334E-02  3.34627117E-01  5.62106130E-01  1.71299470E-01
  7.92423365E-03  5.14410483E-02  1.89840006E-01  4.04986319E-01  4.01236286E-01
  1.05185519E-01 -4.15127782E-03 -2.06702415E-02 -5.15030334E-02  3.34627117E-01
  5.62106130E-01  1.71299470E-01  7.92423365E-03  5.14410483E-02  1.89840006E-01
  4.04986319E-01  4.01236286E-01  1.05185519E-01 -4.15127782E-03 -2.06702415E-02
 -5.15030334E-02  3.34627117E-01  5.62106130E-01  1.71299470E-01  7.92423365E-03
  5.14410483E-02  1.89840006E-01  4.04986319E-01  4.01236286E-01  1.05185519E-01
 -4.15127782E-03 -2.06702415E-02 -5.15030334E-02  3.34627117E-01  5.62106130E-01
  1.71299470E-01  7.92423365E-03  5.14410483E-02  1.89840006E-01  4.04986319E-01
  4.01236286E-01  1.05185519E-01 -4.15127782E-03 -2.06702415E-02 -5.15030334E-02
  3.34627117E-01  5.62106130E-01  1.71299470E-01  7.92423365E-03  5.14410483E-02
  1.89840006E-01  4.04986319E-01  4.01236286E-01  1.05185519E-01 -4.15127782E-03
 -2.06702415E-02 -5.15030334E-02  3.34627117E-01  5.62106130E-01  1.71299470E-01
  7.92423365E-03  5.14410483E-02  1.89840006E-01  4.04986319E-01  4.01236286E-01
  1.05185519E-01 -4.15127782E-03 -2.06702415E-02 -5.15030334E-02  3.34627117E-01
  5.62106130E-01  1.71299470E-01  7.92423365E-03  5.14410483E-02  1.89840006E-01
  4.04986319E-01  4.01236286E-01  1.05185519E-01 -4.15127782E-03 -2.06702415E-02
 -5.15030334E-02  3.34627117E-01  5.62106130E-01  1.71299470E-01  7.92423365E-03
  5.14410483E-02  1.89840006E-01  4.04986319E-01  4.01236286E-01  1.05185519E-01
 -4.15127782E-03 -2.06702415E-02 -5.15030334E-02  3.34627117E-01  5.62106130E-01
  1.71299470E-01  7.92423365E-03  5.14410483E-02  1.89840006E-01  4.04986319E-01
  4.01236286E-01  1.05185519E-01 -4.15127782E-03 -2.06702415E-02 -5.15030334E-02
  3.34627117E-01  5.62106130E-01  1.71299470E-01  7.92423365E-03  5.14410483E-02
  1.89840006E-01  4.04986319E-01  4.01236286E-01  1.05185519E-01 -4.15127782E-03
 -2.06702415E-02 -5.15030334E-02  3.34627117E-01  5.62106130E-01  1.71299470E-01
  7.92423365E-03  5.14410483E-02  1.89840006E-01  4.04986319E-01  4.01236286E-01
  1.05185519E-01 -4.15127782E-03 -2.06702415E-02 -5.15030334E-02  3.34627117E-01
  5.62106130E-01  1.71299470E-01  7.92423365E-03  5.14410483E-02  1.89840006E-01
  4.04986319E-01  4.01236286E-01  1.05185519E-01 -4.15127782E-03 -2.06702415E-02
 -5.15030334E-02  3.34627117E-01  5.62106130E-01  1.71299470E-01  7.92423365E-03
  5.14410483E-02  1.89840006E-01  4.04986319E-01  4.01236286E-01  1.05185519E-01
 -4.15127782E-03 -2.06702415E-02 -5.15030334E-02  3.34627117E-01  5.62106130E-01
  1.71299470E-01  7.92423365E-03  5.14410483E-02  1.89840006E-01  4.04986319E-01
  4.01236286E-01  1.05185519E-01 -4.15127782E-03 -2.06702415E-02 -5.15030334E-02
  3.34627117E-01  5.62106130E-01  1.71299470E-01  7.92423365E-03  5.14410483E-02
  1.89840006E-01  4.04986319E-01  4.01236286E-01  1.05185519E-01  9.16359628E-03
  4.93614929E-02  1.68538305E-01  3.70562800E-01  4.16491530E-01  1.30334084E-01
 -4.15127782E-03 -2.06702415E-02 -5.15030334E-02  3.34627117E-01  5.62106130E-01
  1.71299470E-01  7.92423365E-03  5.14410483E-02  1.89840006E-01  4.04986319E-01
  4.01236286E-01  1.05185519E-01  9.16359628E-03  4.93614929E-02  1.68538305E-01
  3.70562800E-01  4.16491530E-01  1.30334084E-01  9.16359628E-03  4.93614929E-02
  1.68538305E-01  3.70562800E-01  4.16491530E-01  1.30334084E-01  9.16359628E-03
  4.93614929E-02  1.68538305E-01  3.70562800E-01  4.16491530E-01  1.30334084E-01
  9.16359628E-03  4.93614929E-02  1.68538305E-01  3.70562800E-01  4.16491530E-01
  1.30334084E-01  9.16359628E-03  4.93614929E-02  1.68538305E-01  3.70562800E-01
  4.16491530E-01  1.30334084E-01  9.16359628E-03  4.93614929E-02  1.68538305E-01
  3.70562800E-01  4.16491530E-01  1.30334084E-01  9.16359628E-03  4.93614929E-02
  1.68538305E-01  3.70562800E-01  4.16491530E-01  1.30334084E-01
Coordinates of each shell                  R   N=         132
 -6.30464198E-01 -2.78595403E+00  2.36908905E-04 -6.30464198E-01 -2.78595403E+00
  2.36908905E-04  1.75379108E+00 -1.32906219E+00 -6.11028651E-06  1.75379108E+00
 -1.32906219E+00 -6.11028651E-06 -3.01276578E+00 -1.32482920E+00  2.17565937E-05
 -3.01276578E+00 -1.32482920E+00  2.17565937E-05 -6.49879603E-01 -5.12460911E+00
 -1.49308190E-04 -6.49879603E-01 -5.12460911E+00 -1.49308190E-04 -6.30462587E-01
  2.78595340E+00 -3.76817973E-04 -6.30462587E-01  2.78595340E+00 -3.76817973E-04
 -3.01276406E+00  1.32482934E+00 -7.60742105E-05 -3.01276406E+00  1.32482934E+00
 -7.60742105E-05 -6.49877331E-01  5.12461001E+00  1.01021935E-04 -6.49877331E-01
  5.12461001E+00  1.01021935E-04  1.75379076E+00  1.32906119E+00 -5.26158219E-05
  1.75379076E+00  1.32906119E+00 -5.26158219E-05  4.07896621E+00 -2.62672739E+00
 -2.27799996E-05  4.07896621E+00 -2.62672739E+00 -2.27799996E-05 -5.31266392E+00
  2.63451725E+00 -5.72762414E-05 -5.31266392E+00  2.63451725E+00 -5.72762414E-05
  4.07896546E+00  2.62672627E+00  3.83287190E-05  4.07896546E+00  2.62672627E+00
  3.83287190E-05 -5.31266462E+00 -2.63451683E+00  8.03822878E-05 -5.31266462E+00
 -2.63451683E+00  8.03822878E-05  6.38830001E+00 -1.30647764E+00  1.03492117E-05
  6.38830001E+00 -1.30647764E+00  1.03492117E-05  6.38830045E+00  1.30647731E+00
  6.80370730E-05  6.38830045E+00  1.30647731E+00  6.80370730E-05 -7.59460593E+00
 -1.31717343E+00  8.03239677E-05 -7.59460593E+00 -1.31717343E+00  8.03239677E-05
 -7.59460409E+00  1.31717542E+00  1.89351244E-05 -7.59460409E+00  1.31717542E+00
  1.89351244E-05  3.99468576E+00 -5.21855005E+00 -6.45394944E-05  3.99468576E+00
 -5.21855005E+00 -6.45394944E-05 -5.28953914E+00  4.71841191E+00 -1.65926678E-04
  3.99468601E+00  5.21854933E+00  9.53550262E-05  3.99468601E+00  5.21854933E+00
  9.53550262E-05 -5.28954248E+00 -4.71841047E+00  1.85247223E-04  8.18165949E+00
 -2.35880174E+00  2.41777111E-05  8.18165903E+00  2.35880228E+00  1.04078983E-04
 -9.39241403E+00 -2.36212996E+00  1.45311861E-04 -9.39241486E+00  2.36212970E+00
  1.44799155E-05  5.71847924E+00 -5.84023511E+00  2.40814364E-04  5.71848126E+00
  5.84023515E+00 -1.88501686E-04
Constraint Structure                       R   N=          78
 -6.30464198E-01 -2.78595403E+00  2.36908905E-04  1.75379108E+00 -1.32906219E+00
 -6.11028651E-06 -3.01276578E+00 -1.32482920E+00  2.17565937E-05 -6.49879603E-01
 -5.12460911E+00 -1.49308190E-04 -6.30462587E-01  2.78595340E+00 -3.76817973E-04
 -3.01276406E+00  1.32482934E+00 -7.60742105E-05 -6.49877331E-01  5.12461001E+00
  1.01021935E-04  1.75379076E+00  1.32906119E+00 -5.26158219E-05  4.07896621E+00
 -2.62672739E+00 -2.27799996E-05 -5.31266392E+00  2.63451725E+00 -5.72762414E-05
  4.07896546E+00  2.62672627E+00  3.83287190E-05 -5.31266462E+00 -2.63451683E+00
  8.03822878E-05  6.38830001E+00 -1.30647764E+00  1.03492117E-05  6.38830045E+00
  1.30647731E+00  6.80370730E-05 -7.59460593E+00 -1.31717343E+00  8.03239677E-05
 -7.59460409E+00  1.31717542E+00  1.89351244E-05  3.99468576E+00 -5.21855005E+00
 -6.45394944E-05 -5.28953914E+00  4.71841191E+00 -1.65926678E-04  3.99468601E+00
  5.21854933E+00  9.53550262E-05 -5.28954248E+00 -4.71841047E+00  1.85247223E-04
  8.18165949E+00 -2.35880174E+00  2.41777111E-05  8.18165903E+00  2.35880228E+00
  1.04078983E-04 -9.39241403E+00 -2.36212996E+00  1.45311861E-04 -9.39241486E+00
  2.36212970E+00  1.44799155E-05  5.71847924E+00 -5.84023511E+00  2.40814364E-04
  5.71848126E+00  5.84023515E+00 -1.88501686E-04
Num ILSW                                   I              100
ILSW                                       I   N=         100
           0           0           0           0           2           0
           0           0           0           0           0          -1
           0           0           0           0           0           0
           0           0           1           0           0           0
           1           0           0           0           0           0
           0           0      100000           0          -1           0
           0           0           0           0           0           0
           0           0           0           5           0           0
           0           0           1           0           0           0
           0           0           4          41           0           0
           0           0           0           0           0           0
           0           0           0           0           0           0
           0           0           0           0           0           0
           0           0           0           0           0           0
           0           0           0           0           0           0
           0           0           0           0           0           0
           0           0           0           0
Num RLSW                                   I               41
RLSW                                       R   N=          41
  1.00000000E+00  1.00000000E+00  1.00000000E+00  1.00000000E+00  1.00000000E+00
  0.00000000E+00  0.00000000E+00  1.00000000E+00  0.00000000E+00  0.00000000E+00
  0.00000000E+00  0.00000000E+00  1.00000000E+00  0.00000000E+00  0.00000000E+00
  0.00000000E+00  0.00000000E+00  1.00000000E+00  0.00000000E+00  0.00000000E+00
  0.00000000E+00  0.00000000E+00  1.00000000E+00  0.00000000E+00  0.00000000E+00
  0.00000000E+00  0.00000000E+00  1.00000000E+00  0.00000000E+00  0.00000000E+00
  0.00000000E+00  0.00000000E+00  1.00000000E+00  0.00000000E+00  0.00000000E+00
  0.00000000E+00  0.00000000E+00  0.00000000E+00  1.00000000E+00  1.00000000E+00
  0.00000000E+00
MxBond                                     I                3
NBond                                      I   N=          26
           3           3           3           1           3           3
           1           3           3           3           3           3
           3           3           3           3           2           1
           2           1           1           1           1           1
           1           1
IBond                                      I   N=          78
           2           3           4           1           8           9
           1           6          12           1           0           0
           6           7           8           3           5          10
           5           0           0           2           5          11
           2          13          17           6          16          18
           8          14          19           3          15          20
           9          14          21          11          13          22
          12          16          23          10          15          24
           9          25           0          10           0           0
          11          26           0          12           0           0
          13           0           0          14           0           0
          15           0           0          16           0           0
          17           0           0          19           0           0
RBond                                      R   N=          78
  1.00000000E+00  1.00000000E+00  2.00000000E+00  1.00000000E+00  1.50000000E+00
  1.50000000E+00  1.00000000E+00  1.50000000E+00  1.50000000E+00  2.00000000E+00
  0.00000000E+00  0.00000000E+00  1.00000000E+00  2.00000000E+00  1.00000000E+00
  1.50000000E+00  1.00000000E+00  1.50000000E+00  2.00000000E+00  0.00000000E+00
  0.00000000E+00  1.50000000E+00  1.00000000E+00  1.50000000E+00  1.50000000E+00
  1.50000000E+00  1.50000000E+00  1.50000000E+00  1.50000000E+00  1.00000000E+00
  1.50000000E+00  1.50000000E+00  1.50000000E+00  1.50000000E+00  1.50000000E+00
  1.00000000E+00  1.50000000E+00  1.50000000E+00  1.00000000E+00  1.50000000E+00
  1.50000000E+00  1.00000000E+00  1.50000000E+00  1.50000000E+00  1.00000000E+00
  1.50000000E+00  1.50000000E+00  1.00000000E+00  1.50000000E+00  1.00000000E+00
  0.00000000E+00  1.00000000E+00  0.00000000E+00  0.00000000E+00  1.50000000E+00
  1.00000000E+00  0.00000000E+00  1.00000000E+00  0.00000000E+00  0.00000000E+00
  1.00000000E+00  0.00000000E+00  0.00000000E+00  1.00000000E+00  0.00000000E+00
  0.00000000E+00  1.00000000E+00  0.00000000E+00  0.00000000E+00  1.00000000E+00
  0.00000000E+00  0.00000000E+00  1.00000000E+00  0.00000000E+00  0.00000000E+00
  1.00000000E+00  0.00000000E+00  0.00000000E+00
Virial Ratio                               R      8.842583518702843E-01
SCF Energy                                 R     -1.322320460488100E+02
CIS Energy                                 R     -1.321384095006882E+02
Total Energy                               R     -1.321384095006882E+02
Post-SCF wavefunction norm                 R      1.000000000000000E+00
RMS Density                                R      2.816779651952785E-09
External E-field                           R   N=          35
  0.00000000E+00  0.00000000E+00  0.00000000E+00  0.00000000E+00  0.00000000E+00
  0.00000000E+00  0.00000000E+00  0.00000000E+00  0.00000000E+00  0.00000000E+00
  0.00000000E+00  0.00000000E+00  0.00000000E+00  0.00000000E+00  0.00000000E+00
  0.00000000E+00  0.00000000E+00  0.00000000E+00  0.00000000E+00  0.00000000E+00
  0.00000000E+00  0.00000000E+00  0.00000000E+00  0.00000000E+00  0.00000000E+00
  0.00000000E+00  0.00000000E+00  0.00000000E+00  0.00000000E+00  0.00000000E+00
  0.00000000E+00  0.00000000E+00  0.00000000E+00  0.00000000E+00  0.00000000E+00
IOpCl                                      I                0
IROHF                                      I                0
Alpha Orbital Energies                     R   N=          80
 -1.74366134E+00 -1.66542530E+00 -1.65560809E+00 -1.55136956E+00 -1.53470158E+00
 -1.50243647E+00 -1.34971644E+00 -1.22672754E+00 -1.22077349E+00 -1.08606696E+00
 -1.05374736E+00 -1.00124125E+00 -9.89195490E-01 -9.15250608E-01 -8.72762090E-01
 -8.46134490E-01 -7.93233661E-01 -7.17031043E-01 -6.95307309E-01 -6.77368290E-01
 -6.66129682E-01 -6.34678791E-01 -6.01194674E-01 -5.98691249E-01 -5.93684500E-01
 -5.74181035E-01 -5.57682239E-01 -5.53619391E-01 -5.39869803E-01 -5.29881668E-01
 -5.20194253E-01 -4.95267414E-01 -4.94062990E-01 -4.84489129E-01 -4.70915435E-01
 -4.65374261E-01 -4.65225775E-01 -4.34989605E-01 -3.64542587E-01 -3.58558066E-01
 -3.58320298E-01 -3.46378133E-01 -3.46375358E-01 -3.17937853E-01 -6.03882500E-02
 -1.20905394E-02  2.74601966E-03  1.10847533E-02  5.15731992E-02  5.29395889E-02
  5.93093005E-02  8.62000260E-02  9.00026484E-02  9.52057512E-02  1.06564054E-01
  1.11777744E-01  1.18224788E-01  1.22356226E-01  1.34963335E-01  1.80367821E-01
  1.85101130E-01  1.85945691E-01  2.07695100E-01  2.31231848E-01  2.41000488E-01