 Entering Gaussian System, Link 0=g09
 Input=anthraquinone-2nh2-zindo.com
 Output=anthraquinone-2nh2-zindo.log
 Initial command:
 /opt/g09/l1.exe "/local/z485411/Gaussian/tmp/Gau-24186.inp" -scrdir="/local/z485411/Gaussian/tmp/"
 Entering Link 1 = /opt/g09/l1.exe PID=     24188.
  
 Copyright (c) 1988,1990,1992,1993,1995,1998,2003,2009,2013,
            Gaussian, Inc.  All Rights Reserved.
  
 This is part of the Gaussian(R) 09 program.  It is based on
 the Gaussian(R) 03 system (copyright 2003, Gaussian, Inc.),
 the Gaussian(R) 98 system (copyright 1998, Gaussian, Inc.),
 the Gaussian(R) 94 system (copyright 1995, Gaussian, Inc.),
 the Gaussian 92(TM) system (copyright 1992, Gaussian, Inc.),
 the Gaussian 90(TM) system (copyright 1990, Gaussian, Inc.),
 the Gaussian 88(TM) system (copyright 1988, Gaussian, Inc.),
 the Gaussian 86(TM) system (copyright 1986, Carnegie Mellon
 University), and the Gaussian 82(TM) system (copyright 1983,
 Carnegie Mellon University). Gaussian is a federally registered
 trademark of Gaussian, Inc.
  
 This software contains proprietary and confidential information,
 including trade secrets, belonging to Gaussian, Inc.
  
 This software is provided under written license and may be
 used, copied, transmitted, or stored only in accord with that
 written license.
  
 The following legend is applicable only to US Government
 contracts under FAR:
  
                    RESTRICTED RIGHTS LEGEND
  
 Use, reproduction and disclosure by the US Government is
 subject to restrictions as set forth in subparagraphs (a)
 and (c) of the Commercial Computer Software - Restricted
 Rights clause in FAR 52.227-19.
  
 Gaussian, Inc.
 340 Quinnipiac St., Bldg. 40, Wallingford CT 06492
  
  
 ---------------------------------------------------------------
 Warning -- This program may not be used in any manner that
 competes with the business of Gaussian, Inc. or will provide
 assistance to any competitor of Gaussian, Inc.  The licensee
 of this program is prohibited from giving any competitor of
 Gaussian, Inc. access to this program.  By using this program,
 the user acknowledges that Gaussian, Inc. is engaged in the
 business of creating and licensing software in the field of
 computational chemistry and represents and warrants to the
 licensee that it is not a competitor of Gaussian, Inc. and that
 it will not use this program in any manner prohibited above.
 ---------------------------------------------------------------
  

 Cite this work as:
 Gaussian 09, Revision D.01,
 M. J. Frisch, G. W. Trucks, H. B. Schlegel, G. E. Scuseria, 
 M. A. Robb, J. R. Cheeseman, G. Scalmani, V. Barone, B. Mennucci, 
 G. A. Petersson, H. Nakatsuji, M. Caricato, X. Li, H. P. Hratchian, 
 A. F. Izmaylov, J. Bloino, G. Zheng, J. L. Sonnenberg, M. Hada, 
 M. Ehara, K. Toyota, R. Fukuda, J. Hasegawa, M. Ishida, T. Nakajima, 
 Y. Honda, O. Kitao, H. Nakai, T. Vreven, J. A. Montgomery, Jr., 
 J. E. Peralta, F. Ogliaro, M. Bearpark, J. J. Heyd, E. Brothers, 
 K. N. Kudin, V. N. Staroverov, T. Keith, R. Kobayashi, J. Normand, 
 K. Raghavachari, A. Rendell, J. C. Burant, S. S. Iyengar, J. Tomasi, 
 M. Cossi, N. Rega, J. M. Millam, M. Klene, J. E. Knox, J. B. Cross, 
 V. Bakken, C. Adamo, J. Jaramillo, R. Gomperts, R. E. Stratmann, 
 O. Yazyev, A. J. Austin, R. Cammi, C. Pomelli, J. W. Ochterski, 
 R. L. Martin, K. Morokuma, V. G. Zakrzewski, G. A. Voth, 
 P. Salvador, J. J. Dannenberg, S. Dapprich, A. D. Daniels, 
 O. Farkas, J. B. Foresman, J. V. Ortiz, J. Cioslowski, 
 and D. J. Fox, Gaussian, Inc., Wallingford CT, 2013.
 
 ******************************************
 Gaussian 09:  AM64L-G09RevD.01 24-Apr-2013
                 7-Apr-2020 
 ******************************************
 %chk=anthraquinone-2nh2-om
 ------------------
 # zindo(Nstate=10)
 ------------------
 1/38=1/1;
 2/12=2,17=6,18=5,40=1/2;
 3/5=2,16=1,25=1,41=400000/1,2,8,3;
 4/5=3,35=1/1;
 5/5=2,35=1,38=5/2;
 8/6=1,108=10/1;
 9/41=10,42=1,49=10/14;
 6/7=2,8=2,9=2,10=2/1;
 99/5=1,9=1/99;
 -----
 title
 -----
 Symbolic Z-matrix:
 Charge =  0 Multiplicity = 1
 6                    0     0.04212  -0.26391   0.0167 
 6                    0     0.02126  -0.1233    1.4877 
 6                    0     1.31575  -0.03047  -0.68986 
 8                    0    -0.99944  -0.61815  -0.56599 
 6                    0     2.49328   0.26442   1.5042 
 6                    0     2.53204   0.03062   0.04829 
 8                    0     3.49078   0.61979   2.15885 
 6                    0     1.19829   0.12261   2.202 
 6                    0    -1.19491  -0.24609   2.17208 
 6                    0     3.77318  -0.066    -0.62124 
 6                    0     1.15291   0.24431   3.59687 
 6                    0     1.3368    0.06577  -2.09996 
 6                    0    -1.23399  -0.12356   3.56019 
 6                    0    -0.06018   0.12066   4.27252 
 6                    0     2.60714   0.04596  -2.75934 
 6                    0     3.77172  -0.0468   -2.05252 
 1                    0    -2.11551  -0.44327   1.59821 
 7                    0     4.98982  -0.26961   0.01487 
 1                    0     2.08698   0.44157   4.1485 
 7                    0     0.21102   0.26947  -2.88569 
 1                    0    -2.19254  -0.22083   4.09178 
 1                    0    -0.08903   0.21707   5.3683 
 1                    0     2.64498   0.09754  -3.8602 
 1                    0     4.73079  -0.09885  -2.59424 
 1                    0     0.29268  -0.03537  -3.82901 
 1                    0    -0.67583   0.08485  -2.47147 
 1                    0     5.78899   0.03489  -0.49313 
 1                    0     5.03171  -0.08445   0.99269 
 
                          Input orientation:                          
 ---------------------------------------------------------------------
 Center     Atomic      Atomic             Coordinates (Angstroms)
 Number     Number       Type             X           Y           Z
 ---------------------------------------------------------------------
      1          6           0        0.042121   -0.263909    0.016696
      2          6           0        0.021263   -0.123297    1.487703
      3          6           0        1.315754   -0.030468   -0.689858
      4          8           0       -0.999441   -0.618146   -0.565987
      5          6           0        2.493281    0.264418    1.504201
      6          6           0        2.532043    0.030616    0.048287
      7          8           0        3.490776    0.619789    2.158847
      8          6           0        1.198294    0.122607    2.202001
      9          6           0       -1.194914   -0.246085    2.172084
     10          6           0        3.773183   -0.065999   -0.621242
     11          6           0        1.152907    0.244314    3.596870
     12          6           0        1.336801    0.065767   -2.099956
     13          6           0       -1.233987   -0.123559    3.560189
     14          6           0       -0.060180    0.120662    4.272521
     15          6           0        2.607137    0.045955   -2.759339
     16          6           0        3.771718   -0.046796   -2.052516
     17          1           0       -2.115505   -0.443265    1.598211
     18          7           0        4.989815   -0.269610    0.014872
     19          1           0        2.086979    0.441565    4.148502
     20          7           0        0.211020    0.269474   -2.885686
     21          1           0       -2.192536   -0.220834    4.091781
     22          1           0       -0.089030    0.217070    5.368304
     23          1           0        2.644975    0.097537   -3.860204
     24          1           0        4.730792   -0.098846   -2.594238
     25          1           0        0.292684   -0.035370   -3.829012
     26          1           0       -0.675829    0.084847   -2.471466
     27          1           0        5.788989    0.034886   -0.493130
     28          1           0        5.031713   -0.084454    0.992691
 ---------------------------------------------------------------------
                    Distance matrix (angstroms):
                    1          2          3          4          5
     1  C    0.000000
     2  C    1.477859   0.000000
     3  C    1.475078   2.534975   0.000000
     4  O    1.244932   2.346136   2.391827   0.000000
     5  C    2.915474   2.502293   2.507473   4.154961   0.000000
     6  C    2.507480   2.898210   1.424060   3.642747   1.475077
     7  O    4.154871   3.611112   3.642619   5.396226   1.244928
     8  C    2.502337   1.398604   2.898289   3.611165   1.477845
     9  C    2.485210   1.400907   3.813221   2.770139   3.782785
    10  C    3.790377   4.304397   2.458644   4.804775   2.502965
    11  C    3.782827   2.421640   4.298612   4.765062   2.485210
    12  C    2.503018   3.825922   1.413535   2.877295   3.790364
    13  C    3.768885   2.422984   4.957090   4.162326   4.274358
    14  C    4.274390   2.796669   5.151819   4.983895   3.768876
    15  C    3.792320   4.975214   2.440545   4.273082   4.270651
    16  C    4.270676   5.157995   2.808712   5.029927   3.792294
    17  H    2.681177   2.163416   4.144780   2.441298   4.663750
    18  N    4.947698   5.184317   3.748674   6.027442   2.955667
    19  H    4.663792   3.415568   4.922127   5.733706   2.681192
    20  N    2.955816   4.395089   2.476300   2.762985   4.947711
    21  H    4.647781   3.419304   5.933667   4.824535   5.374748
    22  H    5.374779   3.897060   6.223827   6.061538   4.647781
    23  H    4.683572   5.960935   3.440103   4.964457   5.369143
    24  H    5.369158   6.232375   3.910732   6.100741   4.683548
    25  H    3.860632   5.324365   3.301664   3.557604   5.777167
    26  H    2.613051   4.025454   2.674664   2.056641   5.087380
    27  H    5.777170   6.100441   4.478036   6.820157   3.860532
    28  H    5.087317   5.034993   4.079490   6.252129   2.612851
                    6          7          8          9         10
     6  C    0.000000
     7  O    2.391810   0.000000
     8  C    2.534923   2.346173   0.000000
     9  C    4.298521   4.765040   2.421626   0.000000
    10  C    1.413518   2.877317   3.825745   5.702376   0.000000
    11  C    3.813151   2.770293   1.400904   2.789762   4.975400
    12  C    2.458615   4.804576   4.304561   4.975657   2.853054
    13  C    5.151719   4.983945   2.796652   1.394050   6.523759
    14  C    4.957003   4.162455   2.422976   2.415359   6.219199
    15  C    2.808672   5.029777   5.158062   6.233764   2.437961
    16  C    2.440525   4.273037   4.975151   6.523373   1.431404
    17  H    4.922045   5.733654   3.415558   1.102587   6.304359
    18  N    2.476266   2.763110   4.394656   6.550190   1.387909
    19  H    4.144722   2.441544   2.163414   3.892289   5.084424
    20  N    3.748653   6.027175   5.184673   5.274798   4.234295
    21  H    6.223722   6.061594   3.897044   2.163590   7.604365
    22  H    5.933580   4.824708   3.419298   3.413695   7.132424
    23  H    3.910695   6.100582   6.232483   7.159003   3.433726
    24  H    3.440087   4.964463   5.960830   7.606149   2.193355
    25  H    4.478005   6.819933   6.100672   6.186316   4.733350
    26  H    4.079527   6.251924   5.035380   4.684178   4.820767
    27  H    3.301643   3.557650   5.324087   7.480455   2.022391
    28  H    2.674601   2.056785   4.024973   6.339399   2.046709
                   11         12         13         14         15
    11  C    0.000000
    12  C    5.702589   0.000000
    13  C    2.415355   6.219488   0.000000
    14  C    1.394050   6.524035   1.394591   0.000000
    15  C    6.523460   1.431409   7.397256   7.521118   0.000000
    16  C    6.233657   2.437979   7.520999   7.397133   1.365449
    17  H    3.892290   5.084680   2.174544   3.419694   6.444449
    18  N    5.274153   4.234322   7.164239   6.616822   3.670556
    19  H    1.102586   6.304540   3.419692   2.174546   6.938684
    20  N    6.550673   1.387894   6.617539   7.164888   2.409834
    21  H    3.413691   7.132739   1.100395   2.167078   8.369342
    22  H    2.163591   7.604656   2.167080   1.100394   8.564880
    23  H    7.606298   2.193354   8.376005   8.570858   1.102722
    24  H    7.158829   3.433742   8.570658   8.375797   2.134979
    25  H    7.480771   2.022386   7.545780   8.110715   2.550982
    26  H    6.339906   2.046720   6.061009   6.772124   3.295793
    27  H    6.185888   4.733373   8.110283   7.545301   3.906406
    28  H    4.683479   4.820727   6.771453   6.060258   4.469150
                   16         17         18         19         20
    16  C    0.000000
    17  H    6.938616   0.000000
    18  N    2.409875   7.281668   0.000000
    19  H    6.444336   4.994775   5.100894   0.000000
    20  N    3.670527   5.101573   5.616113   7.282077   0.000000
    21  H    8.564753   2.504656   8.258918   4.330847   7.396116
    22  H    8.369204   4.330848   7.395320   2.504662   8.259608
    23  H    2.134975   7.262846   4.544148   8.035489   2.627429
    24  H    1.102722   8.035362   2.627491   7.262667   4.544111
    25  H    3.906373   5.951513   6.073990   8.190708   0.994717
    26  H    4.469175   4.349005   6.197341   7.182223   0.996076
    27  H    2.551027   8.190443   0.994718   5.951051   6.073969
    28  H    3.295799   7.181791   0.996076   4.348252   6.197270
                   21         22         23         24         25
    21  H    0.000000
    22  H    2.499202   0.000000
    23  H    9.313267   9.625717   0.000000
    24  H    9.625497   9.313032   2.447829   0.000000
    25  H    8.303594   9.208694   2.356249   4.607114   0.000000
    26  H    6.743149   7.862812   3.599513   5.411134   1.671945
    27  H    9.208232   8.303054   4.607161   2.356336   6.429807
    28  H    7.862107   6.742323   5.411121   3.599558   6.760889
                   26         27         28
    26  H    0.000000
    27  H    6.760930   0.000000
    28  H    6.678704   1.671937   0.000000
 Stoichiometry    C14H10N2O2
 Framework group  C1[X(C14H10N2O2)]
 Deg. of freedom    78
 Full point group                 C1      NOp   1
 Largest Abelian subgroup         C1      NOp   1
 Largest concise Abelian subgroup C1      NOp   1
                         Standard orientation:                         
 ---------------------------------------------------------------------
 Center     Atomic      Atomic             Coordinates (Angstroms)
 Number     Number       Type             X           Y           Z
 ---------------------------------------------------------------------
      1          6           0       -0.328956    1.449169   -0.158096
      2          6           0       -1.597366    0.695628   -0.072179
      3          6           0        0.935818    0.711699    0.021737
      4          8           0       -0.371153    2.664602   -0.424173
      5          6           0       -0.329076   -1.448990    0.159182
      6          6           0        0.935705   -0.711709   -0.021367
      7          8           0       -0.371261   -2.664163    0.426426
      8          6           0       -1.597431   -0.695483    0.072401
      9          6           0       -2.813363    1.387489   -0.144411
     10          6           0        2.151925   -1.416497   -0.170074
     11          6           0       -2.813474   -1.387337    0.143878
     12          6           0        2.152284    1.416250    0.169718
     13          6           0       -4.020349    0.693692   -0.072257
     14          6           0       -4.020406   -0.693530    0.070920
     15          6           0        3.374986    0.675703    0.095398
     16          6           0        3.374807   -0.676164   -0.096709
     17          1           0       -2.800319    2.483737   -0.261755
     18          7           0        2.239184   -2.768057   -0.473328
     19          1           0       -2.800511   -2.483577    0.261290
     20          7           0        2.240065    2.767746    0.473040
     21          1           0       -4.972076    1.243072   -0.129389
     22          1           0       -4.972177   -1.242898    0.127440
     23          1           0        4.335784    1.209217    0.186102
     24          1           0        4.335448   -1.209833   -0.188152
     25          1           0        3.088864    3.208447    0.199572
     26          1           0        1.425864    3.323103    0.328741
     27          1           0        3.088097   -3.208904   -0.200448
     28          1           0        1.424976   -3.323206   -0.328264
 ---------------------------------------------------------------------
 Rotational constants (GHZ):      0.7127468      0.3788900      0.2510367
 Standard basis: VSTO-6G (5D, 7F)
 There are    82 symmetry adapted cartesian basis functions of A   symmetry.
 There are    82 symmetry adapted basis functions of A   symmetry.
    82 basis functions,   492 primitive gaussians,    82 cartesian basis functions
    44 alpha electrons       44 beta electrons
       nuclear repulsion energy       612.3970209989 Hartrees.
 Integral buffers will be    131072 words long.
 Regular integral format.
 Two-electron integral symmetry is turned off.
 Do NDO integrals.
 One-electron integrals computed using PRISM.
 Generate ZINDO/S integrals.
 NDO Nuclear repulsion=   472.076368842155 Hartrees.
 NBasis=    82 RedAO= F EigKep=  0.00D+00  NBF=    82
 NBsUse=    82 1.00D-04 EigRej=  0.00D+00 NBFU=    82
 DipDrv:  will hold  3 matrices at once.
 Simple Huckel Guess.
 Overlap will be assumed to be unity.
 Requested convergence on RMS density matrix=1.00D-08 within 128 cycles.
 Requested convergence on MAX density matrix=1.00D-06.
 Requested convergence on             energy=1.00D-06.
 No special actions if energy rises.
 SCF Done:  E(RZINDO/S) =  -127.001187847     A.U. after   16 cycles
            NFock= 16  Conv=0.37D-08     -V/T= 0.8875
 Range of M.O.s used for correlation:     1    82
 NBasis=    82 NAE=    44 NBE=    44 NFC=     0 NFV=     0
 NROrb=     82 NOA=    44 NOB=    44 NVA=    38 NVB=    38
 Orbital symmetries:
       Occupied  (A) (A) (A) (A) (A) (A) (A) (A) (A) (A) (A) (A)
                 (A) (A) (A) (A) (A) (A) (A) (A) (A) (A) (A) (A)
                 (A) (A) (A) (A) (A) (A) (A) (A) (A) (A) (A) (A)
                 (A) (A) (A) (A) (A) (A) (A) (A)
       Virtual   (A) (A) (A) (A) (A) (A) (A) (A) (A) (A) (A) (A)
                 (A) (A) (A) (A) (A) (A) (A) (A) (A) (A) (A) (A)
                 (A) (A) (A) (A) (A) (A) (A) (A) (A) (A) (A) (A)
                 (A) (A)
    40 initial guesses have been made.
 Convergence on wavefunction:    0.001000000000000
 Iteration     1 Dimension    40 NMult     0 NNew     40
 CISAX will form    40 AO SS matrices at one time.
 New state      2 was old state      7
 New state      3 was old state      9
 New state      4 was old state      3
 New state      5 was old state      4
 New state      6 was old state      2
 New state      7 was old state      6
 New state      8 was old state      5
 New state      9 was old state     10
 New state     10 was old state     20
 Iteration     2 Dimension    80 NMult    40 NNew     40
 New state      1 was old state      2
 New state      2 was old state      3
 New state      3 was old state      1
 New state      9 was old state     11
 New state     10 was old state      9
 Iteration     3 Dimension    90 NMult    80 NNew     10
 Iteration     4 Dimension   100 NMult    90 NNew     10
 Iteration     5 Dimension   110 NMult   100 NNew     10
 Iteration     6 Dimension   112 NMult   110 NNew      2
 ***********************************************************************
 Excited states from <AA,BB:AA,BB> singles matrix:
 ***********************************************************************
 
 Ground to excited state transition densities written to RWF  633
 Ground to excited state transition electric dipole moments (Au):
       state          X           Y           Z        Dip. S.      Osc.
         1        -0.0080     -0.0086     -0.0311      0.0011      0.0001
         2        -0.5221     -0.0001      0.0006      0.2726      0.0177
         3        -1.9656      0.0003      0.0005      3.8634      0.2764
         4        -0.0003     -0.3539     -0.1996      0.1651      0.0151
         5         0.8868     -0.0000      0.0005      0.7865      0.0793
         6         0.0001      0.3367      0.4366      0.3040      0.0307
         7         0.0583      0.0001      0.0001      0.0034      0.0004
         8        -0.0001      1.8049     -0.0404      3.2594      0.3741
         9        -0.0001      1.6556     -0.0722      2.7463      0.3352
        10         2.5581     -0.0004      0.0005      6.5437      0.8180
 Ground to excited state transition velocity dipole moments (Au):
       state          X           Y           Z        Dip. S.      Osc.
         1         0.0005      0.0072     -0.0005      0.0001      0.0004
         2         0.0242     -0.0001     -0.0000      0.0006      0.0040
         3         0.1013     -0.0000     -0.0000      0.0103      0.0637
         4         0.0000      0.0346      0.0072      0.0013      0.0061
         5        -0.0820     -0.0000     -0.0000      0.0067      0.0297
         6         0.0000     -0.0490     -0.0278      0.0032      0.0140
         7        -0.0129     -0.0001     -0.0000      0.0002      0.0007
         8         0.0000     -0.1038     -0.0000      0.0108      0.0417
         9         0.0000     -0.1266     -0.0038      0.0160      0.0584
        10        -0.3039      0.0001     -0.0001      0.0923      0.3283
 Ground to excited state transition magnetic dipole moments (Au):
       state          X           Y           Z
         1        -0.0014      0.9208     -0.2170
         2        -0.1037     -0.0134      0.0036
         3        -0.0302     -0.0001     -0.0001
         4        -0.0000     -0.2498     -0.8209
         5        -0.0008     -0.0001      0.0001
         6        -0.0000      0.0552     -1.2742
         7         0.0794      0.0001     -0.0006
         8        -0.0000     -0.0908     -0.3232
         9         0.0001     -0.0537     -0.3281
        10         0.0090     -0.0004      0.0004
 Ground to excited state transition velocity quadrupole moments (Au):
       state          XX          YY          ZZ          XY          XZ          YZ
         1         0.0014      0.0002      0.0001      0.0510     -0.0248      0.0001
         2         0.0048      0.0567      0.0072     -0.0006      0.0005      0.0060
         3         0.0280      0.1084      0.0141      0.0000      0.0001      0.0918
         4        -0.0002      0.0001      0.0000      0.1890      0.0131     -0.0001
         5         0.5280     -0.0639      0.0123     -0.0002      0.0001      0.0212
         6        -0.0004      0.0001     -0.0000     -0.6098     -0.0637      0.0002
         7         0.0954     -0.1350     -0.0002     -0.0007     -0.0001      0.0025
         8         0.0000     -0.0002      0.0001     -0.2754     -0.0560     -0.0002
         9        -0.0000     -0.0001      0.0000     -0.3539     -0.0310     -0.0001
        10         1.0175     -0.2773      0.0155      0.0005      0.0002     -0.0060
 <0|del|b> * <b|rxdel|0> + <0|del|b> * <b|delr+rdel|0>
 Rotatory Strengths (R) in cgs (10**-40 erg-esu-cm/Gauss)
       state          XX          YY          ZZ    R(velocity)    E-M Angle
         1        24.9702      0.4717     23.3780     16.2733       10.14
         2         0.0025     -8.5596     -9.6014     -6.0528      172.27
         3         0.0000     20.5280    -40.7131     -6.7284       90.00
         4       -35.2637    -18.8645    -21.1267    -25.0850      118.75
         5         0.0000     -3.9173      4.2185      0.1004       90.00
         6       108.8835     43.1987      0.9699     51.0174       62.89
         7         0.0001     -2.3283     -2.1873     -1.5052       90.00
         8         7.4389      0.0012     31.3030     12.9144       74.30
         9        10.6092     -0.1916     20.7159     10.3778       78.96
        10        -0.0002     -1.7301     -8.5689     -3.4331      176.54
 1/2[<0|r|b>*<b|rxdel|0> + (<0|rxdel|b>*<b|r|0>)*]
 Rotatory Strengths (R) in cgs (10**-40 erg-esu-cm/Gauss)
       state          XX          YY          ZZ     R(length)
         1        -0.0080      5.6296     -4.7758      0.2820
         2       -38.2982     -0.0008     -0.0015    -12.7669
         3       -42.0431      0.0000      0.0000    -14.0144
         4        -0.0000    -62.5260   -115.8592    -59.4618
         5         0.4925     -0.0000     -0.0000      0.1642
         6         0.0000    -13.1447    393.4359    126.7637
         7        -3.2754     -0.0000      0.0000     -1.0918
         8        -0.0000    115.9357     -9.2265     35.5697
         9         0.0000     62.9239    -16.7495     15.3915
        10       -16.2563     -0.0001     -0.0001     -5.4189
  1/2[<0|del|b>*<b|r|0> + (<0|r|b>*<b|del|0>)*] (Au)
       state          X           Y           Z        Dip. S.   Osc.(frdel)
         1        -0.0000     -0.0001      0.0000      0.0001      0.0000
         2        -0.0126      0.0000     -0.0000      0.0126      0.0084
         3        -0.1990     -0.0000     -0.0000      0.1990      0.1327
         4        -0.0000     -0.0123     -0.0014      0.0137      0.0091
         5        -0.0727      0.0000     -0.0000      0.0727      0.0485
         6         0.0000     -0.0165     -0.0122      0.0287      0.0191
         7        -0.0008     -0.0000     -0.0000      0.0008      0.0005
         8        -0.0000     -0.1873      0.0000      0.1873      0.1249
         9        -0.0000     -0.2095      0.0003      0.2093      0.1395
        10        -0.7773     -0.0000     -0.0000      0.7773      0.5182

 Excitation energies and oscillator strengths:
 
 Excited State   1:      Singlet-A      2.6436 eV  469.00 nm  f=0.0001  <S**2>=0.000
      39 -> 46        -0.29101
      39 -> 49         0.20491
      40 -> 45         0.46586
      40 -> 50        -0.13747
      41 -> 45         0.28575
      43 -> 45         0.12518
 This state for optimization and/or second-order correction.
 Total Energy, E(CIS) =  -126.904038428    
 Copying the excited state density for this state as the 1-particle RhoCI density.
 
 Excited State   2:      Singlet-A      2.6541 eV  467.14 nm  f=0.0177  <S**2>=0.000
      39 -> 45         0.52153
      39 -> 50        -0.16027
      40 -> 46        -0.25185
      40 -> 49         0.16212
      41 -> 46        -0.13559
      41 -> 49         0.10062
      44 -> 45         0.21756
 
 Excited State   3:      Singlet-A      2.9199 eV  424.61 nm  f=0.2764  <S**2>=0.000
      39 -> 45        -0.17156
      44 -> 45         0.64250
      44 -> 47         0.13244
 
 Excited State   4:      Singlet-A      3.7327 eV  332.16 nm  f=0.0151  <S**2>=0.000
      40 -> 45        -0.15199
      43 -> 45         0.52292
      44 -> 46        -0.36083
      44 -> 48        -0.16927
 
 Excited State   5:      Singlet-A      4.1149 eV  301.31 nm  f=0.0793  <S**2>=0.000
      41 -> 46         0.11953
      42 -> 45         0.59105
      42 -> 47        -0.21812
      43 -> 46        -0.14941
      43 -> 48         0.16504
 
 Excited State   6:      Singlet-A      4.1200 eV  300.93 nm  f=0.0307  <S**2>=0.000
      41 -> 45        -0.17447
      43 -> 45         0.41509
      44 -> 46         0.43417
      44 -> 48         0.26879
 
 Excited State   7:      Singlet-A      4.3745 eV  283.43 nm  f=0.0004  <S**2>=0.000
      41 -> 46         0.11551
      43 -> 46         0.13850
      43 -> 48         0.11466
      44 -> 45        -0.15210
      44 -> 47         0.57649
      44 -> 50         0.25359
 
 Excited State   8:      Singlet-A      4.6844 eV  264.67 nm  f=0.3741  <S**2>=0.000
      40 -> 45        -0.23334
      41 -> 45         0.52277
      42 -> 46        -0.14257
      44 -> 46         0.29279
      44 -> 49        -0.12598
 
 Excited State   9:      Singlet-A      4.9815 eV  248.89 nm  f=0.3352  <S**2>=0.000
      38 -> 45         0.13206
      41 -> 45         0.17814
      44 -> 46        -0.19210
      44 -> 48         0.47610
      44 -> 49         0.36962
 
 Excited State  10:      Singlet-A      5.1022 eV  243.00 nm  f=0.8180  <S**2>=0.000
      41 -> 46        -0.11507
      41 -> 48         0.20402
      42 -> 45         0.29183
      42 -> 47         0.13368
      42 -> 50        -0.13175
      43 -> 46         0.52462
      43 -> 48        -0.11096
      44 -> 47        -0.11243
 SavETr:  write IOETrn=   770 NScale= 10 NData=  16 NLR=1 NState=   10 LETran=     190.

 **********************************************************************

            Population analysis using the SCF density.

 **********************************************************************

 Orbital symmetries:
       Occupied  (A) (A) (A) (A) (A) (A) (A) (A) (A) (A) (A) (A)
                 (A) (A) (A) (A) (A) (A) (A) (A) (A) (A) (A) (A)
                 (A) (A) (A) (A) (A) (A) (A) (A) (A) (A) (A) (A)
                 (A) (A) (A) (A) (A) (A) (A) (A)
       Virtual   (A) (A) (A) (A) (A) (A) (A) (A) (A) (A) (A) (A)
                 (A) (A) (A) (A) (A) (A) (A) (A) (A) (A) (A) (A)
                 (A) (A) (A) (A) (A) (A) (A) (A) (A) (A) (A) (A)
                 (A) (A)
 The electronic state is 1-A.
 Alpha  occ. eigenvalues --   -1.72887  -1.63579  -1.62792  -1.52565  -1.49373
 Alpha  occ. eigenvalues --   -1.43283  -1.32544  -1.22018  -1.21408  -1.06998
 Alpha  occ. eigenvalues --   -1.04889  -1.01865  -0.98241  -0.91014  -0.88277
 Alpha  occ. eigenvalues --   -0.84704  -0.78402  -0.77399  -0.70564  -0.68155
 Alpha  occ. eigenvalues --   -0.65864  -0.65751  -0.62569  -0.61157  -0.58950
 Alpha  occ. eigenvalues --   -0.57866  -0.56840  -0.55521  -0.53706  -0.52571
 Alpha  occ. eigenvalues --   -0.52255  -0.50137  -0.49148  -0.46725  -0.46480
 Alpha  occ. eigenvalues --   -0.46072  -0.45803  -0.39726  -0.36396  -0.35847
 Alpha  occ. eigenvalues --   -0.35039  -0.34491  -0.34195  -0.29023
 Alpha virt. eigenvalues --   -0.05703  -0.01014   0.00699   0.01586   0.05399
 Alpha virt. eigenvalues --    0.05439   0.06443   0.09154   0.09157   0.09887
 Alpha virt. eigenvalues --    0.11096   0.11174   0.12102   0.12876   0.13902
 Alpha virt. eigenvalues --    0.18408   0.18588   0.18600   0.20184   0.22046
 Alpha virt. eigenvalues --    0.23286   0.24765   0.27035   0.30099   0.30287
 Alpha virt. eigenvalues --    0.30363   0.31700   0.31907   0.37107   0.38081
 Alpha virt. eigenvalues --    0.41190   0.41508   0.42957   0.44839   0.46078
 Alpha virt. eigenvalues --    0.47055   0.48681   0.50921
          Condensed to atoms (all electrons):
               1          2          3          4          5          6
     1  C    3.679066   0.000000   0.000000   0.000000   0.000000   0.000000
     2  C    0.000000   3.986403   0.000000   0.000000   0.000000   0.000000
     3  C    0.000000   0.000000   4.020964   0.000000   0.000000   0.000000
     4  O    0.000000   0.000000   0.000000   6.531917   0.000000   0.000000
     5  C    0.000000   0.000000   0.000000   0.000000   3.679044   0.000000
     6  C    0.000000   0.000000   0.000000   0.000000   0.000000   4.020938
     7  O    0.000000   0.000000   0.000000   0.000000   0.000000   0.000000
     8  C    0.000000   0.000000   0.000000   0.000000   0.000000   0.000000
     9  C    0.000000   0.000000   0.000000   0.000000   0.000000   0.000000
    10  C    0.000000   0.000000   0.000000   0.000000   0.000000   0.000000
    11  C    0.000000   0.000000   0.000000   0.000000   0.000000   0.000000
    12  C    0.000000   0.000000   0.000000   0.000000   0.000000   0.000000
    13  C    0.000000   0.000000   0.000000   0.000000   0.000000   0.000000
    14  C    0.000000   0.000000   0.000000   0.000000   0.000000   0.000000
    15  C    0.000000   0.000000   0.000000   0.000000   0.000000   0.000000
    16  C    0.000000   0.000000   0.000000   0.000000   0.000000   0.000000
    17  H    0.000000   0.000000   0.000000   0.000000   0.000000   0.000000
    18  N    0.000000   0.000000   0.000000   0.000000   0.000000   0.000000
    19  H    0.000000   0.000000   0.000000   0.000000   0.000000   0.000000
    20  N    0.000000   0.000000   0.000000   0.000000   0.000000   0.000000
    21  H    0.000000   0.000000   0.000000   0.000000   0.000000   0.000000
    22  H    0.000000   0.000000   0.000000   0.000000   0.000000   0.000000
    23  H    0.000000   0.000000   0.000000   0.000000   0.000000   0.000000
    24  H    0.000000   0.000000   0.000000   0.000000   0.000000   0.000000
    25  H    0.000000   0.000000   0.000000   0.000000   0.000000   0.000000
    26  H    0.000000   0.000000   0.000000   0.000000   0.000000   0.000000
    27  H    0.000000   0.000000   0.000000   0.000000   0.000000   0.000000
    28  H    0.000000   0.000000   0.000000   0.000000   0.000000   0.000000
               7          8          9         10         11         12
     1  C    0.000000   0.000000   0.000000   0.000000   0.000000   0.000000
     2  C    0.000000   0.000000   0.000000   0.000000   0.000000   0.000000
     3  C    0.000000   0.000000   0.000000   0.000000   0.000000   0.000000
     4  O    0.000000   0.000000   0.000000   0.000000   0.000000   0.000000
     5  C    0.000000   0.000000   0.000000   0.000000   0.000000   0.000000
     6  C    0.000000   0.000000   0.000000   0.000000   0.000000   0.000000
     7  O    6.531908   0.000000   0.000000   0.000000   0.000000   0.000000
     8  C    0.000000   3.986395   0.000000   0.000000   0.000000   0.000000
     9  C    0.000000   0.000000   4.000624   0.000000   0.000000   0.000000
    10  C    0.000000   0.000000   0.000000   3.865728   0.000000   0.000000
    11  C    0.000000   0.000000   0.000000   0.000000   4.000633   0.000000
    12  C    0.000000   0.000000   0.000000   0.000000   0.000000   3.865691
    13  C    0.000000   0.000000   0.000000   0.000000   0.000000   0.000000
    14  C    0.000000   0.000000   0.000000   0.000000   0.000000   0.000000
    15  C    0.000000   0.000000   0.000000   0.000000   0.000000   0.000000
    16  C    0.000000   0.000000   0.000000   0.000000   0.000000   0.000000
    17  H    0.000000   0.000000   0.000000   0.000000   0.000000   0.000000
    18  N    0.000000   0.000000   0.000000   0.000000   0.000000   0.000000
    19  H    0.000000   0.000000   0.000000   0.000000   0.000000   0.000000
    20  N    0.000000   0.000000   0.000000   0.000000   0.000000   0.000000
    21  H    0.000000   0.000000   0.000000   0.000000   0.000000   0.000000
    22  H    0.000000   0.000000   0.000000   0.000000   0.000000   0.000000
    23  H    0.000000   0.000000   0.000000   0.000000   0.000000   0.000000
    24  H    0.000000   0.000000   0.000000   0.000000   0.000000   0.000000
    25  H    0.000000   0.000000   0.000000   0.000000   0.000000   0.000000
    26  H    0.000000   0.000000   0.000000   0.000000   0.000000   0.000000
    27  H    0.000000   0.000000   0.000000   0.000000   0.000000   0.000000
    28  H    0.000000   0.000000   0.000000   0.000000   0.000000   0.000000
              13         14         15         16         17         18
     1  C    0.000000   0.000000   0.000000   0.000000   0.000000   0.000000
     2  C    0.000000   0.000000   0.000000   0.000000   0.000000   0.000000
     3  C    0.000000   0.000000   0.000000   0.000000   0.000000   0.000000
     4  O    0.000000   0.000000   0.000000   0.000000   0.000000   0.000000
     5  C    0.000000   0.000000   0.000000   0.000000   0.000000   0.000000
     6  C    0.000000   0.000000   0.000000   0.000000   0.000000   0.000000
     7  O    0.000000   0.000000   0.000000   0.000000   0.000000   0.000000
     8  C    0.000000   0.000000   0.000000   0.000000   0.000000   0.000000
     9  C    0.000000   0.000000   0.000000   0.000000   0.000000   0.000000
    10  C    0.000000   0.000000   0.000000   0.000000   0.000000   0.000000
    11  C    0.000000   0.000000   0.000000   0.000000   0.000000   0.000000
    12  C    0.000000   0.000000   0.000000   0.000000   0.000000   0.000000
    13  C    4.017201   0.000000   0.000000   0.000000   0.000000   0.000000
    14  C    0.000000   4.017195   0.000000   0.000000   0.000000   0.000000
    15  C    0.000000   0.000000   4.033242   0.000000   0.000000   0.000000
    16  C    0.000000   0.000000   0.000000   4.033220   0.000000   0.000000
    17  H    0.000000   0.000000   0.000000   0.000000   0.944993   0.000000
    18  N    0.000000   0.000000   0.000000   0.000000   0.000000   5.320081
    19  H    0.000000   0.000000   0.000000   0.000000   0.000000   0.000000
    20  N    0.000000   0.000000   0.000000   0.000000   0.000000   0.000000
    21  H    0.000000   0.000000   0.000000   0.000000   0.000000   0.000000
    22  H    0.000000   0.000000   0.000000   0.000000   0.000000   0.000000
    23  H    0.000000   0.000000   0.000000   0.000000   0.000000   0.000000
    24  H    0.000000   0.000000   0.000000   0.000000   0.000000   0.000000
    25  H    0.000000   0.000000   0.000000   0.000000   0.000000   0.000000
    26  H    0.000000   0.000000   0.000000   0.000000   0.000000   0.000000
    27  H    0.000000   0.000000   0.000000   0.000000   0.000000   0.000000
    28  H    0.000000   0.000000   0.000000   0.000000   0.000000   0.000000
              19         20         21         22         23         24
     1  C    0.000000   0.000000   0.000000   0.000000   0.000000   0.000000
     2  C    0.000000   0.000000   0.000000   0.000000   0.000000   0.000000
     3  C    0.000000   0.000000   0.000000   0.000000   0.000000   0.000000
     4  O    0.000000   0.000000   0.000000   0.000000   0.000000   0.000000
     5  C    0.000000   0.000000   0.000000   0.000000   0.000000   0.000000
     6  C    0.000000   0.000000   0.000000   0.000000   0.000000   0.000000
     7  O    0.000000   0.000000   0.000000   0.000000   0.000000   0.000000
     8  C    0.000000   0.000000   0.000000   0.000000   0.000000   0.000000
     9  C    0.000000   0.000000   0.000000   0.000000   0.000000   0.000000
    10  C    0.000000   0.000000   0.000000   0.000000   0.000000   0.000000
    11  C    0.000000   0.000000   0.000000   0.000000   0.000000   0.000000
    12  C    0.000000   0.000000   0.000000   0.000000   0.000000   0.000000
    13  C    0.000000   0.000000   0.000000   0.000000   0.000000   0.000000
    14  C    0.000000   0.000000   0.000000   0.000000   0.000000   0.000000
    15  C    0.000000   0.000000   0.000000   0.000000   0.000000   0.000000
    16  C    0.000000   0.000000   0.000000   0.000000   0.000000   0.000000
    17  H    0.000000   0.000000   0.000000   0.000000   0.000000   0.000000
    18  N    0.000000   0.000000   0.000000   0.000000   0.000000   0.000000
    19  H    0.945000   0.000000   0.000000   0.000000   0.000000   0.000000
    20  N    0.000000   5.320061   0.000000   0.000000   0.000000   0.000000
    21  H    0.000000   0.000000   0.961724   0.000000   0.000000   0.000000
    22  H    0.000000   0.000000   0.000000   0.961723   0.000000   0.000000
    23  H    0.000000   0.000000   0.000000   0.000000   0.962223   0.000000
    24  H    0.000000   0.000000   0.000000   0.000000   0.000000   0.962221
    25  H    0.000000   0.000000   0.000000   0.000000   0.000000   0.000000
    26  H    0.000000   0.000000   0.000000   0.000000   0.000000   0.000000
    27  H    0.000000   0.000000   0.000000   0.000000   0.000000   0.000000
    28  H    0.000000   0.000000   0.000000   0.000000   0.000000   0.000000
              25         26         27         28
     1  C    0.000000   0.000000   0.000000   0.000000
     2  C    0.000000   0.000000   0.000000   0.000000
     3  C    0.000000   0.000000   0.000000   0.000000
     4  O    0.000000   0.000000   0.000000   0.000000
     5  C    0.000000   0.000000   0.000000   0.000000
     6  C    0.000000   0.000000   0.000000   0.000000
     7  O    0.000000   0.000000   0.000000   0.000000
     8  C    0.000000   0.000000   0.000000   0.000000
     9  C    0.000000   0.000000   0.000000   0.000000
    10  C    0.000000   0.000000   0.000000   0.000000
    11  C    0.000000   0.000000   0.000000   0.000000
    12  C    0.000000   0.000000   0.000000   0.000000
    13  C    0.000000   0.000000   0.000000   0.000000
    14  C    0.000000   0.000000   0.000000   0.000000
    15  C    0.000000   0.000000   0.000000   0.000000
    16  C    0.000000   0.000000   0.000000   0.000000
    17  H    0.000000   0.000000   0.000000   0.000000
    18  N    0.000000   0.000000   0.000000   0.000000
    19  H    0.000000   0.000000   0.000000   0.000000
    20  N    0.000000   0.000000   0.000000   0.000000
    21  H    0.000000   0.000000   0.000000   0.000000
    22  H    0.000000   0.000000   0.000000   0.000000
    23  H    0.000000   0.000000   0.000000   0.000000
    24  H    0.000000   0.000000   0.000000   0.000000
    25  H    0.849367   0.000000   0.000000   0.000000
    26  H    0.000000   0.826531   0.000000   0.000000
    27  H    0.000000   0.000000   0.849368   0.000000
    28  H    0.000000   0.000000   0.000000   0.826540
 Mulliken charges:
               1
     1  C    0.320934
     2  C    0.013597
     3  C   -0.020964
     4  O   -0.531917
     5  C    0.320956
     6  C   -0.020938
     7  O   -0.531908
     8  C    0.013605
     9  C   -0.000624
    10  C    0.134272
    11  C   -0.000633
    12  C    0.134309
    13  C   -0.017201
    14  C   -0.017195
    15  C   -0.033242
    16  C   -0.033220
    17  H    0.055007
    18  N   -0.320081
    19  H    0.055000
    20  N   -0.320061
    21  H    0.038276
    22  H    0.038277
    23  H    0.037777
    24  H    0.037779
    25  H    0.150633
    26  H    0.173469
    27  H    0.150632
    28  H    0.173460
 Sum of Mulliken charges =   0.00000
 Mulliken charges with hydrogens summed into heavy atoms:
               1
     1  C    0.320934
     2  C    0.013597
     3  C   -0.020964
     4  O   -0.531917
     5  C    0.320956
     6  C   -0.020938
     7  O   -0.531908
     8  C    0.013605
     9  C    0.054383
    10  C    0.134272
    11  C    0.054368
    12  C    0.134309
    13  C    0.021075
    14  C    0.021082
    15  C    0.004535
    16  C    0.004558
    18  N    0.004011
    20  N    0.004041
 Charge=              0.0000 electrons
 Dipole moment (field-independent basis, Debye):
    X=              1.2583    Y=             -0.0007    Z=             -0.0051  Tot=              1.2583
 N-N= 4.720763688422D+02 E-N= 0.000000000000D+00  KE=-1.128893296794D+03
 1\1\GINC-GTX1080ALPHA\SP\RZINDO\STO-3G\C14H10N2O2\Z485411\07-Apr-2020\
 0\\# zindo(Nstate=10)\\title\\0,1\C,0,0.042121,-0.263909,0.016696\C,0,
 0.021263,-0.123297,1.487703\C,0,1.315754,-0.030468,-0.689858\O,0,-0.99
 9441,-0.618146,-0.565987\C,0,2.493281,0.264418,1.504201\C,0,2.532043,0
 .030616,0.048287\O,0,3.490776,0.619789,2.158847\C,0,1.198294,0.122607,
 2.202001\C,0,-1.194914,-0.246085,2.172084\C,0,3.773183,-0.065999,-0.62
 1242\C,0,1.152907,0.244314,3.59687\C,0,1.336801,0.065767,-2.099956\C,0
 ,-1.233987,-0.123559,3.560189\C,0,-0.06018,0.120662,4.272521\C,0,2.607
 137,0.045955,-2.759339\C,0,3.771718,-0.046796,-2.052516\H,0,-2.115505,
 -0.443265,1.598211\N,0,4.989815,-0.26961,0.014872\H,0,2.086979,0.44156
 5,4.148502\N,0,0.21102,0.269474,-2.885686\H,0,-2.192536,-0.220834,4.09
 1781\H,0,-0.08903,0.21707,5.368304\H,0,2.644975,0.097537,-3.860204\H,0
 ,4.730792,-0.098846,-2.594238\H,0,0.292684,-0.03537,-3.829012\H,0,-0.6
 75829,0.084847,-2.471466\H,0,5.788989,0.034886,-0.49313\H,0,5.031713,-
 0.084454,0.992691\\Version=AM64L-G09RevD.01\State=1-A\HF=-127.0011878\
 RMSD=3.704e-09\PG=C01 [X(C14H10N2O2)]\\@


 THERE IS AN OLD, OLD RECIPE IN MAINE FOR STEWING COOT. PLACE THE
 BIRD IN A KETTLE OF WATER WITH A RED BUILDING BRICK FREE OF MORTAR AND
 BLEMISHES. PARBOIL THE COOT AND BRICK TOGETHER FOR THREE HOURS.
 POUR OFF THE WATER, REFILL THE KETTLE, AND AGAIN PARBOIL FOR THREE HOURS.
 ONCE AGAIN POUR OFF THE WATER, FOR THE LAST TIME ADD FRESH WATER,
 AND LET THE COOT AND BRICK SIMMER TOGETHER OVERNIGHT. IN THE MORNING,
 THROW AWAY THE COOT AND EAT THE BRICK.
 Job cpu time:       0 days  0 hours  0 minutes  0.9 seconds.
 File lengths (MBytes):  RWF=     32 Int=      0 D2E=      0 Chk=      5 Scr=      1
 Normal termination of Gaussian 09 at Tue Apr  7 08:32:08 2020.
