 Entering Gaussian System, Link 0=g09
 Input=anthraquinone-zindo.com
 Output=anthraquinone-zindo.log
 Initial command:
 /opt/g09/l1.exe "/local/z485411/Gaussian/tmp/Gau-7316.inp" -scrdir="/local/z485411/Gaussian/tmp/"
 Entering Link 1 = /opt/g09/l1.exe PID=      7318.
  
 Copyright (c) 1988,1990,1992,1993,1995,1998,2003,2009,2013,
            Gaussian, Inc.  All Rights Reserved.
  
 This is part of the Gaussian(R) 09 program.  It is based on
 the Gaussian(R) 03 system (copyright 2003, Gaussian, Inc.),
 the Gaussian(R) 98 system (copyright 1998, Gaussian, Inc.),
 the Gaussian(R) 94 system (copyright 1995, Gaussian, Inc.),
 the Gaussian 92(TM) system (copyright 1992, Gaussian, Inc.),
 the Gaussian 90(TM) system (copyright 1990, Gaussian, Inc.),
 the Gaussian 88(TM) system (copyright 1988, Gaussian, Inc.),
 the Gaussian 86(TM) system (copyright 1986, Carnegie Mellon
 University), and the Gaussian 82(TM) system (copyright 1983,
 Carnegie Mellon University). Gaussian is a federally registered
 trademark of Gaussian, Inc.
  
 This software contains proprietary and confidential information,
 including trade secrets, belonging to Gaussian, Inc.
  
 This software is provided under written license and may be
 used, copied, transmitted, or stored only in accord with that
 written license.
  
 The following legend is applicable only to US Government
 contracts under FAR:
  
                    RESTRICTED RIGHTS LEGEND
  
 Use, reproduction and disclosure by the US Government is
 subject to restrictions as set forth in subparagraphs (a)
 and (c) of the Commercial Computer Software - Restricted
 Rights clause in FAR 52.227-19.
  
 Gaussian, Inc.
 340 Quinnipiac St., Bldg. 40, Wallingford CT 06492
  
  
 ---------------------------------------------------------------
 Warning -- This program may not be used in any manner that
 competes with the business of Gaussian, Inc. or will provide
 assistance to any competitor of Gaussian, Inc.  The licensee
 of this program is prohibited from giving any competitor of
 Gaussian, Inc. access to this program.  By using this program,
 the user acknowledges that Gaussian, Inc. is engaged in the
 business of creating and licensing software in the field of
 computational chemistry and represents and warrants to the
 licensee that it is not a competitor of Gaussian, Inc. and that
 it will not use this program in any manner prohibited above.
 ---------------------------------------------------------------
  

 Cite this work as:
 Gaussian 09, Revision D.01,
 M. J. Frisch, G. W. Trucks, H. B. Schlegel, G. E. Scuseria, 
 M. A. Robb, J. R. Cheeseman, G. Scalmani, V. Barone, B. Mennucci, 
 G. A. Petersson, H. Nakatsuji, M. Caricato, X. Li, H. P. Hratchian, 
 A. F. Izmaylov, J. Bloino, G. Zheng, J. L. Sonnenberg, M. Hada, 
 M. Ehara, K. Toyota, R. Fukuda, J. Hasegawa, M. Ishida, T. Nakajima, 
 Y. Honda, O. Kitao, H. Nakai, T. Vreven, J. A. Montgomery, Jr., 
 J. E. Peralta, F. Ogliaro, M. Bearpark, J. J. Heyd, E. Brothers, 
 K. N. Kudin, V. N. Staroverov, T. Keith, R. Kobayashi, J. Normand, 
 K. Raghavachari, A. Rendell, J. C. Burant, S. S. Iyengar, J. Tomasi, 
 M. Cossi, N. Rega, J. M. Millam, M. Klene, J. E. Knox, J. B. Cross, 
 V. Bakken, C. Adamo, J. Jaramillo, R. Gomperts, R. E. Stratmann, 
 O. Yazyev, A. J. Austin, R. Cammi, C. Pomelli, J. W. Ochterski, 
 R. L. Martin, K. Morokuma, V. G. Zakrzewski, G. A. Voth, 
 P. Salvador, J. J. Dannenberg, S. Dapprich, A. D. Daniels, 
 O. Farkas, J. B. Foresman, J. V. Ortiz, J. Cioslowski, 
 and D. J. Fox, Gaussian, Inc., Wallingford CT, 2013.
 
 ******************************************
 Gaussian 09:  AM64L-G09RevD.01 24-Apr-2013
                 7-Apr-2020 
 ******************************************
 %chk=anthraquinone-zindo
 ------------------
 # zindo(NState=10)
 ------------------
 1/38=1/1;
 2/12=2,17=6,18=5,40=1/2;
 3/5=2,16=1,25=1,41=400000/1,2,8,3;
 4/5=3,35=1/1;
 5/5=2,35=1,38=5/2;
 8/6=1,108=10/1;
 9/41=10,42=1,49=10/14;
 6/7=2,8=2,9=2,10=2/1;
 99/5=1,9=1/99;
 -----
 title
 -----
 Symbolic Z-matrix:
 Charge =  0 Multiplicity = 1
 C                    -0.6696   -1.2662    0.1053 
 C                    -2.0876   -0.8192   -0.017 
 C                     0.3876   -0.2137    0.0944 
 O                    -0.3836   -2.4543    0.2084 
 C                    -1.3588    1.598    -0.1475 
 C                     0.0592    1.151    -0.0256 
 O                    -1.6447    2.7861   -0.2512 
 C                    -2.416     0.5456   -0.137 
 C                    -3.1053   -1.7801   -0.0108 
 C                     1.077     2.1119   -0.0321 
 C                    -3.7573    0.9295   -0.2492 
 C                     1.7289   -0.5977    0.2063 
 C                    -4.437    -1.3892   -0.1228 
 C                    -4.7633   -0.033    -0.2422 
 C                     2.735     0.3648    0.1989 
 C                     2.4087    1.721     0.0796 
 H                    -2.8267   -2.8246    0.0833 
 H                     0.7984    3.1564   -0.1262 
 H                    -3.9841    1.9867   -0.341 
 H                     1.9557   -1.6549    0.2981 
 H                    -5.2236   -2.1387   -0.1174 
 H                    -5.8031    0.2698   -0.3298 
 H                     3.7748    0.062     0.2863 
 H                     3.1953    2.4705    0.0739 
 
                          Input orientation:                          
 ---------------------------------------------------------------------
 Center     Atomic      Atomic             Coordinates (Angstroms)
 Number     Number       Type             X           Y           Z
 ---------------------------------------------------------------------
      1          6           0       -0.669600   -1.266200    0.105300
      2          6           0       -2.087600   -0.819200   -0.017000
      3          6           0        0.387600   -0.213700    0.094400
      4          8           0       -0.383600   -2.454300    0.208400
      5          6           0       -1.358800    1.598000   -0.147500
      6          6           0        0.059200    1.151000   -0.025600
      7          8           0       -1.644700    2.786100   -0.251200
      8          6           0       -2.416000    0.545600   -0.137000
      9          6           0       -3.105300   -1.780100   -0.010800
     10          6           0        1.077000    2.111900   -0.032100
     11          6           0       -3.757300    0.929500   -0.249200
     12          6           0        1.728900   -0.597700    0.206300
     13          6           0       -4.437000   -1.389200   -0.122800
     14          6           0       -4.763300   -0.033000   -0.242200
     15          6           0        2.735000    0.364800    0.198900
     16          6           0        2.408700    1.721000    0.079600
     17          1           0       -2.826700   -2.824600    0.083300
     18          1           0        0.798400    3.156400   -0.126200
     19          1           0       -3.984100    1.986700   -0.341000
     20          1           0        1.955700   -1.654900    0.298100
     21          1           0       -5.223600   -2.138700   -0.117400
     22          1           0       -5.803100    0.269800   -0.329800
     23          1           0        3.774800    0.062000    0.286300
     24          1           0        3.195300    2.470500    0.073900
 ---------------------------------------------------------------------
                    Distance matrix (angstroms):
                    1          2          3          4          5
     1  C    0.000000
     2  C    1.491808   0.000000
     3  C    1.491827   2.550619   0.000000
     4  O    1.226380   2.372335   2.372348   0.000000
     5  C    2.956780   2.528050   2.527981   4.183159   0.000000
     6  C    2.528070   2.913848   1.408777   3.639920   1.491775
     7  O    4.183186   3.639945   3.639847   5.409565   1.226407
     8  C    2.528090   1.408874   2.913804   3.639966   1.491753
     9  C    2.492029   1.399672   3.829494   2.812516   3.805326
    10  C    3.805397   4.313498   2.428928   4.800143   2.492094
    11  C    3.805346   2.428944   4.313370   4.800141   2.491995
    12  C    2.491966   3.829438   1.399665   2.812405   3.805281
    13  C    3.776303   2.419871   4.970487   4.204067   4.289439
    14  C    4.289513   2.797891   5.165048   5.024690   3.776208
    15  C    3.776271   4.970507   2.419890   4.203936   4.289519
    16  C    4.289517   5.165139   2.797879   5.024605   3.776342
    17  H    2.661236   2.139616   4.141092   2.474168   4.665554
    18  H    4.665620   4.913890   3.402204   5.743608   2.661311
    19  H    4.665453   3.402170   4.913562   5.743511   2.660964
    20  H    2.660913   4.140768   2.139507   2.473744   4.665386
    21  H    4.642173   3.403771   5.935996   4.861209   5.375920
    22  H    5.376005   3.884418   6.224025   6.089447   4.642106
    23  H    4.642151   5.936012   3.403815   4.861083   5.375995
    24  H    5.375999   6.224100   3.884396   6.089357   4.642209
                    6          7          8          9         10
     6  C    0.000000
     7  O    2.372282   0.000000
     8  C    2.550595   2.372295   0.000000
     9  C    4.313424   4.800138   2.428980   0.000000
    10  C    1.399746   2.812508   3.829536   5.713121   0.000000
    11  C    3.829456   2.812480   1.399662   2.797118   4.981532
    12  C    2.428915   4.800061   4.313373   4.981435   2.797095
    13  C    5.165063   5.024595   2.797873   1.392398   6.532237
    14  C    4.970440   4.203935   2.419848   2.419684   6.225258
    15  C    2.797931   5.024645   5.165106   6.225245   2.419645
    16  C    2.419942   4.204036   4.970534   6.532233   1.392374
    17  H    4.913825   5.743602   3.402272   1.085105   6.294539
    18  H    2.139665   2.474163   4.141106   6.294539   1.085105
    19  H    4.140791   2.473843   2.139468   3.882023   5.072063
    20  H    3.402142   5.743439   4.913580   5.071964   3.882001
    21  H    6.224028   6.089342   3.884388   2.151082   7.600818
    22  H    5.935959   4.861094   3.403775   3.403230   7.128656
    23  H    3.884442   6.089385   6.224071   7.128631   3.403174
    24  H    3.403837   4.861162   5.936026   7.600811   2.151052
                   11         12         13         14         15
    11  C    0.000000
    12  C    5.712986   0.000000
    13  C    2.419574   6.225199   0.000000
    14  C    1.392297   6.532128   1.400002   0.000000
    15  C    6.532200   1.392371   7.390371   7.521789   0.000000
    16  C    6.225282   2.419618   7.521829   7.390376   1.399994
    17  H    3.881989   5.072248   2.167006   3.413122   6.412343
    18  H    5.072338   3.881965   6.933391   6.412350   3.413084
    19  H    1.085144   6.294206   3.413126   2.167049   6.933135
    20  H    6.294206   1.085144   6.412049   6.933069   2.167103
    21  H    3.403125   7.128585   1.086517   2.159033   8.349064
    22  H    2.151046   7.600723   2.159018   1.086529   8.554981
    23  H    7.600779   2.151119   8.349072   8.554969   1.086513
    24  H    7.128655   3.403191   8.554997   8.349057   2.159045
                   16         17         18         19         20
    16  C    0.000000
    17  H    6.933391   0.000000
    18  H    2.166978   6.996971   0.000000
    19  H    6.412129   4.966710   4.928148   0.000000
    20  H    3.413159   4.928051   4.966687   6.996494   0.000000
    21  H    8.555004   2.501174   8.018893   4.313384   7.207569
    22  H    8.349087   4.313342   7.207893   2.501326   8.018585
    23  H    2.158989   7.207876   4.313285   8.018635   2.501402
    24  H    1.086518   8.018894   2.501125   7.207634   4.313444
                   21         22         23         24
    21  H    0.000000
    22  H    2.486324   0.000000
    23  H    9.272392   9.599944   0.000000
    24  H    9.599958   9.272392   2.486324   0.000000
 Stoichiometry    C14H8O2
 Framework group  C1[X(C14H8O2)]
 Deg. of freedom    66
 Full point group                 C1      NOp   1
 Largest Abelian subgroup         C1      NOp   1
 Largest concise Abelian subgroup C1      NOp   1
                         Standard orientation:                         
 ---------------------------------------------------------------------
 Center     Atomic      Atomic             Coordinates (Angstroms)
 Number     Number       Type             X           Y           Z
 ---------------------------------------------------------------------
      1          6           0        0.000005    1.478416   -0.000831
      2          6           0       -1.275324    0.704448    0.000016
      3          6           0        1.275295    0.704348   -0.000295
      4          8           0        0.000053    2.704795    0.000508
      5          6           0       -0.000032   -1.478363    0.000191
      6          6           0        1.275279   -0.704429   -0.000258
      7          8           0       -0.000009   -2.704770   -0.000544
      8          6           0       -1.275315   -0.704426    0.000045
      9          6           0       -2.490745    1.398589   -0.000017
     10          6           0        2.490784   -1.398573    0.000079
     11          6           0       -2.490747   -1.398529    0.000199
     12          6           0        2.490690    1.398522   -0.000143
     13          6           0       -3.695190    0.699960    0.000030
     14          6           0       -3.695159   -0.700042    0.000216
     15          6           0        3.695181    0.700025    0.000244
     16          6           0        3.695217   -0.699969    0.000332
     17          1           0       -2.464187    2.483369   -0.000590
     18          1           0        2.464227   -2.483353    0.000652
     19          1           0       -2.463921   -2.483341    0.000795
     20          1           0        2.463864    2.483334   -0.000738
     21          1           0       -4.636201    1.243116   -0.000108
     22          1           0       -4.636178   -1.243208    0.000577
     23          1           0        4.636192    1.243173    0.000083
     24          1           0        4.636214   -1.243151    0.000768
 ---------------------------------------------------------------------
 Rotational constants (GHZ):      1.1015177      0.4423886      0.3156273
 Standard basis: VSTO-6G (5D, 7F)
 There are    72 symmetry adapted cartesian basis functions of A   symmetry.
 There are    72 symmetry adapted basis functions of A   symmetry.
    72 basis functions,   432 primitive gaussians,    72 cartesian basis functions
    38 alpha electrons       38 beta electrons
       nuclear repulsion energy       477.2110604693 Hartrees.
 Integral buffers will be    131072 words long.
 Regular integral format.
 Two-electron integral symmetry is turned off.
 Do NDO integrals.
 One-electron integrals computed using PRISM.
 Generate ZINDO/S integrals.
 NDO Nuclear repulsion=   361.437884919384 Hartrees.
 NBasis=    72 RedAO= F EigKep=  0.00D+00  NBF=    72
 NBsUse=    72 1.00D-04 EigRej=  0.00D+00 NBFU=    72
 DipDrv:  will hold  3 matrices at once.
 Simple Huckel Guess.
 Overlap will be assumed to be unity.
 Requested convergence on RMS density matrix=1.00D-08 within 128 cycles.
 Requested convergence on MAX density matrix=1.00D-06.
 Requested convergence on             energy=1.00D-06.
 No special actions if energy rises.
 SCF Done:  E(RZINDO/S) =  -107.888160005     A.U. after   13 cycles
            NFock= 13  Conv=0.35D-08     -V/T= 0.8773
 Range of M.O.s used for correlation:     1    72
 NBasis=    72 NAE=    38 NBE=    38 NFC=     0 NFV=     0
 NROrb=     72 NOA=    38 NOB=    38 NVA=    34 NVB=    34
 Orbital symmetries:
       Occupied  (A) (A) (A) (A) (A) (A) (A) (A) (A) (A) (A) (A)
                 (A) (A) (A) (A) (A) (A) (A) (A) (A) (A) (A) (A)
                 (A) (A) (A) (A) (A) (A) (A) (A) (A) (A) (A) (A)
                 (A) (A)
       Virtual   (A) (A) (A) (A) (A) (A) (A) (A) (A) (A) (A) (A)
                 (A) (A) (A) (A) (A) (A) (A) (A) (A) (A) (A) (A)
                 (A) (A) (A) (A) (A) (A) (A) (A) (A) (A)
    40 initial guesses have been made.
 Convergence on wavefunction:    0.001000000000000
 Iteration     1 Dimension    40 NMult     0 NNew     40
 CISAX will form    40 AO SS matrices at one time.
 New state      1 was old state      6
 New state      2 was old state      5
 New state      3 was old state      1
 New state      4 was old state      2
 New state      5 was old state      3
 New state      6 was old state      4
 New state      8 was old state     10
 New state      9 was old state      8
 New state     10 was old state      9
 Iteration     2 Dimension    80 NMult    40 NNew     40
 New state      1 was old state      2
 New state      2 was old state      1
 Iteration     3 Dimension    90 NMult    80 NNew     10
 Iteration     4 Dimension   100 NMult    90 NNew     10
 Iteration     5 Dimension   110 NMult   100 NNew     10
 Iteration     6 Dimension   112 NMult   110 NNew      2
 ***********************************************************************
 Excited states from <AA,BB:AA,BB> singles matrix:
 ***********************************************************************
 
 Ground to excited state transition densities written to RWF  633
 Ground to excited state transition electric dipole moments (Au):
       state          X           Y           Z        Dip. S.      Osc.
         1        -0.0003     -0.0000      0.0000      0.0000      0.0000
         2         0.0007      0.0002      0.0000      0.0000      0.0000
         3        -0.0013      0.0003     -0.0001      0.0000      0.0000
         4         1.4901     -0.0000      0.0001      2.2205      0.2225
         5         0.0016     -0.0003     -0.0000      0.0000      0.0000
         6        -0.0001     -1.8735     -0.0007      3.5102      0.3961
         7         2.9079     -0.0003      0.0002      8.4558      1.0646
         8        -0.0018     -0.0006      0.0001      0.0000      0.0000
         9         0.0002      0.0048     -0.0001      0.0000      0.0000
        10        -0.0002     -1.5074      0.0002      2.2722      0.3077
 Ground to excited state transition velocity dipole moments (Au):
       state          X           Y           Z        Dip. S.      Osc.
         1        -0.0000      0.0000     -0.0000      0.0000      0.0000
         2         0.0001     -0.0000     -0.0000      0.0000      0.0000
         3         0.0001      0.0000      0.0000      0.0000      0.0000
         4        -0.1290     -0.0000     -0.0000      0.0166      0.0738
         5        -0.0002      0.0000     -0.0000      0.0000      0.0000
         6         0.0000      0.0934      0.0000      0.0087      0.0344
         7        -0.3412      0.0001     -0.0000      0.1164      0.4109
         8         0.0003      0.0001     -0.0000      0.0000      0.0000
         9        -0.0000     -0.0006      0.0000      0.0000      0.0000
        10         0.0000      0.1180     -0.0001      0.0139      0.0457
 Ground to excited state transition magnetic dipole moments (Au):
       state          X           Y           Z
         1         0.0001      0.9969      0.0006
         2        -0.0001     -0.0015      0.0000
         3         0.0000      0.0008      1.3373
         4         0.0000      0.0001      0.0007
         5         0.0002     -0.0000      0.0001
         6         0.0002     -0.0001     -0.0001
         7        -0.0000      0.0002      0.0006
         8        -0.0005      0.0001     -0.0003
         9         0.0000     -0.0007     -1.1116
        10         0.0000      0.0001     -0.0032
 Ground to excited state transition velocity quadrupole moments (Au):
       state          XX          YY          ZZ          XY          XZ          YZ
         1         0.0001      0.0001     -0.0000     -0.0005     -0.0216      0.0000
         2        -0.0000     -0.0000      0.0000      0.0002      0.0001      0.0001
         3        -0.0002      0.0000     -0.0000      0.1932      0.0000     -0.0000
         4        -0.0013      0.0003     -0.0000      0.0003      0.0000     -0.0000
         5         0.5461     -0.0773      0.0193      0.0000      0.0000      0.0000
         6         0.0008     -0.0001      0.0000     -0.0002      0.0001      0.0000
         7        -0.0005      0.0003     -0.0000      0.0005     -0.0000     -0.0000
         8        -1.5525      0.3704     -0.0465     -0.0002     -0.0001      0.0002
         9         0.0005      0.0000      0.0000     -0.6984     -0.0004      0.0000
        10        -0.0009     -0.0002      0.0000     -0.0025     -0.0001     -0.0002
 <0|del|b> * <b|rxdel|0> + <0|del|b> * <b|delr+rdel|0>
 Rotatory Strengths (R) in cgs (10**-40 erg-esu-cm/Gauss)
       state          XX          YY          ZZ    R(velocity)    E-M Angle
         1         0.0134     -0.0001      0.0128      0.0087       90.00
         2         0.0001      0.0000      0.0001      0.0001       90.00
         3         0.0208      0.0155      0.0000      0.0121       90.00
         4        -0.0000     -0.0000     -0.0039     -0.0013       90.00
         5        -0.0000     -0.0001     -0.0001     -0.0000       90.00
         6        -0.0260      0.0000     -0.0045     -0.0102       90.00
         7        -0.0000      0.0231      0.0027      0.0086       90.00
         8         0.0000     -0.0002     -0.0003     -0.0002       90.00
         9        -0.0424     -0.0097      0.0011     -0.0170       90.00
        10         0.0368      0.0001      0.0045      0.0138       90.00
 1/2[<0|r|b>*<b|rxdel|0> + (<0|rxdel|b>*<b|r|0>)*]
 Rotatory Strengths (R) in cgs (10**-40 erg-esu-cm/Gauss)
       state          XX          YY          ZZ     R(length)
         1         0.0000      0.0116     -0.0000      0.0039
         2         0.0000      0.0002     -0.0000      0.0001
         3         0.0000     -0.0002      0.0503      0.0167
         4        -0.0068      0.0000     -0.0001     -0.0023
         5        -0.0002     -0.0000      0.0000     -0.0001
         6         0.0000     -0.1035     -0.0001     -0.0345
         7         0.0415      0.0000     -0.0001      0.0138
         8        -0.0007      0.0000      0.0000     -0.0002
         9        -0.0000      0.0022     -0.0697     -0.0225
        10         0.0000      0.1052      0.0005      0.0352
  1/2[<0|del|b>*<b|r|0> + (<0|r|b>*<b|del|0>)*] (Au)
       state          X           Y           Z        Dip. S.   Osc.(frdel)
         1         0.0000     -0.0000     -0.0000     -0.0000     -0.0000
         2         0.0000     -0.0000     -0.0000     -0.0000     -0.0000
         3        -0.0000      0.0000     -0.0000      0.0000      0.0000
         4        -0.1922      0.0000     -0.0000      0.1922      0.1281
         5        -0.0000     -0.0000      0.0000      0.0000      0.0000
         6        -0.0000     -0.1750     -0.0000      0.1750      0.1167
         7        -0.9921     -0.0000     -0.0000      0.9921      0.6614
         8        -0.0000     -0.0000     -0.0000      0.0000      0.0000
         9        -0.0000     -0.0000     -0.0000      0.0000      0.0000
        10        -0.0000     -0.1779     -0.0000      0.1779      0.1186

 Excitation energies and oscillator strengths:
 
 Excited State   1:      Singlet-A      2.6742 eV  463.62 nm  f=0.0000  <S**2>=0.000
      33 -> 40        -0.28301
      33 -> 43         0.22921
      34 -> 39         0.57018
      34 -> 44        -0.16654
 This state for optimization and/or second-order correction.
 Total Energy, E(CIS) =  -107.789883456    
 Copying the excited state density for this state as the 1-particle RhoCI density.
 
 Excited State   2:      Singlet-A      2.7269 eV  454.67 nm  f=0.0000  <S**2>=0.000
      33 -> 39         0.55865
      33 -> 44        -0.17457
      34 -> 40        -0.29704
      34 -> 43         0.23333
 
 Excited State   3:      Singlet-A      3.9237 eV  315.99 nm  f=0.0000  <S**2>=0.000
      35 -> 41         0.11134
      37 -> 40         0.10070
      38 -> 39         0.67847
 
 Excited State   4:      Singlet-A      4.0892 eV  303.20 nm  f=0.2225  <S**2>=0.000
      35 -> 42         0.16001
      36 -> 41        -0.21458
      37 -> 39         0.60889
      38 -> 40        -0.21154
 
 Excited State   5:      Singlet-A      4.1779 eV  296.76 nm  f=0.0000  <S**2>=0.000
      35 -> 40         0.17495
      36 -> 39         0.59727
      37 -> 41        -0.22233
      38 -> 42        -0.22005
 
 Excited State   6:      Singlet-A      4.6057 eV  269.20 nm  f=0.3961  <S**2>=0.000
      35 -> 39         0.63457
      36 -> 40        -0.20976
      37 -> 42        -0.15455
      38 -> 41         0.10752
 
 Excited State   7:      Singlet-A      5.1390 eV  241.26 nm  f=1.0646  <S**2>=0.000
      35 -> 42        -0.26035
      36 -> 41         0.14663
      37 -> 39         0.31475
      37 -> 44        -0.13526
      38 -> 40         0.53034
 
 Excited State   8:      Singlet-A      5.2236 eV  237.35 nm  f=0.0000  <S**2>=0.000
      35 -> 40         0.43593
      36 -> 39        -0.33892
      36 -> 44         0.17694
      37 -> 41        -0.23766
      38 -> 42        -0.30742
 
 Excited State   9:      Singlet-A      5.4665 eV  226.81 nm  f=0.0000  <S**2>=0.000
      35 -> 41         0.20151
      36 -> 42         0.33818
      37 -> 40         0.54134
      38 -> 39        -0.13437
      38 -> 44         0.11750
 
 Excited State  10:      Singlet-A      5.5276 eV  224.30 nm  f=0.3077  <S**2>=0.000
      35 -> 39         0.27885
      35 -> 44        -0.10171
      36 -> 40         0.46193
      37 -> 42         0.29554
      38 -> 41        -0.30642
 SavETr:  write IOETrn=   770 NScale= 10 NData=  16 NLR=1 NState=   10 LETran=     190.

 **********************************************************************

            Population analysis using the SCF density.

 **********************************************************************

 Orbital symmetries:
       Occupied  (A) (A) (A) (A) (A) (A) (A) (A) (A) (A) (A) (A)
                 (A) (A) (A) (A) (A) (A) (A) (A) (A) (A) (A) (A)
                 (A) (A) (A) (A) (A) (A) (A) (A) (A) (A) (A) (A)
                 (A) (A)
       Virtual   (A) (A) (A) (A) (A) (A) (A) (A) (A) (A) (A) (A)
                 (A) (A) (A) (A) (A) (A) (A) (A) (A) (A) (A) (A)
                 (A) (A) (A) (A) (A) (A) (A) (A) (A) (A)
 The electronic state is 1-A.
 Alpha  occ. eigenvalues --   -1.71374  -1.61897  -1.60031  -1.53498  -1.35815
 Alpha  occ. eigenvalues --   -1.26226  -1.21117  -1.20390  -1.04985  -0.99382
 Alpha  occ. eigenvalues --   -0.99341  -0.93727  -0.89555  -0.86335  -0.76107
 Alpha  occ. eigenvalues --   -0.69463  -0.66391  -0.65993  -0.65353  -0.59725
 Alpha  occ. eigenvalues --   -0.59494  -0.58268  -0.57690  -0.55881  -0.55612
 Alpha  occ. eigenvalues --   -0.51149  -0.50869  -0.49908  -0.48044  -0.46630
 Alpha  occ. eigenvalues --   -0.46357  -0.45888  -0.37453  -0.36589  -0.35360
 Alpha  occ. eigenvalues --   -0.35147  -0.34981  -0.34545
 Alpha virt. eigenvalues --   -0.05964  -0.01287   0.00412   0.01125   0.05100
 Alpha virt. eigenvalues --    0.05210   0.06269   0.09211   0.09279   0.09618
 Alpha virt. eigenvalues --    0.10981   0.11074   0.11771   0.13174   0.13505
 Alpha virt. eigenvalues --    0.18453   0.18635   0.18756   0.20196   0.22904
 Alpha virt. eigenvalues --    0.25320   0.29637   0.29742   0.30223   0.33101
 Alpha virt. eigenvalues --    0.37253   0.37805   0.38644   0.41960   0.43401
 Alpha virt. eigenvalues --    0.44922   0.45986   0.47890   0.49818
          Condensed to atoms (all electrons):
               1          2          3          4          5          6
     1  C    3.679422   0.000000   0.000000   0.000000   0.000000   0.000000
     2  C    0.000000   3.990550   0.000000   0.000000   0.000000   0.000000
     3  C    0.000000   0.000000   3.990541   0.000000   0.000000   0.000000
     4  O    0.000000   0.000000   0.000000   6.501731   0.000000   0.000000
     5  C    0.000000   0.000000   0.000000   0.000000   3.679416   0.000000
     6  C    0.000000   0.000000   0.000000   0.000000   0.000000   3.990542
     7  O    0.000000   0.000000   0.000000   0.000000   0.000000   0.000000
     8  C    0.000000   0.000000   0.000000   0.000000   0.000000   0.000000
     9  C    0.000000   0.000000   0.000000   0.000000   0.000000   0.000000
    10  C    0.000000   0.000000   0.000000   0.000000   0.000000   0.000000
    11  C    0.000000   0.000000   0.000000   0.000000   0.000000   0.000000
    12  C    0.000000   0.000000   0.000000   0.000000   0.000000   0.000000
    13  C    0.000000   0.000000   0.000000   0.000000   0.000000   0.000000
    14  C    0.000000   0.000000   0.000000   0.000000   0.000000   0.000000
    15  C    0.000000   0.000000   0.000000   0.000000   0.000000   0.000000
    16  C    0.000000   0.000000   0.000000   0.000000   0.000000   0.000000
    17  H    0.000000   0.000000   0.000000   0.000000   0.000000   0.000000
    18  H    0.000000   0.000000   0.000000   0.000000   0.000000   0.000000
    19  H    0.000000   0.000000   0.000000   0.000000   0.000000   0.000000
    20  H    0.000000   0.000000   0.000000   0.000000   0.000000   0.000000
    21  H    0.000000   0.000000   0.000000   0.000000   0.000000   0.000000
    22  H    0.000000   0.000000   0.000000   0.000000   0.000000   0.000000
    23  H    0.000000   0.000000   0.000000   0.000000   0.000000   0.000000
    24  H    0.000000   0.000000   0.000000   0.000000   0.000000   0.000000
               7          8          9         10         11         12
     1  C    0.000000   0.000000   0.000000   0.000000   0.000000   0.000000
     2  C    0.000000   0.000000   0.000000   0.000000   0.000000   0.000000
     3  C    0.000000   0.000000   0.000000   0.000000   0.000000   0.000000
     4  O    0.000000   0.000000   0.000000   0.000000   0.000000   0.000000
     5  C    0.000000   0.000000   0.000000   0.000000   0.000000   0.000000
     6  C    0.000000   0.000000   0.000000   0.000000   0.000000   0.000000
     7  O    6.501760   0.000000   0.000000   0.000000   0.000000   0.000000
     8  C    0.000000   3.990554   0.000000   0.000000   0.000000   0.000000
     9  C    0.000000   0.000000   3.999756   0.000000   0.000000   0.000000
    10  C    0.000000   0.000000   0.000000   3.999761   0.000000   0.000000
    11  C    0.000000   0.000000   0.000000   0.000000   3.999733   0.000000
    12  C    0.000000   0.000000   0.000000   0.000000   0.000000   3.999761
    13  C    0.000000   0.000000   0.000000   0.000000   0.000000   0.000000
    14  C    0.000000   0.000000   0.000000   0.000000   0.000000   0.000000
    15  C    0.000000   0.000000   0.000000   0.000000   0.000000   0.000000
    16  C    0.000000   0.000000   0.000000   0.000000   0.000000   0.000000
    17  H    0.000000   0.000000   0.000000   0.000000   0.000000   0.000000
    18  H    0.000000   0.000000   0.000000   0.000000   0.000000   0.000000
    19  H    0.000000   0.000000   0.000000   0.000000   0.000000   0.000000
    20  H    0.000000   0.000000   0.000000   0.000000   0.000000   0.000000
    21  H    0.000000   0.000000   0.000000   0.000000   0.000000   0.000000
    22  H    0.000000   0.000000   0.000000   0.000000   0.000000   0.000000
    23  H    0.000000   0.000000   0.000000   0.000000   0.000000   0.000000
    24  H    0.000000   0.000000   0.000000   0.000000   0.000000   0.000000
              13         14         15         16         17         18
     1  C    0.000000   0.000000   0.000000   0.000000   0.000000   0.000000
     2  C    0.000000   0.000000   0.000000   0.000000   0.000000   0.000000
     3  C    0.000000   0.000000   0.000000   0.000000   0.000000   0.000000
     4  O    0.000000   0.000000   0.000000   0.000000   0.000000   0.000000
     5  C    0.000000   0.000000   0.000000   0.000000   0.000000   0.000000
     6  C    0.000000   0.000000   0.000000   0.000000   0.000000   0.000000
     7  O    0.000000   0.000000   0.000000   0.000000   0.000000   0.000000
     8  C    0.000000   0.000000   0.000000   0.000000   0.000000   0.000000
     9  C    0.000000   0.000000   0.000000   0.000000   0.000000   0.000000
    10  C    0.000000   0.000000   0.000000   0.000000   0.000000   0.000000
    11  C    0.000000   0.000000   0.000000   0.000000   0.000000   0.000000
    12  C    0.000000   0.000000   0.000000   0.000000   0.000000   0.000000
    13  C    4.016393   0.000000   0.000000   0.000000   0.000000   0.000000
    14  C    0.000000   4.016381   0.000000   0.000000   0.000000   0.000000
    15  C    0.000000   0.000000   4.016384   0.000000   0.000000   0.000000
    16  C    0.000000   0.000000   0.000000   4.016396   0.000000   0.000000
    17  H    0.000000   0.000000   0.000000   0.000000   0.943348   0.000000
    18  H    0.000000   0.000000   0.000000   0.000000   0.000000   0.943351
    19  H    0.000000   0.000000   0.000000   0.000000   0.000000   0.000000
    20  H    0.000000   0.000000   0.000000   0.000000   0.000000   0.000000
    21  H    0.000000   0.000000   0.000000   0.000000   0.000000   0.000000
    22  H    0.000000   0.000000   0.000000   0.000000   0.000000   0.000000
    23  H    0.000000   0.000000   0.000000   0.000000   0.000000   0.000000
    24  H    0.000000   0.000000   0.000000   0.000000   0.000000   0.000000
              19         20         21         22         23         24
     1  C    0.000000   0.000000   0.000000   0.000000   0.000000   0.000000
     2  C    0.000000   0.000000   0.000000   0.000000   0.000000   0.000000
     3  C    0.000000   0.000000   0.000000   0.000000   0.000000   0.000000
     4  O    0.000000   0.000000   0.000000   0.000000   0.000000   0.000000
     5  C    0.000000   0.000000   0.000000   0.000000   0.000000   0.000000
     6  C    0.000000   0.000000   0.000000   0.000000   0.000000   0.000000
     7  O    0.000000   0.000000   0.000000   0.000000   0.000000   0.000000
     8  C    0.000000   0.000000   0.000000   0.000000   0.000000   0.000000
     9  C    0.000000   0.000000   0.000000   0.000000   0.000000   0.000000
    10  C    0.000000   0.000000   0.000000   0.000000   0.000000   0.000000
    11  C    0.000000   0.000000   0.000000   0.000000   0.000000   0.000000
    12  C    0.000000   0.000000   0.000000   0.000000   0.000000   0.000000
    13  C    0.000000   0.000000   0.000000   0.000000   0.000000   0.000000
    14  C    0.000000   0.000000   0.000000   0.000000   0.000000   0.000000
    15  C    0.000000   0.000000   0.000000   0.000000   0.000000   0.000000
    16  C    0.000000   0.000000   0.000000   0.000000   0.000000   0.000000
    17  H    0.000000   0.000000   0.000000   0.000000   0.000000   0.000000
    18  H    0.000000   0.000000   0.000000   0.000000   0.000000   0.000000
    19  H    0.943359   0.000000   0.000000   0.000000   0.000000   0.000000
    20  H    0.000000   0.943354   0.000000   0.000000   0.000000   0.000000
    21  H    0.000000   0.000000   0.959378   0.000000   0.000000   0.000000
    22  H    0.000000   0.000000   0.000000   0.959379   0.000000   0.000000
    23  H    0.000000   0.000000   0.000000   0.000000   0.959375   0.000000
    24  H    0.000000   0.000000   0.000000   0.000000   0.000000   0.959378
 Mulliken charges:
               1
     1  C    0.320578
     2  C    0.009450
     3  C    0.009459
     4  O   -0.501731
     5  C    0.320584
     6  C    0.009458
     7  O   -0.501760
     8  C    0.009446
     9  C    0.000244
    10  C    0.000239
    11  C    0.000267
    12  C    0.000239
    13  C   -0.016393
    14  C   -0.016381
    15  C   -0.016384
    16  C   -0.016396
    17  H    0.056652
    18  H    0.056649
    19  H    0.056641
    20  H    0.056646
    21  H    0.040622
    22  H    0.040621
    23  H    0.040625
    24  H    0.040622
 Sum of Mulliken charges =  -0.00000
 Mulliken charges with hydrogens summed into heavy atoms:
               1
     1  C    0.320578
     2  C    0.009450
     3  C    0.009459
     4  O   -0.501731
     5  C    0.320584
     6  C    0.009458
     7  O   -0.501760
     8  C    0.009446
     9  C    0.056896
    10  C    0.056889
    11  C    0.056908
    12  C    0.056885
    13  C    0.024229
    14  C    0.024240
    15  C    0.024241
    16  C    0.024226
 Charge=             -0.0000 electrons
 Dipole moment (field-independent basis, Debye):
    X=             -0.0004    Y=              0.0004    Z=             -0.0009  Tot=              0.0011
 N-N= 3.614378849194D+02 E-N= 0.000000000000D+00  KE=-8.793206488593D+02
 1\1\GINC-GTX1080ALPHA\SP\RZINDO\STO-3G\C14H8O2\Z485411\07-Apr-2020\0\\
 # zindo(NState=10)\\title\\0,1\C,0,-0.6696,-1.2662,0.1053\C,0,-2.0876,
 -0.8192,-0.017\C,0,0.3876,-0.2137,0.0944\O,0,-0.3836,-2.4543,0.2084\C,
 0,-1.3588,1.598,-0.1475\C,0,0.0592,1.151,-0.0256\O,0,-1.6447,2.7861,-0
 .2512\C,0,-2.416,0.5456,-0.137\C,0,-3.1053,-1.7801,-0.0108\C,0,1.077,2
 .1119,-0.0321\C,0,-3.7573,0.9295,-0.2492\C,0,1.7289,-0.5977,0.2063\C,0
 ,-4.437,-1.3892,-0.1228\C,0,-4.7633,-0.033,-0.2422\C,0,2.735,0.3648,0.
 1989\C,0,2.4087,1.721,0.0796\H,0,-2.8267,-2.8246,0.0833\H,0,0.7984,3.1
 564,-0.1262\H,0,-3.9841,1.9867,-0.341\H,0,1.9557,-1.6549,0.2981\H,0,-5
 .2236,-2.1387,-0.1174\H,0,-5.8031,0.2698,-0.3298\H,0,3.7748,0.062,0.28
 63\H,0,3.1953,2.4705,0.0739\\Version=AM64L-G09RevD.01\State=1-A\HF=-10
 7.88816\RMSD=3.519e-09\PG=C01 [X(C14H8O2)]\\@


 I DO NOT KNOW WHAT I MAY APPEAR TO THE WORLD; BUT TO MYSELF
 I SEEM TO HAVE BEEN ONLY LIKE A BOY PLAYING ON THE SEASHORE,
 AND DIVERTING MYSELF IN NOW AND THEN FINDING A SMOOTHER PEBBLE
 OR A PRETTIER SHELL THAN ORDINARY, WHILST THE GREAT OCEAN OF
 TRUTH LAY ALL UNDISCOVERED BEFORE ME.
                                          -- NEWTON (1642-1726)
 Job cpu time:       0 days  0 hours  0 minutes  0.8 seconds.
 File lengths (MBytes):  RWF=     26 Int=      0 D2E=      0 Chk=      5 Scr=      1
 Normal termination of Gaussian 09 at Tue Apr  7 14:39:48 2020.
