title                                                                   
SP        RZINDO                                                      STO-3G              
Number of atoms                            I               24
Info1-9                                    I   N=           9
          32          31           0           0           0         110
           1         108         590
Charge                                     I                0
Multiplicity                               I                1
Number of electrons                        I               76
Number of alpha electrons                  I               38
Number of beta electrons                   I               38
Number of basis functions                  I               72
Number of independent functions            I               72
Number of point charges in /Mol/           I                0
Number of translation vectors              I                0
Atomic numbers                             I   N=          24
           6           6           6           8           6           6
           8           6           6           6           6           6
           6           6           6           6           1           1
           1           1           1           1           1           1
Nuclear charges                            R   N=          24
  4.00000000E+00  4.00000000E+00  4.00000000E+00  6.00000000E+00  4.00000000E+00
  4.00000000E+00  6.00000000E+00  4.00000000E+00  4.00000000E+00  4.00000000E+00
  4.00000000E+00  4.00000000E+00  4.00000000E+00  4.00000000E+00  4.00000000E+00
  4.00000000E+00  1.00000000E+00  1.00000000E+00  1.00000000E+00  1.00000000E+00
  1.00000000E+00  1.00000000E+00  1.00000000E+00  1.00000000E+00
Current cartesian coordinates              R   N=          72
  9.28059877E-06  2.79380165E+00 -1.57097266E-03 -2.41001252E+00  1.33121404E+00
  2.98363027E-05  2.40995807E+00  1.33102411E+00 -5.57197767E-04  9.94224018E-05
  5.11132207E+00  9.59289911E-04 -6.00095001E-05 -2.79370186E+00  3.60888077E-04
  2.40992887E+00 -1.33117862E+00 -4.87495984E-04 -1.61505895E-05 -5.11127479E+00
 -1.02894410E-03 -2.40999687E+00 -1.33117174E+00  8.58406135E-05 -4.70682547E+00
  2.64295103E+00 -3.15770212E-05  4.70690051E+00 -2.64291983E+00  1.50029062E-04
 -4.70683023E+00 -2.64283648E+00  3.76292678E-04  4.70672188E+00  2.64282363E+00
 -2.69633684E-04 -6.98289748E+00  1.32273298E+00  5.59720358E-05 -6.98283856E+00
 -1.32288796E+00  4.08975585E-04  6.98288067E+00  1.32285479E+00  4.61901356E-04
  6.98294782E+00 -1.32275006E+00  6.26798680E-04 -4.65663943E+00  4.69288793E+00
 -1.11400968E-03  4.65671447E+00 -4.69285673E+00  1.23246172E-03 -4.65613571E+00
 -4.69283427E+00  1.50150144E-03  4.65602737E+00  4.69282142E+00 -1.39484245E-03
 -8.76114931E+00  2.34914915E+00 -2.03316463E-04 -8.76110685E+00 -2.34932182E+00
  1.08998233E-03  8.76113250E+00  2.34925646E+00  1.57107059E-04  8.76117496E+00
 -2.34921450E+00  1.45040585E-03
Force Field                                I                0
Int Atom Types                             I   N=          24
           0           0           0           0           0           0
           0           0           0           0           0           0
           0           0           0           0           0           0
           0           0           0           0           0           0
MM charges                                 R   N=          24
  0.00000000E+00  0.00000000E+00  0.00000000E+00  0.00000000E+00  0.00000000E+00
  0.00000000E+00  0.00000000E+00  0.00000000E+00  0.00000000E+00  0.00000000E+00
  0.00000000E+00  0.00000000E+00  0.00000000E+00  0.00000000E+00  0.00000000E+00
  0.00000000E+00  0.00000000E+00  0.00000000E+00  0.00000000E+00  0.00000000E+00
  0.00000000E+00  0.00000000E+00  0.00000000E+00  0.00000000E+00
Integer atomic weights                     I   N=          24
          12          12          12          16          12          12
          16          12          12          12          12          12
          12          12          12          12           1           1
           1           1           1           1           1           1
Real atomic weights                        R   N=          24
  1.20000000E+01  1.20000000E+01  1.20000000E+01  1.59949146E+01  1.20000000E+01
  1.20000000E+01  1.59949146E+01  1.20000000E+01  1.20000000E+01  1.20000000E+01
  1.20000000E+01  1.20000000E+01  1.20000000E+01  1.20000000E+01  1.20000000E+01
  1.20000000E+01  1.00782504E+00  1.00782504E+00  1.00782504E+00  1.00782504E+00
  1.00782504E+00  1.00782504E+00  1.00782504E+00  1.00782504E+00
Atom fragment info                         I   N=          24
           0           0           0           0           0           0
           0           0           0           0           0           0
           0           0           0           0           0           0
           0           0           0           0           0           0
Atom residue num                           I   N=          24
           0           0           0           0           0           0
           0           0           0           0           0           0
           0           0           0           0           0           0
           0           0           0           0           0           0
Nuclear spins                              I   N=          24
           0           0           0           0           0           0
           0           0           0           0           0           0
           0           0           0           0           1           1
           1           1           1           1           1           1
Nuclear ZEff                               R   N=          24
 -3.90000000E+00 -3.90000000E+00 -3.90000000E+00 -6.00000000E+00 -3.90000000E+00
 -3.90000000E+00 -6.00000000E+00 -3.90000000E+00 -3.90000000E+00 -3.90000000E+00
 -3.90000000E+00 -3.90000000E+00 -3.90000000E+00 -3.90000000E+00 -3.90000000E+00
 -3.90000000E+00 -1.00000000E+00 -1.00000000E+00 -1.00000000E+00 -1.00000000E+00
 -1.00000000E+00 -1.00000000E+00 -1.00000000E+00 -1.00000000E+00
Nuclear ZNuc                               R   N=          24
  6.00000000E+00  6.00000000E+00  6.00000000E+00  8.00000000E+00  6.00000000E+00
  6.00000000E+00  8.00000000E+00  6.00000000E+00  6.00000000E+00  6.00000000E+00
  6.00000000E+00  6.00000000E+00  6.00000000E+00  6.00000000E+00  6.00000000E+00
  6.00000000E+00  1.00000000E+00  1.00000000E+00  1.00000000E+00  1.00000000E+00
  1.00000000E+00  1.00000000E+00  1.00000000E+00  1.00000000E+00
Nuclear QMom                               R   N=          24
  0.00000000E+00  0.00000000E+00  0.00000000E+00  0.00000000E+00  0.00000000E+00
  0.00000000E+00  0.00000000E+00  0.00000000E+00  0.00000000E+00  0.00000000E+00
  0.00000000E+00  0.00000000E+00  0.00000000E+00  0.00000000E+00  0.00000000E+00
  0.00000000E+00  0.00000000E+00  0.00000000E+00  0.00000000E+00  0.00000000E+00
  0.00000000E+00  0.00000000E+00  0.00000000E+00  0.00000000E+00
Nuclear GFac                               R   N=          24
  0.00000000E+00  0.00000000E+00  0.00000000E+00  0.00000000E+00  0.00000000E+00
  0.00000000E+00  0.00000000E+00  0.00000000E+00  0.00000000E+00  0.00000000E+00
  0.00000000E+00  0.00000000E+00  0.00000000E+00  0.00000000E+00  0.00000000E+00
  0.00000000E+00  2.79284600E+00  2.79284600E+00  2.79284600E+00  2.79284600E+00
  2.79284600E+00  2.79284600E+00  2.79284600E+00  2.79284600E+00
MicOpt                                     I   N=          24
          -1          -1          -1          -1          -1          -1
          -1          -1          -1          -1          -1          -1
          -1          -1          -1          -1          -1          -1
          -1          -1          -1          -1          -1          -1
Number of contracted shells                I               40
Number of primitive shells                 I              240
Pure/Cartesian d shells                    I                0
Pure/Cartesian f shells                    I                0
Highest angular momentum                   I                1
Largest degree of contraction              I                6
Shell types                                I   N=          40
           0           1           0           1           0           1
           0           1           0           1           0           1
           0           1           0           1           0           1
           0           1           0           1           0           1
           0           1           0           1           0           1
           0           1           0           0           0           0
           0           0           0           0
Number of primitives per shell             I   N=          40
           6           6           6           6           6           6
           6           6           6           6           6           6
           6           6           6           6           6           6
           6           6           6           6           6           6
           6           6           6           6           6           6
           6           6           6           6           6           6
           6           6           6           6
Shell to atom map                          I   N=          40
           1           1           2           2           3           3
           4           4           5           5           6           6
           7           7           8           8           9           9
          10          10          11          11          12          12
          13          13          14          14          15          15
          16          16          17          18          19          20
          21          22          23          24
Primitive exponents                        R   N=         240
  7.31056039E+01  1.34068245E+01  3.76760691E+00  5.38776153E-01  2.44529755E-01
  1.16614858E-01  1.54959425E+01  4.04102668E+00  1.44591785E+00  6.04421300E-01
  2.76382592E-01  1.30663938E-01  7.31056039E+01  1.34068245E+01  3.76760691E+00
  5.38776153E-01  2.44529755E-01  1.16614858E-01  1.54959425E+01  4.04102668E+00
  1.44591785E+00  6.04421300E-01  2.76382592E-01  1.30663938E-01  7.31056039E+01
  1.34068245E+01  3.76760691E+00  5.38776153E-01  2.44529755E-01  1.16614858E-01
  1.54959425E+01  4.04102668E+00  1.44591785E+00  6.04421300E-01  2.76382592E-01
  1.30663938E-01  1.43286984E+02  2.62773760E+01  7.38450955E+00  1.05600126E+00
  4.79278319E-01  2.28565122E-01  3.03720473E+01  7.92041230E+00  2.83399899E+00
  1.18466575E+00  5.41709880E-01  2.56101318E-01  7.31056039E+01  1.34068245E+01
  3.76760691E+00  5.38776153E-01  2.44529755E-01  1.16614858E-01  1.54959425E+01
  4.04102668E+00  1.44591785E+00  6.04421300E-01  2.76382592E-01  1.30663938E-01
  7.31056039E+01  1.34068245E+01  3.76760691E+00  5.38776153E-01  2.44529755E-01
  1.16614858E-01  1.54959425E+01  4.04102668E+00  1.44591785E+00  6.04421300E-01
  2.76382592E-01  1.30663938E-01  1.43286984E+02  2.62773760E+01  7.38450955E+00
  1.05600126E+00  4.79278319E-01  2.28565122E-01  3.03720473E+01  7.92041230E+00
  2.83399899E+00  1.18466575E+00  5.41709880E-01  2.56101318E-01  7.31056039E+01
  1.34068245E+01  3.76760691E+00  5.38776153E-01  2.44529755E-01  1.16614858E-01
  1.54959425E+01  4.04102668E+00  1.44591785E+00  6.04421300E-01  2.76382592E-01
  1.30663938E-01  7.31056039E+01  1.34068245E+01  3.76760691E+00  5.38776153E-01
  2.44529755E-01  1.16614858E-01  1.54959425E+01  4.04102668E+00  1.44591785E+00
  6.04421300E-01  2.76382592E-01  1.30663938E-01  7.31056039E+01  1.34068245E+01
  3.76760691E+00  5.38776153E-01  2.44529755E-01  1.16614858E-01  1.54959425E+01
  4.04102668E+00  1.44591785E+00  6.04421300E-01  2.76382592E-01  1.30663938E-01
  7.31056039E+01  1.34068245E+01  3.76760691E+00  5.38776153E-01  2.44529755E-01
  1.16614858E-01  1.54959425E+01  4.04102668E+00  1.44591785E+00  6.04421300E-01
  2.76382592E-01  1.30663938E-01  7.31056039E+01  1.34068245E+01  3.76760691E+00
  5.38776153E-01  2.44529755E-01  1.16614858E-01  1.54959425E+01  4.04102668E+00
  1.44591785E+00  6.04421300E-01  2.76382592E-01  1.30663938E-01  7.31056039E+01
  1.34068245E+01  3.76760691E+00  5.38776153E-01  2.44529755E-01  1.16614858E-01
  1.54959425E+01  4.04102668E+00  1.44591785E+00  6.04421300E-01  2.76382592E-01
  1.30663938E-01  7.31056039E+01  1.34068245E+01  3.76760691E+00  5.38776153E-01
  2.44529755E-01  1.16614858E-01  1.54959425E+01  4.04102668E+00  1.44591785E+00
  6.04421300E-01  2.76382592E-01  1.30663938E-01  7.31056039E+01  1.34068245E+01
  3.76760691E+00  5.38776153E-01  2.44529755E-01  1.16614858E-01  1.54959425E+01
  4.04102668E+00  1.44591785E+00  6.04421300E-01  2.76382592E-01  1.30663938E-01
  7.31056039E+01  1.34068245E+01  3.76760691E+00  5.38776153E-01  2.44529755E-01
  1.16614858E-01  1.54959425E+01  4.04102668E+00  1.44591785E+00  6.04421300E-01
  2.76382592E-01  1.30663938E-01  3.32683653E+01  6.09971837E+00  1.70648139E+00
  5.86222413E-01  2.27647318E-01  9.37577369E-02  3.32683653E+01  6.09971837E+00
  1.70648139E+00  5.86222413E-01  2.27647318E-01  9.37577369E-02  3.32683653E+01
  6.09971837E+00  1.70648139E+00  5.86222413E-01  2.27647318E-01  9.37577369E-02
  3.32683653E+01  6.09971837E+00  1.70648139E+00  5.86222413E-01  2.27647318E-01
  9.37577369E-02  3.32683653E+01  6.09971837E+00  1.70648139E+00  5.86222413E-01
  2.27647318E-01  9.37577369E-02  3.32683653E+01  6.09971837E+00  1.70648139E+00
  5.86222413E-01  2.27647318E-01  9.37577369E-02  3.32683653E+01  6.09971837E+00
  1.70648139E+00  5.86222413E-01  2.27647318E-01  9.37577369E-02  3.32683653E+01
  6.09971837E+00  1.70648139E+00  5.86222413E-01  2.27647318E-01  9.37577369E-02
Contraction coefficients                   R   N=         240
 -4.15127782E-03 -2.06702415E-02 -5.15030334E-02  3.34627117E-01  5.62106130E-01
  1.71299470E-01  7.92423365E-03  5.14410483E-02  1.89840006E-01  4.04986319E-01
  4.01236286E-01  1.05185519E-01 -4.15127782E-03 -2.06702415E-02 -5.15030334E-02
  3.34627117E-01  5.62106130E-01  1.71299470E-01  7.92423365E-03  5.14410483E-02
  1.89840006E-01  4.04986319E-01  4.01236286E-01  1.05185519E-01 -4.15127782E-03
 -2.06702415E-02 -5.15030334E-02  3.34627117E-01  5.62106130E-01  1.71299470E-01
  7.92423365E-03  5.14410483E-02  1.89840006E-01  4.04986319E-01  4.01236286E-01
  1.05185519E-01 -4.15127782E-03 -2.06702415E-02 -5.15030334E-02  3.34627117E-01
  5.62106130E-01  1.71299470E-01  7.92423365E-03  5.14410483E-02  1.89840006E-01
  4.04986319E-01  4.01236286E-01  1.05185519E-01 -4.15127782E-03 -2.06702415E-02
 -5.15030334E-02  3.34627117E-01  5.62106130E-01  1.71299470E-01  7.92423365E-03
  5.14410483E-02  1.89840006E-01  4.04986319E-01  4.01236286E-01  1.05185519E-01
 -4.15127782E-03 -2.06702415E-02 -5.15030334E-02  3.34627117E-01  5.62106130E-01
  1.71299470E-01  7.92423365E-03  5.14410483E-02  1.89840006E-01  4.04986319E-01
  4.01236286E-01  1.05185519E-01 -4.15127782E-03 -2.06702415E-02 -5.15030334E-02
  3.34627117E-01  5.62106130E-01  1.71299470E-01  7.92423365E-03  5.14410483E-02
  1.89840006E-01  4.04986319E-01  4.01236286E-01  1.05185519E-01 -4.15127782E-03
 -2.06702415E-02 -5.15030334E-02  3.34627117E-01  5.62106130E-01  1.71299470E-01
  7.92423365E-03  5.14410483E-02  1.89840006E-01  4.04986319E-01  4.01236286E-01
  1.05185519E-01 -4.15127782E-03 -2.06702415E-02 -5.15030334E-02  3.34627117E-01
  5.62106130E-01  1.71299470E-01  7.92423365E-03  5.14410483E-02  1.89840006E-01
  4.04986319E-01  4.01236286E-01  1.05185519E-01 -4.15127782E-03 -2.06702415E-02
 -5.15030334E-02  3.34627117E-01  5.62106130E-01  1.71299470E-01  7.92423365E-03
  5.14410483E-02  1.89840006E-01  4.04986319E-01  4.01236286E-01  1.05185519E-01
 -4.15127782E-03 -2.06702415E-02 -5.15030334E-02  3.34627117E-01  5.62106130E-01
  1.71299470E-01  7.92423365E-03  5.14410483E-02  1.89840006E-01  4.04986319E-01
  4.01236286E-01  1.05185519E-01 -4.15127782E-03 -2.06702415E-02 -5.15030334E-02
  3.34627117E-01  5.62106130E-01  1.71299470E-01  7.92423365E-03  5.14410483E-02
  1.89840006E-01  4.04986319E-01  4.01236286E-01  1.05185519E-01 -4.15127782E-03
 -2.06702415E-02 -5.15030334E-02  3.34627117E-01  5.62106130E-01  1.71299470E-01
  7.92423365E-03  5.14410483E-02  1.89840006E-01  4.04986319E-01  4.01236286E-01
  1.05185519E-01 -4.15127782E-03 -2.06702415E-02 -5.15030334E-02  3.34627117E-01
  5.62106130E-01  1.71299470E-01  7.92423365E-03  5.14410483E-02  1.89840006E-01
  4.04986319E-01  4.01236286E-01  1.05185519E-01 -4.15127782E-03 -2.06702415E-02
 -5.15030334E-02  3.34627117E-01  5.62106130E-01  1.71299470E-01  7.92423365E-03
  5.14410483E-02  1.89840006E-01  4.04986319E-01  4.01236286E-01  1.05185519E-01
 -4.15127782E-03 -2.06702415E-02 -5.15030334E-02  3.34627117E-01  5.62106130E-01
  1.71299470E-01  7.92423365E-03  5.14410483E-02  1.89840006E-01  4.04986319E-01
  4.01236286E-01  1.05185519E-01  9.16359628E-03  4.93614929E-02  1.68538305E-01
  3.70562800E-01  4.16491530E-01  1.30334084E-01  9.16359628E-03  4.93614929E-02
  1.68538305E-01  3.70562800E-01  4.16491530E-01  1.30334084E-01  9.16359628E-03
  4.93614929E-02  1.68538305E-01  3.70562800E-01  4.16491530E-01  1.30334084E-01
  9.16359628E-03  4.93614929E-02  1.68538305E-01  3.70562800E-01  4.16491530E-01
  1.30334084E-01  9.16359628E-03  4.93614929E-02  1.68538305E-01  3.70562800E-01
  4.16491530E-01  1.30334084E-01  9.16359628E-03  4.93614929E-02  1.68538305E-01
  3.70562800E-01  4.16491530E-01  1.30334084E-01  9.16359628E-03  4.93614929E-02
  1.68538305E-01  3.70562800E-01  4.16491530E-01  1.30334084E-01  9.16359628E-03
  4.93614929E-02  1.68538305E-01  3.70562800E-01  4.16491530E-01  1.30334084E-01
Coordinates of each shell                  R   N=         120
  9.28059877E-06  2.79380165E+00 -1.57097266E-03  9.28059877E-06  2.79380165E+00
 -1.57097266E-03 -2.41001252E+00  1.33121404E+00  2.98363027E-05 -2.41001252E+00
  1.33121404E+00  2.98363027E-05  2.40995807E+00  1.33102411E+00 -5.57197767E-04
  2.40995807E+00  1.33102411E+00 -5.57197767E-04  9.94224018E-05  5.11132207E+00
  9.59289911E-04  9.94224018E-05  5.11132207E+00  9.59289911E-04 -6.00095001E-05
 -2.79370186E+00  3.60888077E-04 -6.00095001E-05 -2.79370186E+00  3.60888077E-04
  2.40992887E+00 -1.33117862E+00 -4.87495984E-04  2.40992887E+00 -1.33117862E+00
 -4.87495984E-04 -1.61505895E-05 -5.11127479E+00 -1.02894410E-03 -1.61505895E-05
 -5.11127479E+00 -1.02894410E-03 -2.40999687E+00 -1.33117174E+00  8.58406135E-05
 -2.40999687E+00 -1.33117174E+00  8.58406135E-05 -4.70682547E+00  2.64295103E+00
 -3.15770212E-05 -4.70682547E+00  2.64295103E+00 -3.15770212E-05  4.70690051E+00
 -2.64291983E+00  1.50029062E-04  4.70690051E+00 -2.64291983E+00  1.50029062E-04
 -4.70683023E+00 -2.64283648E+00  3.76292678E-04 -4.70683023E+00 -2.64283648E+00
  3.76292678E-04  4.70672188E+00  2.64282363E+00 -2.69633684E-04  4.70672188E+00
  2.64282363E+00 -2.69633684E-04 -6.98289748E+00  1.32273298E+00  5.59720358E-05
 -6.98289748E+00  1.32273298E+00  5.59720358E-05 -6.98283856E+00 -1.32288796E+00
  4.08975585E-04 -6.98283856E+00 -1.32288796E+00  4.08975585E-04  6.98288067E+00
  1.32285479E+00  4.61901356E-04  6.98288067E+00  1.32285479E+00  4.61901356E-04
  6.98294782E+00 -1.32275006E+00  6.26798680E-04  6.98294782E+00 -1.32275006E+00
  6.26798680E-04 -4.65663943E+00  4.69288793E+00 -1.11400968E-03  4.65671447E+00
 -4.69285673E+00  1.23246172E-03 -4.65613571E+00 -4.69283427E+00  1.50150144E-03
  4.65602737E+00  4.69282142E+00 -1.39484245E-03 -8.76114931E+00  2.34914915E+00
 -2.03316463E-04 -8.76110685E+00 -2.34932182E+00  1.08998233E-03  8.76113250E+00
  2.34925646E+00  1.57107059E-04  8.76117496E+00 -2.34921450E+00  1.45040585E-03
Constraint Structure                       R   N=          72
  9.28059877E-06  2.79380165E+00 -1.57097266E-03 -2.41001252E+00  1.33121404E+00
  2.98363027E-05  2.40995807E+00  1.33102411E+00 -5.57197767E-04  9.94224018E-05
  5.11132207E+00  9.59289911E-04 -6.00095001E-05 -2.79370186E+00  3.60888077E-04
  2.40992887E+00 -1.33117862E+00 -4.87495984E-04 -1.61505895E-05 -5.11127479E+00
 -1.02894410E-03 -2.40999687E+00 -1.33117174E+00  8.58406135E-05 -4.70682547E+00
  2.64295103E+00 -3.15770212E-05  4.70690051E+00 -2.64291983E+00  1.50029062E-04
 -4.70683023E+00 -2.64283648E+00  3.76292678E-04  4.70672188E+00  2.64282363E+00
 -2.69633684E-04 -6.98289748E+00  1.32273298E+00  5.59720358E-05 -6.98283856E+00
 -1.32288796E+00  4.08975585E-04  6.98288067E+00  1.32285479E+00  4.61901356E-04
  6.98294782E+00 -1.32275006E+00  6.26798680E-04 -4.65663943E+00  4.69288793E+00
 -1.11400968E-03  4.65671447E+00 -4.69285673E+00  1.23246172E-03 -4.65613571E+00
 -4.69283427E+00  1.50150144E-03  4.65602737E+00  4.69282142E+00 -1.39484245E-03
 -8.76114931E+00  2.34914915E+00 -2.03316463E-04 -8.76110685E+00 -2.34932182E+00
  1.08998233E-03  8.76113250E+00  2.34925646E+00  1.57107059E-04  8.76117496E+00
 -2.34921450E+00  1.45040585E-03
Num ILSW                                   I              100
ILSW                                       I   N=         100
           0           0           0           0           2           0
           0           0           0           0           0          -1
           0           0           0           0           0           0
           0           0           1           0           0           0
           1           0           0           0           0           0
           0           0      100000           0          -1           0
           0           0           0           0           0           0
           0           0           0           5           0           0
           0           0           1           0           0           0
           0           0           4          41           0           0
           0           0           0           0           0           0
           0           0           0           0           0           0
           0           0           0           0           0           0
           0           0           0           0           0           0
           0           0           0           0           0           0
           0           0           0           0           0           0
           0           0           0           0
Num RLSW                                   I               41
RLSW                                       R   N=          41
  1.00000000E+00  1.00000000E+00  1.00000000E+00  1.00000000E+00  1.00000000E+00
  0.00000000E+00  0.00000000E+00  1.00000000E+00  0.00000000E+00  0.00000000E+00
  0.00000000E+00  0.00000000E+00  1.00000000E+00  0.00000000E+00  0.00000000E+00
  0.00000000E+00  0.00000000E+00  1.00000000E+00  0.00000000E+00  0.00000000E+00
  0.00000000E+00  0.00000000E+00  1.00000000E+00  0.00000000E+00  0.00000000E+00
  0.00000000E+00  0.00000000E+00  1.00000000E+00  0.00000000E+00  0.00000000E+00
  0.00000000E+00  0.00000000E+00  1.00000000E+00  0.00000000E+00  0.00000000E+00
  0.00000000E+00  0.00000000E+00  0.00000000E+00  1.00000000E+00  1.00000000E+00
  0.00000000E+00
MxBond                                     I                3
NBond                                      I   N=          24
           3           3           3           1           3           3
           1           3           3           3           3           3
           3           3           3           3           1           1
           1           1           1           1           1           1
IBond                                      I   N=          72
           2           3           4           1           8           9
           1           6          12           1           0           0
           6           7           8           3           5          10
           5           0           0           2           5          11
           2          13          17           6          16          18
           8          14          19           3          15          20
           9          14          21          11          13          22
          12          16          23          10          15          24
           9           0           0          10           0           0
          11           0           0          12           0           0
          13           0           0          14           0           0
          15           0           0          16           0           0
RBond                                      R   N=          72
  1.00000000E+00  1.00000000E+00  2.00000000E+00  1.00000000E+00  1.50000000E+00
  1.50000000E+00  1.00000000E+00  1.50000000E+00  1.50000000E+00  2.00000000E+00
  0.00000000E+00  0.00000000E+00  1.00000000E+00  2.00000000E+00  1.00000000E+00
  1.50000000E+00  1.00000000E+00  1.50000000E+00  2.00000000E+00  0.00000000E+00
  0.00000000E+00  1.50000000E+00  1.00000000E+00  1.50000000E+00  1.50000000E+00
  1.50000000E+00  1.00000000E+00  1.50000000E+00  1.50000000E+00  1.00000000E+00
  1.50000000E+00  1.50000000E+00  1.00000000E+00  1.50000000E+00  1.50000000E+00
  1.00000000E+00  1.50000000E+00  1.50000000E+00  1.00000000E+00  1.50000000E+00
  1.50000000E+00  1.00000000E+00  1.50000000E+00  1.50000000E+00  1.00000000E+00
  1.50000000E+00  1.50000000E+00  1.00000000E+00  1.00000000E+00  0.00000000E+00
  0.00000000E+00  1.00000000E+00  0.00000000E+00  0.00000000E+00  1.00000000E+00
  0.00000000E+00  0.00000000E+00  1.00000000E+00  0.00000000E+00  0.00000000E+00
  1.00000000E+00  0.00000000E+00  0.00000000E+00  1.00000000E+00  0.00000000E+00
  0.00000000E+00  1.00000000E+00  0.00000000E+00  0.00000000E+00  1.00000000E+00
  0.00000000E+00  0.00000000E+00
Virial Ratio                               R      8.773050989476356E-01
SCF Energy                                 R     -1.078881600050927E+02
CIS Energy                                 R     -1.077898834555527E+02
Total Energy                               R     -1.077898834555527E+02
Post-SCF wavefunction norm                 R      1.000000000000000E+00
RMS Density                                R      3.518906509316417E-09
External E-field                           R   N=          35
  0.00000000E+00  0.00000000E+00  0.00000000E+00  0.00000000E+00  0.00000000E+00
  0.00000000E+00  0.00000000E+00  0.00000000E+00  0.00000000E+00  0.00000000E+00
  0.00000000E+00  0.00000000E+00  0.00000000E+00  0.00000000E+00  0.00000000E+00
  0.00000000E+00  0.00000000E+00  0.00000000E+00  0.00000000E+00  0.00000000E+00
  0.00000000E+00  0.00000000E+00  0.00000000E+00  0.00000000E+00  0.00000000E+00
  0.00000000E+00  0.00000000E+00  0.00000000E+00  0.00000000E+00  0.00000000E+00
  0.00000000E+00  0.00000000E+00  0.00000000E+00  0.00000000E+00  0.00000000E+00
IOpCl                                      I                0
IROHF                                      I                0
Alpha Orbital Energies                     R   N=          72
 -1.71374238E+00 -1.61897265E+00 -1.60031399E+00 -1.53497754E+00 -1.35814762E+00
 -1.26225552E+00 -1.21116556E+00 -1.20390188E+00 -1.04984517E+00 -9.93823470E-01
 -9.93413010E-01 -9.37267135E-01 -8.95552279E-01 -8.63347624E-01 -7.61069914E-01
 -6.94633340E-01 -6.63914228E-01 -6.59930127E-01 -6.53527569E-01 -5.97252212E-01
 -5.94941740E-01 -5.82682642E-01 -5.76901733E-01 -5.58806337E-01 -5.56120579E-01
 -5.11487037E-01 -5.08691927E-01 -4.99084765E-01 -4.80437933E-01 -4.66299663E-01
 -4.63570333E-01 -4.58877013E-01 -3.74531771E-01 -3.65892301E-01 -3.53603149E-01
 -3.51473187E-01 -3.49814355E-01 -3.45450783E-01 -5.96442392E-02 -1.28668504E-02
  4.11651373E-03  1.12495946E-02  5.09959362E-02  5.21043191E-02  6.26921753E-02
  9.21109738E-02  9.27890469E-02  9.61755817E-02  1.09810149E-01  1.10738956E-01
  1.17711345E-01  1.31742414E-01  1.35052989E-01  1.84532343E-01  1.86347519E-01
  1.87558117E-01  2.01955037E-01  2.29037936E-01  2.53201700E-01  2.96372210E-01
  2.97419127E-01  3.02227389E-01  3.31005631E-01  3.72530617E-01  3.78048528E-01
  3.86443394E-01  4.19598569E-01  4.34007259E-01  4.49215752E-01  4.59860660E-01
  4.78902069E-01  4.98182002E-01
Alpha MO coefficients                      R   N=        5184
  3.12376753E-01  7.32089588E-06  1.29361667E-02  1.77935762E-04  3.01355472E-01
  9.55228005E-03 -2.68104279E-02 -1.96970431E-05  3.01369025E-01 -9.55217786E-03
 -2.68015912E-02  1.40932594E-05  2.43571812E-01 -8.58345778E-08 -9.83830575E-02
 -7.93265555E-05  3.12378416E-01 -6.21560036E-06 -1.29266685E-02 -8.57673294E-05
  3.01353663E-01 -9.56347169E-03  2.68160086E-02  2.97064247E-05  2.43558447E-01
 -4.91416285E-06  9.83792250E-02  4.69884358E-05  3.01371262E-01  9.55085312E-03
  2.67980686E-02 -2.66501068E-06  1.94093411E-01  3.75281120E-02 -6.47169310E-02
 -4.89677302E-06  1.94076173E-01 -3.75255054E-02  6.47115950E-02 -1.22248999E-06
  1.94118845E-01  3.75316177E-02  6.47165196E-02 -3.93782060E-06  1.94104290E-01
 -3.75363134E-02 -6.47116097E-02  4.80446773E-08  1.47115264E-01  6.15478702E-02
 -2.87945806E-02  2.09939439E-06  1.47123550E-01  6.15524665E-02  2.87919373E-02
 -5.75834410E-06  1.47103574E-01 -6.15446116E-02 -2.87920475E-02 -1.60264692E-05
  1.47099962E-01 -6.15423128E-02  2.87904462E-02 -1.43868616E-05  6.41284110E-02
  6.41224485E-02  6.41457368E-02  6.41424597E-02  3.67924102E-02  3.67942851E-02
  3.67890685E-02  3.67885209E-02 -1.92203866E-04 -8.57366476E-02 -8.60759544E-05
  3.22999530E-06  2.42040597E-01 -1.06747053E-01 -4.36199803E-02 -9.39532541E-06
 -2.42182335E-01 -1.06702511E-01  4.35224197E-02 -1.41159623E-05 -2.42018867E-04
 -2.04809754E-02  9.21645324E-05  6.19494183E-07  1.46539955E-04 -8.57397785E-02
 -7.58755550E-05  3.35451271E-06 -2.42055168E-01 -1.06725036E-01 -4.36229034E-02
 -3.13507666E-05  1.90214217E-04 -2.04804924E-02  7.13590420E-05  6.13318506E-07
  2.42160712E-01 -1.06722067E-01  4.35230121E-02  9.26737109E-06  2.63988445E-01