titre                                                                   
SP        RZINDO                                                      STO-3G              
Number of atoms                            I               12
Info1-9                                    I   N=           9
          20          19           0           0           0         110
           1         108         590
Charge                                     I                0
Multiplicity                               I                1
Number of electrons                        I               40
Number of alpha electrons                  I               20
Number of beta electrons                   I               20
Number of basis functions                  I               36
Number of independent functions            I               36
Number of point charges in /Mol/           I                0
Number of translation vectors              I                0
Atomic numbers                             I   N=          12
           8           6           6           6           6           6
           6           8           1           1           1           1
Nuclear charges                            R   N=          12
  6.00000000E+00  4.00000000E+00  4.00000000E+00  4.00000000E+00  4.00000000E+00
  4.00000000E+00  4.00000000E+00  6.00000000E+00  1.00000000E+00  1.00000000E+00
  1.00000000E+00  1.00000000E+00
Current cartesian coordinates              R   N=          36
  5.04578397E+00 -1.06482299E-04  2.51913151E-05  2.73098109E+00  4.53838841E-05
  1.73166803E-04  1.26908258E+00  2.39870780E+00 -8.80297209E-05  1.26909526E+00
 -2.39845213E+00 -1.67480486E-04 -1.26899947E+00  2.39851503E+00  1.11536522E-04
 -1.26898679E+00 -2.39864490E+00  3.20857568E-05 -2.73105311E+00 -6.74788659E-05
 -2.47226620E-04 -5.04584707E+00  2.83449970E-05  8.09994069E-05  2.38055602E+00
  4.12486930E+00 -2.53173302E-04  2.38045970E+00 -4.12474510E+00  5.09001267E-05
 -2.38060923E+00  4.12482617E+00  1.09069845E-04 -2.38061911E+00 -4.12494744E+00
  3.59364024E-04
Force Field                                I                0
Int Atom Types                             I   N=          12
           0           0           0           0           0           0
           0           0           0           0           0           0
MM charges                                 R   N=          12
  0.00000000E+00  0.00000000E+00  0.00000000E+00  0.00000000E+00  0.00000000E+00
  0.00000000E+00  0.00000000E+00  0.00000000E+00  0.00000000E+00  0.00000000E+00
  0.00000000E+00  0.00000000E+00
Integer atomic weights                     I   N=          12
          16          12          12          12          12          12
          12          16           1           1           1           1
Real atomic weights                        R   N=          12
  1.59949146E+01  1.20000000E+01  1.20000000E+01  1.20000000E+01  1.20000000E+01
  1.20000000E+01  1.20000000E+01  1.59949146E+01  1.00782504E+00  1.00782504E+00
  1.00782504E+00  1.00782504E+00
Atom fragment info                         I   N=          12
           0           0           0           0           0           0
           0           0           0           0           0           0
Atom residue num                           I   N=          12
           0           0           0           0           0           0
           0           0           0           0           0           0
Nuclear spins                              I   N=          12
           0           0           0           0           0           0
           0           0           1           1           1           1
Nuclear ZEff                               R   N=          12
 -6.00000000E+00 -3.90000000E+00 -3.90000000E+00 -3.90000000E+00 -3.90000000E+00
 -3.90000000E+00 -3.90000000E+00 -6.00000000E+00 -1.00000000E+00 -1.00000000E+00
 -1.00000000E+00 -1.00000000E+00
Nuclear ZNuc                               R   N=          12
  8.00000000E+00  6.00000000E+00  6.00000000E+00  6.00000000E+00  6.00000000E+00
  6.00000000E+00  6.00000000E+00  8.00000000E+00  1.00000000E+00  1.00000000E+00
  1.00000000E+00  1.00000000E+00
Nuclear QMom                               R   N=          12
  0.00000000E+00  0.00000000E+00  0.00000000E+00  0.00000000E+00  0.00000000E+00
  0.00000000E+00  0.00000000E+00  0.00000000E+00  0.00000000E+00  0.00000000E+00
  0.00000000E+00  0.00000000E+00
Nuclear GFac                               R   N=          12
  0.00000000E+00  0.00000000E+00  0.00000000E+00  0.00000000E+00  0.00000000E+00
  0.00000000E+00  0.00000000E+00  0.00000000E+00  2.79284600E+00  2.79284600E+00
  2.79284600E+00  2.79284600E+00
MicOpt                                     I   N=          12
          -1          -1          -1          -1          -1          -1
          -1          -1          -1          -1          -1          -1
Number of contracted shells                I               20
Number of primitive shells                 I              120
Pure/Cartesian d shells                    I                0
Pure/Cartesian f shells                    I                0
Highest angular momentum                   I                1
Largest degree of contraction              I                6
Shell types                                I   N=          20
           0           1           0           1           0           1
           0           1           0           1           0           1
           0           1           0           1           0           0
           0           0
Number of primitives per shell             I   N=          20
           6           6           6           6           6           6
           6           6           6           6           6           6
           6           6           6           6           6           6
           6           6
Shell to atom map                          I   N=          20
           1           1           2           2           3           3
           4           4           5           5           6           6
           7           7           8           8           9          10
          11          12
Primitive exponents                        R   N=         120
  1.43286984E+02  2.62773760E+01  7.38450955E+00  1.05600126E+00  4.79278319E-01
  2.28565122E-01  3.03720473E+01  7.92041230E+00  2.83399899E+00  1.18466575E+00
  5.41709880E-01  2.56101318E-01  7.31056039E+01  1.34068245E+01  3.76760691E+00
  5.38776153E-01  2.44529755E-01  1.16614858E-01  1.54959425E+01  4.04102668E+00
  1.44591785E+00  6.04421300E-01  2.76382592E-01  1.30663938E-01  7.31056039E+01
  1.34068245E+01  3.76760691E+00  5.38776153E-01  2.44529755E-01  1.16614858E-01
  1.54959425E+01  4.04102668E+00  1.44591785E+00  6.04421300E-01  2.76382592E-01
  1.30663938E-01  7.31056039E+01  1.34068245E+01  3.76760691E+00  5.38776153E-01
  2.44529755E-01  1.16614858E-01  1.54959425E+01  4.04102668E+00  1.44591785E+00
  6.04421300E-01  2.76382592E-01  1.30663938E-01  7.31056039E+01  1.34068245E+01
  3.76760691E+00  5.38776153E-01  2.44529755E-01  1.16614858E-01  1.54959425E+01
  4.04102668E+00  1.44591785E+00  6.04421300E-01  2.76382592E-01  1.30663938E-01
  7.31056039E+01  1.34068245E+01  3.76760691E+00  5.38776153E-01  2.44529755E-01
  1.16614858E-01  1.54959425E+01  4.04102668E+00  1.44591785E+00  6.04421300E-01
  2.76382592E-01  1.30663938E-01  7.31056039E+01  1.34068245E+01  3.76760691E+00
  5.38776153E-01  2.44529755E-01  1.16614858E-01  1.54959425E+01  4.04102668E+00
  1.44591785E+00  6.04421300E-01  2.76382592E-01  1.30663938E-01  1.43286984E+02
  2.62773760E+01  7.38450955E+00  1.05600126E+00  4.79278319E-01  2.28565122E-01
  3.03720473E+01  7.92041230E+00  2.83399899E+00  1.18466575E+00  5.41709880E-01
  2.56101318E-01  3.32683653E+01  6.09971837E+00  1.70648139E+00  5.86222413E-01
  2.27647318E-01  9.37577369E-02  3.32683653E+01  6.09971837E+00  1.70648139E+00
  5.86222413E-01  2.27647318E-01  9.37577369E-02  3.32683653E+01  6.09971837E+00
  1.70648139E+00  5.86222413E-01  2.27647318E-01  9.37577369E-02  3.32683653E+01
  6.09971837E+00  1.70648139E+00  5.86222413E-01  2.27647318E-01  9.37577369E-02
Contraction coefficients                   R   N=         120
 -4.15127782E-03 -2.06702415E-02 -5.15030334E-02  3.34627117E-01  5.62106130E-01
  1.71299470E-01  7.92423365E-03  5.14410483E-02  1.89840006E-01  4.04986319E-01
  4.01236286E-01  1.05185519E-01 -4.15127782E-03 -2.06702415E-02 -5.15030334E-02
  3.34627117E-01  5.62106130E-01  1.71299470E-01  7.92423365E-03  5.14410483E-02
  1.89840006E-01  4.04986319E-01  4.01236286E-01  1.05185519E-01 -4.15127782E-03
 -2.06702415E-02 -5.15030334E-02  3.34627117E-01  5.62106130E-01  1.71299470E-01
  7.92423365E-03  5.14410483E-02  1.89840006E-01  4.04986319E-01  4.01236286E-01
  1.05185519E-01 -4.15127782E-03 -2.06702415E-02 -5.15030334E-02  3.34627117E-01
  5.62106130E-01  1.71299470E-01  7.92423365E-03  5.14410483E-02  1.89840006E-01
  4.04986319E-01  4.01236286E-01  1.05185519E-01 -4.15127782E-03 -2.06702415E-02
 -5.15030334E-02  3.34627117E-01  5.62106130E-01  1.71299470E-01  7.92423365E-03
  5.14410483E-02  1.89840006E-01  4.04986319E-01  4.01236286E-01  1.05185519E-01
 -4.15127782E-03 -2.06702415E-02 -5.15030334E-02  3.34627117E-01  5.62106130E-01
  1.71299470E-01  7.92423365E-03  5.14410483E-02  1.89840006E-01  4.04986319E-01
  4.01236286E-01  1.05185519E-01 -4.15127782E-03 -2.06702415E-02 -5.15030334E-02
  3.34627117E-01  5.62106130E-01  1.71299470E-01  7.92423365E-03  5.14410483E-02
  1.89840006E-01  4.04986319E-01  4.01236286E-01  1.05185519E-01 -4.15127782E-03
 -2.06702415E-02 -5.15030334E-02  3.34627117E-01  5.62106130E-01  1.71299470E-01
  7.92423365E-03  5.14410483E-02  1.89840006E-01  4.04986319E-01  4.01236286E-01
  1.05185519E-01  9.16359628E-03  4.93614929E-02  1.68538305E-01  3.70562800E-01
  4.16491530E-01  1.30334084E-01  9.16359628E-03  4.93614929E-02  1.68538305E-01
  3.70562800E-01  4.16491530E-01  1.30334084E-01  9.16359628E-03  4.93614929E-02
  1.68538305E-01  3.70562800E-01  4.16491530E-01  1.30334084E-01  9.16359628E-03
  4.93614929E-02  1.68538305E-01  3.70562800E-01  4.16491530E-01  1.30334084E-01
Coordinates of each shell                  R   N=          60
  5.04578397E+00 -1.06482299E-04  2.51913151E-05  5.04578397E+00 -1.06482299E-04
  2.51913151E-05  2.73098109E+00  4.53838841E-05  1.73166803E-04  2.73098109E+00
  4.53838841E-05  1.73166803E-04  1.26908258E+00  2.39870780E+00 -8.80297209E-05
  1.26908258E+00  2.39870780E+00 -8.80297209E-05  1.26909526E+00 -2.39845213E+00
 -1.67480486E-04  1.26909526E+00 -2.39845213E+00 -1.67480486E-04 -1.26899947E+00
  2.39851503E+00  1.11536522E-04 -1.26899947E+00  2.39851503E+00  1.11536522E-04
 -1.26898679E+00 -2.39864490E+00  3.20857568E-05 -1.26898679E+00 -2.39864490E+00
  3.20857568E-05 -2.73105311E+00 -6.74788659E-05 -2.47226620E-04 -2.73105311E+00
 -6.74788659E-05 -2.47226620E-04 -5.04584707E+00  2.83449970E-05  8.09994069E-05
 -5.04584707E+00  2.83449970E-05  8.09994069E-05  2.38055602E+00  4.12486930E+00
 -2.53173302E-04  2.38045970E+00 -4.12474510E+00  5.09001267E-05 -2.38060923E+00
  4.12482617E+00  1.09069845E-04 -2.38061911E+00 -4.12494744E+00  3.59364024E-04
Constraint Structure                       R   N=          36
  5.04578397E+00 -1.06482299E-04  2.51913151E-05  2.73098109E+00  4.53838841E-05
  1.73166803E-04  1.26908258E+00  2.39870780E+00 -8.80297209E-05  1.26909526E+00
 -2.39845213E+00 -1.67480486E-04 -1.26899947E+00  2.39851503E+00  1.11536522E-04
 -1.26898679E+00 -2.39864490E+00  3.20857568E-05 -2.73105311E+00 -6.74788659E-05
 -2.47226620E-04 -5.04584707E+00  2.83449970E-05  8.09994069E-05  2.38055602E+00
  4.12486930E+00 -2.53173302E-04  2.38045970E+00 -4.12474510E+00  5.09001267E-05
 -2.38060923E+00  4.12482617E+00  1.09069845E-04 -2.38061911E+00 -4.12494744E+00
  3.59364024E-04
Num ILSW                                   I              100
ILSW                                       I   N=         100
           0           0           0           0           2           0
           0           0           0           0           0          -1
           0           0           0           0           0           0
           0           0           1           0           0           0
           1           0           0           0           0           0
           0           0      100000           0          -1           0
           0           0           0           0           0           0
           0           0           0           5           0           0
           0           0           1           0           0           0
           0           0           4          41           0           0
           0           0           0           0           0           0
           0           0           0           0           0           0
           0           0           0           0           0           0
           0           0           0           0           0           0
           0           0           0           0           0           0
           0           0           0           0           0           0
           0           0           0           0
Num RLSW                                   I               41
RLSW                                       R   N=          41
  1.00000000E+00  1.00000000E+00  1.00000000E+00  1.00000000E+00  1.00000000E+00
  0.00000000E+00  0.00000000E+00  1.00000000E+00  0.00000000E+00  0.00000000E+00
  0.00000000E+00  0.00000000E+00  1.00000000E+00  0.00000000E+00  0.00000000E+00
  0.00000000E+00  0.00000000E+00  1.00000000E+00  0.00000000E+00  0.00000000E+00
  0.00000000E+00  0.00000000E+00  1.00000000E+00  0.00000000E+00  0.00000000E+00
  0.00000000E+00  0.00000000E+00  1.00000000E+00  0.00000000E+00  0.00000000E+00
  0.00000000E+00  0.00000000E+00  1.00000000E+00  0.00000000E+00  0.00000000E+00
  0.00000000E+00  0.00000000E+00  0.00000000E+00  1.00000000E+00  1.00000000E+00
  0.00000000E+00
MxBond                                     I                3
NBond                                      I   N=          12
           1           3           3           3           3           3
           3           1           1           1           1           1
IBond                                      I   N=          36
           2           0           0           1           3           4
           2           5           9           2           6          10
           3           7          11           4           7          12
           5           6           8           7           0           0
           3           0           0           4           0           0
           5           0           0           6           0           0
RBond                                      R   N=          36
  2.00000000E+00  0.00000000E+00  0.00000000E+00  2.00000000E+00  1.00000000E+00
  1.00000000E+00  1.00000000E+00  2.00000000E+00  1.00000000E+00  1.00000000E+00
  2.00000000E+00  1.00000000E+00  2.00000000E+00  1.00000000E+00  1.00000000E+00
  2.00000000E+00  1.00000000E+00  1.00000000E+00  1.00000000E+00  1.00000000E+00
  2.00000000E+00  2.00000000E+00  0.00000000E+00  0.00000000E+00  1.00000000E+00
  0.00000000E+00  0.00000000E+00  1.00000000E+00  0.00000000E+00  0.00000000E+00
  1.00000000E+00  0.00000000E+00  0.00000000E+00  1.00000000E+00  0.00000000E+00
  0.00000000E+00
Virial Ratio                               R      8.097200817685724E-01
SCF Energy                                 R     -6.015055261610756E+01
CIS Energy                                 R     -6.006195116586527E+01
Total Energy                               R     -6.006195116586527E+01
Post-SCF wavefunction norm                 R      1.000000000000000E+00
RMS Density                                R      9.057848361291839E-09
External E-field                           R   N=          35
  0.00000000E+00  0.00000000E+00  0.00000000E+00  0.00000000E+00  0.00000000E+00
  0.00000000E+00  0.00000000E+00  0.00000000E+00  0.00000000E+00  0.00000000E+00
  0.00000000E+00  0.00000000E+00  0.00000000E+00  0.00000000E+00  0.00000000E+00
  0.00000000E+00  0.00000000E+00  0.00000000E+00  0.00000000E+00  0.00000000E+00
  0.00000000E+00  0.00000000E+00  0.00000000E+00  0.00000000E+00  0.00000000E+00
  0.00000000E+00  0.00000000E+00  0.00000000E+00  0.00000000E+00  0.00000000E+00
  0.00000000E+00  0.00000000E+00  0.00000000E+00  0.00000000E+00  0.00000000E+00
IOpCl                                      I                0
IROHF                                      I                0
Alpha Orbital Energies                     R   N=          36
 -1.66635059E+00 -1.58908935E+00 -1.44147688E+00 -1.26991352E+00 -1.00096346E+00
 -9.89345506E-01 -9.32586134E-01 -7.43843243E-01 -7.07690104E-01 -6.50518721E-01
 -6.16874619E-01 -5.79086804E-01 -5.67021434E-01 -5.37312915E-01 -5.35781521E-01
 -5.05490299E-01 -3.94616286E-01 -3.92136891E-01 -3.87408568E-01 -3.86425935E-01
 -8.40301366E-02  5.44016944E-03  2.24335456E-02  5.95668638E-02  7.76038913E-02
  9.25042670E-02  1.02610622E-01  1.74871927E-01  1.84561832E-01  2.05934889E-01
  2.92040230E-01  3.23629168E-01  3.46283390E-01  4.04003924E-01  4.30004248E-01
  4.82166761E-01
Alpha MO coefficients                      R   N=        1296
  3.46206924E-01 -1.37889877E-01  3.77952989E-06  4.45823159E-06  4.05782601E-01
  3.26236319E-02 -1.95804928E-05 -2.57032707E-05  2.82568556E-01 -1.98599435E-02
 -9.98132464E-02  8.74867956E-06  2.82602846E-01 -1.98514894E-02  9.98131552E-02
  1.65561081E-05  2.82548780E-01  1.98855523E-02 -9.97929495E-02 -1.28223445E-05
  2.82542162E-01  1.98903087E-02  9.97972893E-02 -5.44164933E-06  4.05664006E-01
 -3.25774541E-02  7.60211339E-06  3.96315254E-05  3.46073070E-01  1.37835657E-01
 -3.28610203E-06 -1.29854757E-05  8.69224071E-02  8.69351799E-02  8.69048618E-02
  8.68995981E-02 -4.98399626E-01  1.84244162E-01 -6.67387677E-06 -8.60304278E-06
 -3.64331284E-01 -1.96360233E-01  2.57106751E-05  2.38488174E-05 -1.03124747E-01
 -8.62772642E-02  4.68952539E-02 -2.18171577E-06 -1.03153641E-01 -8.62976715E-02
 -4.69023166E-02 -5.75250048E-06  1.03205816E-01 -8.62899940E-02 -4.69197040E-02
 -3.01860298E-06  1.03192575E-01 -8.62845133E-02  4.69170449E-02  1.66209667E-07
  3.64456117E-01 -1.96392595E-01  1.31624853E-05  4.25697078E-05  4.98536930E-01
  1.84293404E-01 -5.08926945E-06 -2.19329318E-05 -5.31270622E-02 -5.31380901E-02
  5.31560554E-02  5.31497285E-02  4.15517968E-01 -1.24646033E-01  7.97930258E-06
  1.08756059E-05  1.15336603E-02  3.43170946E-01 -1.71896487E-05  2.32444772E-07
 -2.62663680E-01  1.43537481E-01  6.41676543E-02 -9.35325012E-06 -2.62665097E-01
  1.43562463E-01 -6.41530953E-02 -1.54166808E-05 -2.62671706E-01 -1.43544318E-01
  6.41639483E-02  1.65891007E-05 -2.62681758E-01 -1.43533117E-01 -6.41781963E-02
  1.08266996E-05  1.15162368E-02 -3.43148329E-01  1.48257929E-05  1.45176212E-05
  4.15475757E-01  1.24631544E-01 -4.45877981E-06 -2.28379558E-05 -5.70122580E-02
 -5.70123598E-02 -5.70049577E-02 -5.70069386E-02  4.21418194E-06  5.85949215E-07
  5.37191552E-02 -2.69011494E-07  2.59124244E-05 -3.89601976E-06  2.11508387E-01
  2.45592519E-07  4.19712394E-01 -9.87584494E-02  5.08750295E-02  1.25702515E-05
 -4.19672577E-01  9.87636670E-02  5.09189298E-02 -2.72469974E-05  4.19650841E-01
  9.87942289E-02  5.09119736E-02 -2.05437518E-05 -4.19659272E-01 -9.87819592E-02
  5.08759583E-02  7.13398303E-06 -2.06226644E-05 -8.78405320E-06  2.11455250E-01
  5.21001878E-07  1.38376584E-06  7.76841426E-07  5.37020856E-02 -1.50296298E-07
  1.94246253E-01 -1.94243430E-01  1.94204518E-01 -1.94196648E-01 -3.21144592E-01
 -3.78098687E-02 -4.03914450E-05 -1.29614241E-05  2.76590725E-01 -2.69728925E-01
 -6.45263415E-05 -2.20223717E-05  2.58849257E-01  1.75123295E-01 -6.68833846E-02
  1.01893007E-05  2.58972969E-01  1.75193965E-01  6.68844869E-02  2.20832000E-05
 -2.58857173E-01  1.75167815E-01  6.69654080E-02  1.92942516E-05 -2.58918205E-01
  1.75232120E-01 -6.69743236E-02  9.45158007E-06 -2.76670171E-01 -2.69787334E-01
  5.00143141E-05 -1.24034258E-05  3.21156143E-01 -3.78184758E-02  1.36505964E-05
 -1.53006268E-05  1.44463324E-01  1.44536404E-01 -1.44429053E-01 -1.44476821E-01
  2.52099536E-05 -6.00644095E-06 -1.56137404E-01 -6.91642476E-07 -5.08057088E-05
  1.46016586E-05 -3.52105439E-01 -1.79983357E-06 -2.90414323E-01 -2.12800573E-01
 -1.05570424E-03 -1.02641199E-05  2.90307681E-01  2.12730750E-01 -1.05011112E-03
  2.61444793E-05  2.90457999E-01 -2.12778254E-01  1.04180112E-03 -1.87293563E-05
 -2.90389020E-01  2.12729906E-01  1.08793087E-03  6.38904725E-06  3.82949115E-05
  5.64936453E-05  3.52134448E-01  2.68549144E-06 -6.14886071E-05  1.36843791E-05
  1.56140784E-01  1.07183250E-06 -2.15019432E-01  2.14930400E-01  2.15015941E-01
 -2.14992454E-01 -7.97528612E-02 -3.72412492E-02  9.70088796E-06 -1.01641462E-05
  2.29152459E-01 -1.72950806E-01  1.79284004E-05 -2.67025360E-05 -1.58829259E-01
  6.58091756E-02 -3.44849403E-01  4.44079031E-06 -1.58828116E-01  6.57697230E-02
  3.44880330E-01 -1.31662510E-05 -1.58881725E-01 -6.57290071E-02 -3.44828711E-01
 -4.74235620E-06 -1.58882329E-01 -6.57778114E-02  3.44810881E-01 -2.03187272E-05
  2.29055363E-01  1.72875859E-01 -1.12513082E-05  1.78959659E-05 -7.96573171E-02
  3.72166897E-02 -7.73338168E-06  8.34378493E-06 -2.37593777E-01 -2.37634152E-01
 -2.37624468E-01 -2.37596718E-01  4.35636977E-05  5.61293286E-05  2.74843868E-01
  4.92220288E-06 -2.17443660E-05  2.18031429E-05  3.87837978E-01  6.86977805E-06
 -2.02156615E-02  3.19885185E-01 -1.85067643E-01  2.16313296E-06  2.02494879E-02
 -3.19878094E-01 -1.85147655E-01 -6.45350977E-06 -2.02546119E-02 -3.19845674E-01
 -1.85136286E-01 -7.07273637E-06  2.02185280E-02  3.19915179E-01 -1.85030413E-01
  3.08420523E-06  8.52932734E-06  2.30545904E-05  3.87823166E-01  7.01528414E-06
  3.57839335E-06  1.11029420E-05  2.74824465E-01  5.00980397E-06  5.78756007E-03
 -5.69753005E-03  5.71637645E-03 -5.82864233E-03  3.57243064E-01  3.34820279E-01
 -6.40455013E-06 -2.25565867E-07 -1.95471395E-01 -7.36802680E-02  8.43648009E-06
  1.88501176E-05  8.93540344E-03 -2.88052966E-01 -6.49007380E-02  1.83248733E-05
  8.93928634E-03 -2.88016497E-01  6.48554378E-02 -7.32290618E-06  8.97503920E-03
  2.88047488E-01 -6.48156208E-02 -9.25280759E-06  8.96268185E-03  2.87991495E-01
  6.48813678E-02 -3.29474750E-05 -1.95503244E-01  7.36585736E-02 -4.49760031E-05
 -2.53637418E-05  3.57228431E-01 -3.34814382E-01 -2.84104517E-05  2.20742895E-05
 -1.45205145E-01 -1.45150613E-01 -1.45132221E-01 -1.45156133E-01  2.06296833E-01
  2.81020574E-01 -9.20561635E-05 -4.67818951E-05 -2.56720248E-01 -2.16383409E-02
 -1.39927013E-04 -3.70682067E-05  1.37970895E-01  7.19375807E-02  2.43169927E-01
 -7.38826401E-05  1.37999646E-01  7.17665174E-02 -2.42835960E-01 -4.78642259E-05
 -1.38021766E-01  7.17834654E-02 -2.42878414E-01 -6.83440494E-05 -1.37993060E-01
  7.19534621E-02  2.43199725E-01 -8.59043713E-05  2.56732117E-01 -2.16057882E-02
 -1.14796646E-04 -4.74396458E-05 -2.06267804E-01  2.80988818E-01 -6.18394168E-05
 -7.90652409E-05  2.69915749E-01  2.69628685E-01 -2.69672337E-01 -2.69952454E-01
 -1.70213841E-04 -2.69470586E-04 -7.45352939E-03 -7.80793136E-05  1.01021658E-04
  1.10834931E-04 -1.62309551E-01 -1.04706549E-04 -6.56980628E-02  2.58802582E-01
  2.87919880E-01 -1.11406499E-04  6.55782198E-02 -2.58870263E-01  2.88007511E-01
 -8.66401274E-05 -6.56047528E-02 -2.58882184E-01  2.87927030E-01 -4.53923677E-05
  6.57215391E-02  2.58777347E-01  2.87837006E-01 -1.47290147E-04 -1.13736896E-04
  1.39756434E-04 -1.62215478E-01 -1.01870111E-04  2.04680332E-04 -3.21100749E-04
 -7.39977773E-03 -7.56662889E-05  2.87358243E-01 -2.87525510E-01  2.87465887E-01
 -2.87284024E-01  2.44704497E-01  4.56472709E-01 -1.46425341E-05  1.57254555E-04
  6.51778399E-02 -3.34693100E-01 -2.87149767E-05  2.16576231E-04  5.02656394E-03
 -7.17647773E-04 -1.94076610E-01  2.18761852E-04  5.10156216E-03 -9.31350596E-04
  1.94256247E-01  2.03547601E-04 -5.09262462E-03 -8.30324661E-04  1.94272492E-01
  2.22881243E-04 -5.02206580E-03 -6.15950673E-04 -1.94090528E-01  2.32062137E-04
 -6.51695150E-02 -3.34807690E-01 -4.13914204E-05  2.48437023E-04 -2.44794823E-01
  4.56649606E-01 -1.13429149E-05  1.29328010E-04 -1.41133934E-01 -1.41329547E-01
  1.41299980E-01  1.41103572E-01 -1.09530048E-04 -1.81356103E-04  1.52229922E-06
  3.77371717E-01 -1.77540756E-05  1.70815795E-04 -4.27653550E-05  4.10686571E-01
 -2.38968264E-05  9.40623761E-05  2.49823788E-04  3.07366516E-01 -1.11435049E-05
 -5.11845152E-05 -1.02875932E-04  3.07395387E-01  7.08774803E-07 -6.09647062E-05
 -1.09233717E-04  3.07361236E-01  1.13485634E-05  8.33814826E-05  2.82031916E-04
  3.07369217E-01 -1.47441620E-06  2.11547690E-04 -5.79559694E-05  4.10643748E-01
  1.24301653E-04 -1.77706578E-04 -1.38269106E-05  3.77340073E-01  1.97312242E-04
  7.51438230E-05 -5.09729525E-05 -1.99660234E-04  1.66312681E-01  4.11094317E-01
 -3.65125768E-03 -2.63871143E-04  9.17997165E-03 -2.80927644E-01 -2.88649793E-03
 -1.97289169E-04 -1.37878940E-02  3.03365083E-01  1.77673518E-03 -8.90199576E-05
 -1.52253107E-02  3.03101467E-01  3.79451692E-03 -2.79193541E-05 -1.52378939E-02
 -3.03073046E-01 -3.75013573E-03  1.56904932E-05 -1.38189033E-02 -3.03382547E-01
 -1.88443237E-03  7.43878863E-05  9.14041565E-03  2.80791645E-01  2.90690437E-03
  1.52873673E-04  1.66240514E-01 -4.10923977E-01  3.62057169E-03  2.77098660E-04
  1.44080535E-01  1.39003352E-01  1.39036431E-01  1.44166436E-01 -1.65438720E-03
 -4.16377651E-03 -3.56362312E-01 -7.46556043E-05 -1.26290860E-04  2.82978254E-03
 -2.86587082E-01 -6.44574086E-05  7.14313164E-02  1.10081750E-02  2.76268432E-01
 -1.17300939E-04 -7.11262206E-02 -1.72002272E-02  2.76264620E-01  7.08325156E-05
 -7.11117873E-02  1.72466495E-02 -2.76330721E-01 -7.60441115E-05  7.14378616E-02
 -1.10589010E-02 -2.76356830E-01  1.44875542E-04 -1.24181972E-04 -2.83072410E-03
  2.86655551E-01  8.59042967E-05 -1.65355274E-03  4.14680404E-03  3.56421190E-01
  9.68740300E-05  2.51027865E-01 -2.53930901E-01 -2.53993304E-01  2.51127670E-01
 -5.06463534E-05 -2.12270936E-04  7.51360837E-05 -5.53628244E-01 -8.31520959E-05
  1.30099236E-04  4.99658581E-05 -4.18440141E-01  7.11857559E-06 -1.32838490E-04
 -4.82831585E-05 -9.57725886E-02  4.36634796E-05 -1.20144381E-04 -4.10240492E-05
 -9.58053499E-02  3.75226858E-05  1.23617747E-04  2.02617624E-05  9.57931127E-02
  1.23143216E-06  1.32670215E-04  6.50261688E-05  9.57756348E-02 -9.14746073E-05
 -1.00015033E-04 -4.91649356E-05  4.18479520E-01 -4.83549100E-05  2.54382669E-04
 -7.52368466E-05  5.53694763E-01 -9.27863264E-05 -1.64258351E-05 -2.84205938E-05
 -1.02132138E-04  1.58114738E-06  1.75041429E-05 -6.89802836E-04 -3.98989228E-05
 -1.59137215E-06 -8.42864995E-06  2.63649683E-04 -2.16518556E-06  1.06482417E-04
  5.02992057E-06 -1.82645676E-04  5.00061057E-01 -6.29807538E-05  6.46629814E-05
 -2.15195659E-04 -4.99940447E-01 -1.33707110E-04  1.43178902E-04  2.92489745E-04
  5.00047920E-01  1.68857700E-04 -2.09780737E-04  2.68929775E-04 -4.99947036E-01
  1.23098470E-06  1.02510303E-05 -4.39876908E-04 -1.80400094E-05  1.66116274E-06
 -1.82808689E-05  1.52258713E-03 -6.96648446E-05 -1.66382664E-04  1.56856709E-04
  1.39006843E-04 -1.49497883E-04 -3.37533103E-07  5.63692302E-05  6.47139483E-01
  1.08455416E-04 -6.26500811E-06 -1.36709134E-05 -1.46055414E-01  9.78478660E-06
 -4.42249431E-02 -1.39275945E-01  9.12647055E-02 -3.95044017E-04  4.42531791E-02
  1.39277260E-01  9.12418753E-02  2.58582616E-04 -4.43161040E-02  1.39294964E-01
  9.14096326E-02 -3.85924416E-04  4.42850393E-02 -1.39312678E-01  9.14192814E-02
  2.48701406E-04  1.04007640E-05 -2.08362544E-07 -1.46233872E-01  9.43335723E-06
  1.06221047E-06  2.74533306E-05  6.47573459E-01  1.08905285E-04 -9.09954126E-03
  9.12206268E-03 -9.01385243E-03  8.99968808E-03 -3.07269718E-06  5.66360533E-05
  4.16153162E-05  4.93894120E-01  2.34085633E-05 -1.19568258E-05 -2.70060134E-05
  7.58205074E-02  1.28566356E-05 -1.53016840E-05 -2.34297452E-05 -3.53730184E-01
  6.93268615E-05 -1.11115803E-05  5.54669112E-05 -3.53859780E-01 -7.85485104E-07
 -4.27429160E-05 -3.31814709E-05 -3.53733845E-01 -5.85114178E-05 -8.42064175E-06
 -1.47388225E-04 -3.53873573E-01 -2.72389363E-05 -1.19326774E-05  1.01962440E-04
  7.58030419E-02  2.64959653E-06  1.00111725E-04 -3.14583710E-04  4.93839701E-01
  5.83901494E-06 -6.12248926E-05 -1.46756623E-05  5.74211289E-05 -3.38967108E-07
  4.24786783E-05  5.84385844E-01 -1.19529441E-04 -9.46812940E-06 -9.73553249E-06
 -2.17674393E-01 -2.66171482E-05 -8.98371507E-02 -3.04616297E-02  1.82025311E-01
  9.76940192E-04  8.98465966E-02  3.04543925E-02  1.82008053E-01 -7.84034473E-04
  8.98209808E-02 -3.03430582E-02 -1.81962399E-01  9.80623153E-04 -8.98118044E-02
  3.03488448E-02 -1.81965062E-01 -7.43155620E-04 -5.31252169E-06  6.45085096E-06
  2.17568828E-01 -1.69562552E-05 -1.70660504E-07 -2.72436009E-05 -5.83876100E-01
 -1.78264821E-04  1.16612318E-01 -1.16602692E-01 -1.16635811E-01  1.16644383E-01
  6.23297345E-06 -1.18525295E-05 -1.92537917E-05  3.94446636E-01 -1.09854673E-04
  3.18056133E-05  2.72907792E-05 -3.76025579E-01  3.33167259E-05  1.80257503E-05
 -6.15056873E-05 -3.18585185E-01  6.78254705E-05  2.87649456E-05  2.06244242E-05
 -3.18608942E-01  5.76868149E-05 -2.40229935E-05 -4.85036342E-05  3.18603813E-01
  2.59090768E-05 -1.75901695E-05  8.51109459E-05  3.18626696E-01 -1.17111420E-04
 -3.18057229E-06 -2.66104364E-05  3.76024789E-01  6.27464426E-06 -2.17331161E-05
  1.97529762E-05 -3.94439322E-01 -3.38999372E-06 -9.05525937E-06 -4.83564265E-06
 -7.48858893E-07  5.89619432E-06 -1.64976618E-05 -1.37653875E-05  8.21699163E-05
 -5.61228976E-05  2.19830625E-05  5.26264892E-05 -1.22482835E-04  1.32848484E-05
 -5.63323608E-08  3.02616969E-05  5.00056637E-01  1.40226236E-04  1.92466410E-05
  1.67521229E-05 -4.99939990E-01 -1.01747042E-04  1.20449702E-05  5.29399848E-05
 -4.99978936E-01 -4.37818674E-05 -9.55230883E-07  6.09994483E-05  5.00024323E-01