 Entering Gaussian System, Link 0=g09
 Input=p-benzoquinone-zindo.com
 Output=p-benzoquinone-zindo.log
 Initial command:
 /opt/g09/l1.exe "/local/z485411/Gaussian/tmp/Gau-20980.inp" -scrdir="/local/z485411/Gaussian/tmp/"
 Entering Link 1 = /opt/g09/l1.exe PID=     20982.
  
 Copyright (c) 1988,1990,1992,1993,1995,1998,2003,2009,2013,
            Gaussian, Inc.  All Rights Reserved.
  
 This is part of the Gaussian(R) 09 program.  It is based on
 the Gaussian(R) 03 system (copyright 2003, Gaussian, Inc.),
 the Gaussian(R) 98 system (copyright 1998, Gaussian, Inc.),
 the Gaussian(R) 94 system (copyright 1995, Gaussian, Inc.),
 the Gaussian 92(TM) system (copyright 1992, Gaussian, Inc.),
 the Gaussian 90(TM) system (copyright 1990, Gaussian, Inc.),
 the Gaussian 88(TM) system (copyright 1988, Gaussian, Inc.),
 the Gaussian 86(TM) system (copyright 1986, Carnegie Mellon
 University), and the Gaussian 82(TM) system (copyright 1983,
 Carnegie Mellon University). Gaussian is a federally registered
 trademark of Gaussian, Inc.
  
 This software contains proprietary and confidential information,
 including trade secrets, belonging to Gaussian, Inc.
  
 This software is provided under written license and may be
 used, copied, transmitted, or stored only in accord with that
 written license.
  
 The following legend is applicable only to US Government
 contracts under FAR:
  
                    RESTRICTED RIGHTS LEGEND
  
 Use, reproduction and disclosure by the US Government is
 subject to restrictions as set forth in subparagraphs (a)
 and (c) of the Commercial Computer Software - Restricted
 Rights clause in FAR 52.227-19.
  
 Gaussian, Inc.
 340 Quinnipiac St., Bldg. 40, Wallingford CT 06492
  
  
 ---------------------------------------------------------------
 Warning -- This program may not be used in any manner that
 competes with the business of Gaussian, Inc. or will provide
 assistance to any competitor of Gaussian, Inc.  The licensee
 of this program is prohibited from giving any competitor of
 Gaussian, Inc. access to this program.  By using this program,
 the user acknowledges that Gaussian, Inc. is engaged in the
 business of creating and licensing software in the field of
 computational chemistry and represents and warrants to the
 licensee that it is not a competitor of Gaussian, Inc. and that
 it will not use this program in any manner prohibited above.
 ---------------------------------------------------------------
  

 Cite this work as:
 Gaussian 09, Revision D.01,
 M. J. Frisch, G. W. Trucks, H. B. Schlegel, G. E. Scuseria, 
 M. A. Robb, J. R. Cheeseman, G. Scalmani, V. Barone, B. Mennucci, 
 G. A. Petersson, H. Nakatsuji, M. Caricato, X. Li, H. P. Hratchian, 
 A. F. Izmaylov, J. Bloino, G. Zheng, J. L. Sonnenberg, M. Hada, 
 M. Ehara, K. Toyota, R. Fukuda, J. Hasegawa, M. Ishida, T. Nakajima, 
 Y. Honda, O. Kitao, H. Nakai, T. Vreven, J. A. Montgomery, Jr., 
 J. E. Peralta, F. Ogliaro, M. Bearpark, J. J. Heyd, E. Brothers, 
 K. N. Kudin, V. N. Staroverov, T. Keith, R. Kobayashi, J. Normand, 
 K. Raghavachari, A. Rendell, J. C. Burant, S. S. Iyengar, J. Tomasi, 
 M. Cossi, N. Rega, J. M. Millam, M. Klene, J. E. Knox, J. B. Cross, 
 V. Bakken, C. Adamo, J. Jaramillo, R. Gomperts, R. E. Stratmann, 
 O. Yazyev, A. J. Austin, R. Cammi, C. Pomelli, J. W. Ochterski, 
 R. L. Martin, K. Morokuma, V. G. Zakrzewski, G. A. Voth, 
 P. Salvador, J. J. Dannenberg, S. Dapprich, A. D. Daniels, 
 O. Farkas, J. B. Foresman, J. V. Ortiz, J. Cioslowski, 
 and D. J. Fox, Gaussian, Inc., Wallingford CT, 2013.
 
 ******************************************
 Gaussian 09:  AM64L-G09RevD.01 24-Apr-2013
                 5-Apr-2020 
 ******************************************
 %chk=p-benzoquinone-zindo.chk
 ------------------
 # zindo(NState=10)
 ------------------
 1/38=1/1;
 2/12=2,17=6,18=5,40=1/2;
 3/5=2,16=1,25=1,41=400000/1,2,8,3;
 4/5=3,35=1/1;
 5/5=2,35=1,38=5/2;
 8/6=1,108=10/1;
 9/41=10,42=1,49=10/14;
 6/7=2,8=2,9=2,10=2/1;
 99/5=1,9=1/99;
 -----
 titre
 -----
 Symbolic Z-matrix:
 Charge =  0 Multiplicity = 1
 O                    -0.0063    0.8427    1.2033 
 C                     1.0814    0.7849    1.7637 
 C                     1.1975    0.3718    3.1869 
 C                     2.3392    1.1246    1.0482 
 C                     2.3902    0.3085    3.8012 
 C                     3.5319    1.0613    1.6625 
 C                     3.6481    0.6482    3.0857 
 O                     4.7358    0.5905    3.6461 
 H                     0.2644    0.1286    3.6874 
 H                     2.2278    1.4234    0.0096 
 H                     2.5017    0.0098    4.8399 
 H                     4.4651    1.3046    1.162 
 
                          Input orientation:                          
 ---------------------------------------------------------------------
 Center     Atomic      Atomic             Coordinates (Angstroms)
 Number     Number       Type             X           Y           Z
 ---------------------------------------------------------------------
      1          8           0       -0.006300    0.842700    1.203300
      2          6           0        1.081400    0.784900    1.763700
      3          6           0        1.197500    0.371800    3.186900
      4          6           0        2.339200    1.124600    1.048200
      5          6           0        2.390200    0.308500    3.801200
      6          6           0        3.531900    1.061300    1.662500
      7          6           0        3.648100    0.648200    3.085700
      8          8           0        4.735800    0.590500    3.646100
      9          1           0        0.264400    0.128600    3.687400
     10          1           0        2.227800    1.423400    0.009600
     11          1           0        2.501700    0.009800    4.839900
     12          1           0        4.465100    1.304600    1.162000
 ---------------------------------------------------------------------
                    Distance matrix (angstroms):
                    1          2          3          4          5
     1  O    0.000000
     2  C    1.224941   0.000000
     3  C    2.367604   1.486482   0.000000
     4  C    2.367466   1.486404   2.538548   0.000000
     5  C    3.574586   2.468060   1.343095   2.871869   0.000000
     6  C    3.574564   2.468114   2.872043   1.343095   2.538548
     7  C    4.115325   2.890384   2.468214   2.468113   1.486489
     8  O    5.340261   4.115320   3.574669   3.574638   2.367577
     9  H    2.598840   2.190626   1.086426   3.501741   2.136432
    10  H    2.598718   2.190612   3.501802   1.086454   3.955453
    11  H    4.495403   3.475779   2.136443   3.955525   1.086532
    12  H    4.495384   3.475853   3.955698   2.136540   3.501828
                    6          7          8          9         10
     6  C    0.000000
     7  C    1.486490   0.000000
     8  O    2.367635   1.224936   0.000000
     9  H    3.955592   3.475838   4.495384   0.000000
    10  H    2.136322   3.475713   4.495322   4.365508   0.000000
    11  H    3.501833   2.190663   2.598764   2.519500   5.040346
    12  H    1.086535   2.190656   2.598840   5.040486   2.519454
                   11         12
    11  H    0.000000
    12  H    4.365592   0.000000
 Stoichiometry    C6H4O2
 Framework group  C1[X(C6H4O2)]
 Deg. of freedom    30
 Full point group                 C1      NOp   1
 Largest Abelian subgroup         C1      NOp   1
 Largest concise Abelian subgroup C1      NOp   1
                         Standard orientation:                         
 ---------------------------------------------------------------------
 Center     Atomic      Atomic             Coordinates (Angstroms)
 Number     Number       Type             X           Y           Z
 ---------------------------------------------------------------------
      1          8           0        2.670114   -0.000056    0.000013
      2          6           0        1.445173    0.000024    0.000092
      3          6           0        0.671570    1.269341   -0.000047
      4          6           0        0.671576   -1.269206   -0.000089
      5          6           0       -0.671526    1.269239    0.000059
      6          6           0       -0.671519   -1.269308    0.000017
      7          6           0       -1.445211   -0.000036   -0.000131
      8          8           0       -2.670147    0.000015    0.000043
      9          1           0        1.259736    2.182787   -0.000134
     10          1           0        1.259685   -2.182721    0.000027
     11          1           0       -1.259764    2.182764    0.000058
     12          1           0       -1.259769   -2.182828    0.000190
 ---------------------------------------------------------------------
 Rotational constants (GHZ):      5.2350348      1.6502451      1.2547189
 Standard basis: VSTO-6G (5D, 7F)
 There are    36 symmetry adapted cartesian basis functions of A   symmetry.
 There are    36 symmetry adapted basis functions of A   symmetry.
    36 basis functions,   216 primitive gaussians,    36 cartesian basis functions
    20 alpha electrons       20 beta electrons
       nuclear repulsion energy       161.9538931541 Hartrees.
 Integral buffers will be    131072 words long.
 Regular integral format.
 Two-electron integral symmetry is turned off.
 Do NDO integrals.
 One-electron integrals computed using PRISM.
 Generate ZINDO/S integrals.
 NDO Nuclear repulsion=   113.801448424180 Hartrees.
 NBasis=    36 RedAO= F EigKep=  0.00D+00  NBF=    36
 NBsUse=    36 1.00D-04 EigRej=  0.00D+00 NBFU=    36
 DipDrv:  will hold  3 matrices at once.
 Simple Huckel Guess.
 Overlap will be assumed to be unity.
 Requested convergence on RMS density matrix=1.00D-08 within 128 cycles.
 Requested convergence on MAX density matrix=1.00D-06.
 Requested convergence on             energy=1.00D-06.
 No special actions if energy rises.
 SCF Done:  E(RZINDO/S) =  -60.1505526161     A.U. after   11 cycles
            NFock= 11  Conv=0.91D-08     -V/T= 0.8097
 Range of M.O.s used for correlation:     1    36
 NBasis=    36 NAE=    20 NBE=    20 NFC=     0 NFV=     0
 NROrb=     36 NOA=    20 NOB=    20 NVA=    16 NVB=    16
 Orbital symmetries:
       Occupied  (A) (A) (A) (A) (A) (A) (A) (A) (A) (A) (A) (A)
                 (A) (A) (A) (A) (A) (A) (A) (A)
       Virtual   (A) (A) (A) (A) (A) (A) (A) (A) (A) (A) (A) (A)
                 (A) (A) (A) (A)
    40 initial guesses have been made.
 Convergence on wavefunction:    0.001000000000000
 Iteration     1 Dimension    40 NMult     0 NNew     40
 CISAX will form    40 AO SS matrices at one time.
 New state      2 was old state      3
 New state      3 was old state      4
 New state      4 was old state      2
 New state      5 was old state     11
 New state      6 was old state      5
 New state      7 was old state      9
 New state      8 was old state      7
 New state      9 was old state      6
 New state     10 was old state     12
 Iteration     2 Dimension    80 NMult    40 NNew     40
 Iteration     3 Dimension    90 NMult    80 NNew     10
 Iteration     4 Dimension    98 NMult    90 NNew      8
 Iteration     5 Dimension    99 NMult    98 NNew      1
 ***********************************************************************
 Excited states from <AA,BB:AA,BB> singles matrix:
 ***********************************************************************
 
 Ground to excited state transition densities written to RWF  633
 Ground to excited state transition electric dipole moments (Au):
       state          X           Y           Z        Dip. S.      Osc.
         1         0.0000      0.0000      0.0000      0.0000      0.0000
         2        -0.0000      0.0001     -0.0000      0.0000      0.0000
         3        -0.0001     -0.0001      0.0000      0.0000      0.0000
         4        -2.7051      0.0000      0.0003      7.3177      0.8824
         5         0.0001     -0.0000     -0.0000      0.0000      0.0000
         6        -0.0013      0.0002      0.1479      0.0219      0.0032
         7         0.0001      0.0005      0.0005      0.0000      0.0000
         8        -0.0002     -0.0000     -0.0000      0.0000      0.0000
         9        -0.0002     -0.0000      0.0000      0.0000      0.0000
        10         0.0011      0.7698      0.0000      0.5926      0.0972
 Ground to excited state transition velocity dipole moments (Au):
       state          X           Y           Z        Dip. S.      Osc.
         1        -0.0000     -0.0000     -0.0000      0.0000      0.0000
         2         0.0000     -0.0001     -0.0000      0.0000      0.0000
         3         0.0000      0.0000     -0.0000      0.0000      0.0000
         4         0.1883      0.0000     -0.0000      0.0355      0.1307
         5        -0.0000     -0.0000      0.0000      0.0000      0.0000
         6         0.0002     -0.0001     -0.0586      0.0034      0.0103
         7        -0.0000     -0.0001     -0.0002      0.0000      0.0000
         8         0.0000      0.0000      0.0000      0.0000      0.0000
         9         0.0000      0.0000     -0.0000      0.0000      0.0000
        10        -0.0001     -0.0917     -0.0000      0.0084      0.0228
 Ground to excited state transition magnetic dipole moments (Au):
       state          X           Y           Z
         1         0.9707     -0.0001     -0.0001
         2        -0.0021     -0.0000      0.0000
         3        -0.0003     -0.0000      1.0891
         4         0.0000     -0.0001      0.0000
         5        -1.1178     -0.0001     -0.0002
         6         0.0000      0.0001     -0.0000
         7        -0.0000      0.0000     -0.0001
         8        -0.0001      0.4427     -0.0009
         9         0.0001      0.0002      0.7883
        10         0.0000     -0.0000     -0.0001
 Ground to excited state transition velocity quadrupole moments (Au):
       state          XX          YY          ZZ          XY          XZ          YZ
         1         0.0002     -0.0000     -0.0000     -0.0002     -0.0000      0.0290
         2        -0.0002      0.0001      0.0000     -0.0001     -0.0000     -0.0001
         3         0.0003      0.0000     -0.0000     -0.2149     -0.0000      0.0000
         4         0.0001     -0.0000     -0.0000     -0.0000      0.0000     -0.0000
         5        -0.0002      0.0002      0.0000      0.0001     -0.0001      0.1262
         6        -0.0000      0.0000      0.0000      0.0000     -0.0000     -0.0000
         7         0.0000     -0.0000     -0.0000     -0.0000     -0.0000      0.0000
         8         0.0001      0.0000     -0.0000      0.0003      0.1861      0.0001
         9         0.0003     -0.0001     -0.0000     -0.3833      0.0001      0.0001
        10        -0.0002      0.0001      0.0000     -0.0001     -0.0000     -0.0000
 <0|del|b> * <b|rxdel|0> + <0|del|b> * <b|delr+rdel|0>
 Rotatory Strengths (R) in cgs (10**-40 erg-esu-cm/Gauss)
       state          XX          YY          ZZ    R(velocity)    E-M Angle
         1         0.0000     -0.0093     -0.0088     -0.0060       90.00
         2         0.0000     -0.0000     -0.0000     -0.0000       90.00
         3        -0.0037     -0.0055     -0.0000     -0.0031       90.00
         4        -0.0000      0.0021      0.0042      0.0021       90.00
         5         0.0000      0.0334      0.0419      0.0251       90.00
         6         0.0008      0.0042     -0.0000      0.0017       90.00
         7         0.0000      0.0000     -0.0000      0.0000       90.00
         8         0.0006     -0.0000      0.0014      0.0006       90.00
         9        -0.0029     -0.0084      0.0000     -0.0038       90.00
        10        -0.0002     -0.0000      0.0012      0.0003       90.00
 1/2[<0|r|b>*<b|rxdel|0> + (<0|rxdel|b>*<b|r|0>)*]
 Rotatory Strengths (R) in cgs (10**-40 erg-esu-cm/Gauss)
       state          XX          YY          ZZ     R(length)
         1        -0.0116      0.0000      0.0000     -0.0039
         2        -0.0000      0.0000      0.0000     -0.0000
         3        -0.0000     -0.0000     -0.0111     -0.0037
         4         0.0165      0.0000     -0.0000      0.0055
         5         0.0505     -0.0000     -0.0000      0.0168
         6         0.0000     -0.0000      0.0029      0.0010
         7         0.0000     -0.0000      0.0000      0.0000
         8        -0.0000      0.0011     -0.0000      0.0004
         9         0.0000      0.0000     -0.0228     -0.0076
        10        -0.0000      0.0021      0.0000      0.0007
  1/2[<0|del|b>*<b|r|0> + (<0|r|b>*<b|del|0>)*] (Au)
       state          X           Y           Z        Dip. S.   Osc.(frdel)
         1        -0.0000     -0.0000     -0.0000      0.0000      0.0000
         2        -0.0000     -0.0000      0.0000      0.0000      0.0000
         3        -0.0000     -0.0000     -0.0000      0.0000      0.0000
         4        -0.5095      0.0000     -0.0000      0.5095      0.3397
         5        -0.0000      0.0000     -0.0000      0.0000      0.0000
         6        -0.0000     -0.0000     -0.0087      0.0087      0.0058
         7        -0.0000     -0.0000     -0.0000      0.0000      0.0000
         8        -0.0000     -0.0000     -0.0000      0.0000      0.0000
         9        -0.0000     -0.0000     -0.0000      0.0000      0.0000
        10        -0.0000     -0.0706     -0.0000      0.0706      0.0471

 Excitation energies and oscillator strengths:
 
 Excited State   1:      Singlet-A      2.4110 eV  514.25 nm  f=0.0000  <S**2>=0.000
      18 -> 23        -0.29271
      20 -> 21         0.62887
      20 -> 25        -0.11808
 This state for optimization and/or second-order correction.
 Total Energy, E(CIS) =  -60.0619511659    
 Copying the excited state density for this state as the 1-particle RhoCI density.
 
 Excited State   2:      Singlet-A      2.4459 eV  506.90 nm  f=0.0000  <S**2>=0.000
      18 -> 21         0.62422
      18 -> 25        -0.13027
      20 -> 23        -0.29751
 
 Excited State   3:      Singlet-A      4.0403 eV  306.87 nm  f=0.0000  <S**2>=0.000
      17 -> 21         0.70021
 
 Excited State   4:      Singlet-A      4.9218 eV  251.91 nm  f=0.8824  <S**2>=0.000
      17 -> 22        -0.11746
      19 -> 21         0.68574
 
 Excited State   5:      Singlet-A      5.7852 eV  214.31 nm  f=0.0000  <S**2>=0.000
      15 -> 21         0.28672
      18 -> 23         0.47713
      20 -> 21         0.30139
      20 -> 25         0.30560
 
 Excited State   6:      Singlet-A      6.0481 eV  205.00 nm  f=0.0032  <S**2>=0.000
      15 -> 22         0.12781
      20 -> 22         0.68549
 
 Excited State   7:      Singlet-A      6.0772 eV  204.01 nm  f=0.0000  <S**2>=0.000
      18 -> 21         0.32123
      18 -> 25         0.29100
      20 -> 23         0.55105
 
 Excited State   8:      Singlet-A      6.3726 eV  194.56 nm  f=0.0000  <S**2>=0.000
      14 -> 21         0.27384
      18 -> 22         0.64282
 
 Excited State   9:      Singlet-A      6.4236 eV  193.01 nm  f=0.0000  <S**2>=0.000
      18 -> 24         0.12366
      19 -> 22         0.66296
      20 -> 26         0.15608
 
 Excited State  10:      Singlet-A      6.6969 eV  185.14 nm  f=0.0972  <S**2>=0.000
      17 -> 23         0.64136
      18 -> 26         0.15985
      20 -> 24         0.24242
 SavETr:  write IOETrn=   770 NScale= 10 NData=  16 NLR=1 NState=   10 LETran=     190.

 **********************************************************************

            Population analysis using the SCF density.

 **********************************************************************

 Orbital symmetries:
       Occupied  (A) (A) (A) (A) (A) (A) (A) (A) (A) (A) (A) (A)
                 (A) (A) (A) (A) (A) (A) (A) (A)
       Virtual   (A) (A) (A) (A) (A) (A) (A) (A) (A) (A) (A) (A)
                 (A) (A) (A) (A)
 The electronic state is 1-A.
 Alpha  occ. eigenvalues --   -1.66635  -1.58909  -1.44148  -1.26991  -1.00096
 Alpha  occ. eigenvalues --   -0.98935  -0.93259  -0.74384  -0.70769  -0.65052
 Alpha  occ. eigenvalues --   -0.61687  -0.57909  -0.56702  -0.53731  -0.53578
 Alpha  occ. eigenvalues --   -0.50549  -0.39462  -0.39214  -0.38741  -0.38643
 Alpha virt. eigenvalues --   -0.08403   0.00544   0.02243   0.05957   0.07760
 Alpha virt. eigenvalues --    0.09250   0.10261   0.17487   0.18456   0.20593
 Alpha virt. eigenvalues --    0.29204   0.32363   0.34628   0.40400   0.43000
 Alpha virt. eigenvalues --    0.48217
          Condensed to atoms (all electrons):
               1          2          3          4          5          6
     1  O    6.461834   0.000000   0.000000   0.000000   0.000000   0.000000
     2  C    0.000000   3.675449   0.000000   0.000000   0.000000   0.000000
     3  C    0.000000   0.000000   3.993680   0.000000   0.000000   0.000000
     4  C    0.000000   0.000000   0.000000   3.993665   0.000000   0.000000
     5  C    0.000000   0.000000   0.000000   0.000000   3.993674   0.000000
     6  C    0.000000   0.000000   0.000000   0.000000   0.000000   3.993678
     7  C    0.000000   0.000000   0.000000   0.000000   0.000000   0.000000
     8  O    0.000000   0.000000   0.000000   0.000000   0.000000   0.000000
     9  H    0.000000   0.000000   0.000000   0.000000   0.000000   0.000000
    10  H    0.000000   0.000000   0.000000   0.000000   0.000000   0.000000
    11  H    0.000000   0.000000   0.000000   0.000000   0.000000   0.000000
    12  H    0.000000   0.000000   0.000000   0.000000   0.000000   0.000000
               7          8          9         10         11         12
     1  O    0.000000   0.000000   0.000000   0.000000   0.000000   0.000000
     2  C    0.000000   0.000000   0.000000   0.000000   0.000000   0.000000
     3  C    0.000000   0.000000   0.000000   0.000000   0.000000   0.000000
     4  C    0.000000   0.000000   0.000000   0.000000   0.000000   0.000000
     5  C    0.000000   0.000000   0.000000   0.000000   0.000000   0.000000
     6  C    0.000000   0.000000   0.000000   0.000000   0.000000   0.000000
     7  C    3.675455   0.000000   0.000000   0.000000   0.000000   0.000000
     8  O    0.000000   6.461816   0.000000   0.000000   0.000000   0.000000
     9  H    0.000000   0.000000   0.937671   0.000000   0.000000   0.000000
    10  H    0.000000   0.000000   0.000000   0.937692   0.000000   0.000000
    11  H    0.000000   0.000000   0.000000   0.000000   0.937701   0.000000
    12  H    0.000000   0.000000   0.000000   0.000000   0.000000   0.937686
 Mulliken charges:
               1
     1  O   -0.461834
     2  C    0.324551
     3  C    0.006320
     4  C    0.006335
     5  C    0.006326
     6  C    0.006322
     7  C    0.324545
     8  O   -0.461816
     9  H    0.062329
    10  H    0.062308
    11  H    0.062299
    12  H    0.062314
 Sum of Mulliken charges =  -0.00000
 Mulliken charges with hydrogens summed into heavy atoms:
               1
     1  O   -0.461834
     2  C    0.324551
     3  C    0.068649
     4  C    0.068643
     5  C    0.068625
     6  C    0.068636
     7  C    0.324545
     8  O   -0.461816
 Charge=             -0.0000 electrons
 Dipole moment (field-independent basis, Debye):
    X=             -0.0001    Y=              0.0001    Z=             -0.0001  Tot=              0.0002
 N-N= 1.138014484242D+02 E-N= 0.000000000000D+00  KE=-3.161161365591D+02
 1\1\GINC-GTX1080ALPHA\SP\RZINDO\STO-3G\C6H4O2\Z485411\05-Apr-2020\0\\#
  zindo(NState=10)\\titre\\0,1\O,0,-0.0063,0.8427,1.2033\C,0,1.0814,0.7
 849,1.7637\C,0,1.1975,0.3718,3.1869\C,0,2.3392,1.1246,1.0482\C,0,2.390
 2,0.3085,3.8012\C,0,3.5319,1.0613,1.6625\C,0,3.6481,0.6482,3.0857\O,0,
 4.7358,0.5905,3.6461\H,0,0.2644,0.1286,3.6874\H,0,2.2278,1.4234,0.0096
 \H,0,2.5017,0.0098,4.8399\H,0,4.4651,1.3046,1.162\\Version=AM64L-G09Re
 vD.01\State=1-A\HF=-60.1505526\RMSD=9.058e-09\PG=C01 [X(C6H4O2)]\\@


 DEMOCRATS BUY MOST OF THE BOOKS THAT HAVE BEEN
 BANNED; REPUBLICANS FORM CENSORSHIP COMMITTEES AND
 READ THEM AS A GROUP.
 Job cpu time:       0 days  0 hours  0 minutes  0.5 seconds.
 File lengths (MBytes):  RWF=      8 Int=      0 D2E=      0 Chk=      2 Scr=      1
 Normal termination of Gaussian 09 at Sun Apr  5 08:08:10 2020.
