 Entering Gaussian System, Link 0=g09
 Input=/scratch/mverot/bi-phenyl-redundant-opt/bi-phenyl-redundant-opt.com
 Output=/scratch/mverot/bi-phenyl-redundant-opt/bi-phenyl-redundant-opt.log
 Initial command:
 /opt/g09/l1.exe "/scratch/mverot/bi-phenyl-redundant-opt/Gau-1498846.inp" -scrdir="/scratch/mverot/bi-phenyl-redundant-opt/"
 Entering Link 1 = /opt/g09/l1.exe PID=   1498848.
  
 Copyright (c) 1988,1990,1992,1993,1995,1998,2003,2009,2013,
            Gaussian, Inc.  All Rights Reserved.
  
 This is part of the Gaussian(R) 09 program.  It is based on
 the Gaussian(R) 03 system (copyright 2003, Gaussian, Inc.),
 the Gaussian(R) 98 system (copyright 1998, Gaussian, Inc.),
 the Gaussian(R) 94 system (copyright 1995, Gaussian, Inc.),
 the Gaussian 92(TM) system (copyright 1992, Gaussian, Inc.),
 the Gaussian 90(TM) system (copyright 1990, Gaussian, Inc.),
 the Gaussian 88(TM) system (copyright 1988, Gaussian, Inc.),
 the Gaussian 86(TM) system (copyright 1986, Carnegie Mellon
 University), and the Gaussian 82(TM) system (copyright 1983,
 Carnegie Mellon University). Gaussian is a federally registered
 trademark of Gaussian, Inc.
  
 This software contains proprietary and confidential information,
 including trade secrets, belonging to Gaussian, Inc.
  
 This software is provided under written license and may be
 used, copied, transmitted, or stored only in accord with that
 written license.
  
 The following legend is applicable only to US Government
 contracts under FAR:
  
                    RESTRICTED RIGHTS LEGEND
  
 Use, reproduction and disclosure by the US Government is
 subject to restrictions as set forth in subparagraphs (a)
 and (c) of the Commercial Computer Software - Restricted
 Rights clause in FAR 52.227-19.
  
 Gaussian, Inc.
 340 Quinnipiac St., Bldg. 40, Wallingford CT 06492
  
  
 ---------------------------------------------------------------
 Warning -- This program may not be used in any manner that
 competes with the business of Gaussian, Inc. or will provide
 assistance to any competitor of Gaussian, Inc.  The licensee
 of this program is prohibited from giving any competitor of
 Gaussian, Inc. access to this program.  By using this program,
 the user acknowledges that Gaussian, Inc. is engaged in the
 business of creating and licensing software in the field of
 computational chemistry and represents and warrants to the
 licensee that it is not a competitor of Gaussian, Inc. and that
 it will not use this program in any manner prohibited above.
 ---------------------------------------------------------------
  

 Cite this work as:
 Gaussian 09, Revision D.01,
 M. J. Frisch, G. W. Trucks, H. B. Schlegel, G. E. Scuseria, 
 M. A. Robb, J. R. Cheeseman, G. Scalmani, V. Barone, B. Mennucci, 
 G. A. Petersson, H. Nakatsuji, M. Caricato, X. Li, H. P. Hratchian, 
 A. F. Izmaylov, J. Bloino, G. Zheng, J. L. Sonnenberg, M. Hada, 
 M. Ehara, K. Toyota, R. Fukuda, J. Hasegawa, M. Ishida, T. Nakajima, 
 Y. Honda, O. Kitao, H. Nakai, T. Vreven, J. A. Montgomery, Jr., 
 J. E. Peralta, F. Ogliaro, M. Bearpark, J. J. Heyd, E. Brothers, 
 K. N. Kudin, V. N. Staroverov, T. Keith, R. Kobayashi, J. Normand, 
 K. Raghavachari, A. Rendell, J. C. Burant, S. S. Iyengar, J. Tomasi, 
 M. Cossi, N. Rega, J. M. Millam, M. Klene, J. E. Knox, J. B. Cross, 
 V. Bakken, C. Adamo, J. Jaramillo, R. Gomperts, R. E. Stratmann, 
 O. Yazyev, A. J. Austin, R. Cammi, C. Pomelli, J. W. Ochterski, 
 R. L. Martin, K. Morokuma, V. G. Zakrzewski, G. A. Voth, 
 P. Salvador, J. J. Dannenberg, S. Dapprich, A. D. Daniels, 
 O. Farkas, J. B. Foresman, J. V. Ortiz, J. Cioslowski, 
 and D. J. Fox, Gaussian, Inc., Wallingford CT, 2013.
 
 ******************************************
 Gaussian 09:  AM64L-G09RevD.01 24-Apr-2013
                18-Apr-2022 
 ******************************************
 %chk=bi-phenyl-opt
 -----------------------
 #n AM1 Opt=modredundant
 -----------------------
 1/14=-1,18=120,19=15,26=1,38=1/1,3;
 2/9=110,12=2,17=6,18=5,40=1/2;
 3/5=2,16=1,25=1,41=700000,71=1/1,2,3;
 4/35=1/1;
 5/5=2,35=1,38=5/2;
 6/7=2,8=2,9=2,10=2,28=1/1;
 7//1,2,3,16;
 1/14=-1,18=20,19=15,26=1/3(2);
 2/9=110/2;
 99//99;
 2/9=110/2;
 3/5=2,16=1,25=1,41=700000,71=1,135=20/1,2,3;
 4/5=5,16=3,35=1/1;
 5/5=2,35=1,38=5/2;
 7//1,2,3,16;
 1/14=-1,18=20,19=15,26=1/3(-5);
 2/9=110/2;
 6/7=2,8=2,9=2,10=2,19=2,28=1/1;
 99/9=1/99;
 -------------------------
 Optimisation de geometrie
 -------------------------
 Symbolic Z-matrix:
 Charge =  0 Multiplicity = 1
 C                    -2.9429   -0.6554    0.8399 
 C                    -1.5545   -0.5288    0.8511 
 C                    -0.9076    0.4131    0.0333 
 C                    -1.7004    1.2249   -0.7958 
 C                    -3.0889    1.1      -0.8067 
 C                    -3.7169    0.1588    0.0109 
 C                     0.5721    0.5469    0.0432 
 C                     1.1844    1.8079   -0.0566 
 C                     2.5727    1.934    -0.0502 
 C                     3.3814    0.8011    0.0576 
 C                     2.7881   -0.4586    0.1584 
 C                     1.3997   -0.5838    0.1506 
 H                     0.9492   -1.5712    0.2018 
 H                    -3.4213   -1.3858    1.4873 
 H                    -0.9639   -1.149     1.5198 
 H                    -1.2205    1.9419   -1.4562 
 H                    -3.6805    1.7335   -1.4626 
 H                    -4.7991    0.0606    0.0024 
 H                     0.5643    2.6982   -0.114 
 H                     3.0232    2.9207   -0.1208 
 H                     4.4637    0.899     0.0629 
 H                     3.4077   -1.3484    0.2341 
 
 The following ModRedundant input section has been read:
 D       2       3       7      12 S  36 10.000                                
 

 GradGradGradGradGradGradGradGradGradGradGradGradGradGradGradGradGradGrad
 Berny optimization.
 Initialization pass.
                           ----------------------------
                           !    Initial Parameters    !
                           ! (Angstroms and Degrees)  !
 --------------------------                            --------------------------
 ! Name  Definition              Value          Derivative Info.                !
 --------------------------------------------------------------------------------
 ! R1    R(1,2)                  1.3942         estimate D2E/DX2                !
 ! R2    R(1,6)                  1.3962         estimate D2E/DX2                !
 ! R3    R(1,14)                 1.087          estimate D2E/DX2                !
 ! R4    R(2,3)                  1.4052         estimate D2E/DX2                !
 ! R5    R(2,15)                 1.0866         estimate D2E/DX2                !
 ! R6    R(3,4)                  1.4053         estimate D2E/DX2                !
 ! R7    R(3,7)                  1.4858         estimate D2E/DX2                !
 ! R8    R(4,5)                  1.3941         estimate D2E/DX2                !
 ! R9    R(4,16)                 1.0865         estimate D2E/DX2                !
 ! R10   R(5,6)                  1.396          estimate D2E/DX2                !
 ! R11   R(5,17)                 1.087          estimate D2E/DX2                !
 ! R12   R(6,18)                 1.0867         estimate D2E/DX2                !
 ! R13   R(7,8)                  1.4053         estimate D2E/DX2                !
 ! R14   R(7,12)                 1.4053         estimate D2E/DX2                !
 ! R15   R(8,9)                  1.394          estimate D2E/DX2                !
 ! R16   R(8,19)                 1.0865         estimate D2E/DX2                !
 ! R17   R(9,10)                 1.3961         estimate D2E/DX2                !
 ! R18   R(9,20)                 1.087          estimate D2E/DX2                !
 ! R19   R(10,11)                1.3961         estimate D2E/DX2                !
 ! R20   R(10,21)                1.0867         estimate D2E/DX2                !
 ! R21   R(11,12)                1.3941         estimate D2E/DX2                !
 ! R22   R(11,22)                1.0869         estimate D2E/DX2                !
 ! R23   R(12,13)                1.0865         estimate D2E/DX2                !
 ! A1    A(2,1,6)              120.2576         estimate D2E/DX2                !
 ! A2    A(2,1,14)             119.6386         estimate D2E/DX2                !
 ! A3    A(6,1,14)             120.1014         estimate D2E/DX2                !
 ! A4    A(1,2,3)              120.9743         estimate D2E/DX2                !
 ! A5    A(1,2,15)             119.6302         estimate D2E/DX2                !
 ! A6    A(3,2,15)             119.377          estimate D2E/DX2                !
 ! A7    A(2,3,4)              118.0902         estimate D2E/DX2                !
 ! A8    A(2,3,7)              120.9964         estimate D2E/DX2                !
 ! A9    A(4,3,7)              120.9135         estimate D2E/DX2                !
 ! A10   A(3,4,5)              120.9782         estimate D2E/DX2                !
 ! A11   A(3,4,16)             119.3812         estimate D2E/DX2                !
 ! A12   A(5,4,16)             119.6213         estimate D2E/DX2                !
 ! A13   A(4,5,6)              120.2564         estimate D2E/DX2                !
 ! A14   A(4,5,17)             119.6408         estimate D2E/DX2                !
 ! A15   A(6,5,17)             120.1003         estimate D2E/DX2                !
 ! A16   A(1,6,5)              119.4433         estimate D2E/DX2                !
 ! A17   A(1,6,18)             120.2677         estimate D2E/DX2                !
 ! A18   A(5,6,18)             120.289          estimate D2E/DX2                !
 ! A19   A(3,7,8)              120.947          estimate D2E/DX2                !
 ! A20   A(3,7,12)             120.9674         estimate D2E/DX2                !
 ! A21   A(8,7,12)             118.0855         estimate D2E/DX2                !
 ! A22   A(7,8,9)              120.9803         estimate D2E/DX2                !
 ! A23   A(7,8,19)             119.3636         estimate D2E/DX2                !
 ! A24   A(9,8,19)             119.6376         estimate D2E/DX2                !
 ! A25   A(8,9,10)             120.2536         estimate D2E/DX2                !
 ! A26   A(8,9,20)             119.641          estimate D2E/DX2                !
 ! A27   A(10,9,20)            120.1032         estimate D2E/DX2                !
 ! A28   A(9,10,11)            119.4468         estimate D2E/DX2                !
 ! A29   A(9,10,21)            120.2763         estimate D2E/DX2                !
 ! A30   A(11,10,21)           120.277          estimate D2E/DX2                !
 ! A31   A(10,11,12)           120.2576         estimate D2E/DX2                !
 ! A32   A(10,11,22)           120.096          estimate D2E/DX2                !
 ! A33   A(12,11,22)           119.644          estimate D2E/DX2                !
 ! A34   A(7,12,11)            120.9762         estimate D2E/DX2                !
 ! A35   A(7,12,13)            119.3806         estimate D2E/DX2                !
 ! A36   A(11,12,13)           119.6234         estimate D2E/DX2                !
 ! D1    D(6,1,2,3)             -0.0693         estimate D2E/DX2                !
 ! D2    D(6,1,2,15)           178.354          estimate D2E/DX2                !
 ! D3    D(14,1,2,3)          -179.51           estimate D2E/DX2                !
 ! D4    D(14,1,2,15)           -1.0867         estimate D2E/DX2                !
 ! D5    D(2,1,6,5)              0.0238         estimate D2E/DX2                !
 ! D6    D(2,1,6,18)          -179.9699         estimate D2E/DX2                !
 ! D7    D(14,1,6,5)           179.4619         estimate D2E/DX2                !
 ! D8    D(14,1,6,18)           -0.5318         estimate D2E/DX2                !
 ! D9    D(1,2,3,4)              0.0476         estimate D2E/DX2                !
 ! D10   D(1,2,3,7)           -179.8987         estimate D2E/DX2                !
 ! D11   D(15,2,3,4)          -178.3797         estimate D2E/DX2                !
 ! D12   D(15,2,3,7)             1.674          estimate D2E/DX2                !
 ! D13   D(2,3,4,5)              0.0186         estimate D2E/DX2                !
 ! D14   D(2,3,4,16)          -178.3776         estimate D2E/DX2                !
 ! D15   D(7,3,4,5)            179.965          estimate D2E/DX2                !
 ! D16   D(7,3,4,16)             1.5687         estimate D2E/DX2                !
 ! D17   D(2,3,7,8)           -141.903          estimate D2E/DX2                !
 ! D18   D(2,3,7,12)            38.1929         Scan                            !
 ! D19   D(4,3,7,8)             38.1522         estimate D2E/DX2                !
 ! D20   D(4,3,7,12)          -141.7519         estimate D2E/DX2                !
 ! D21   D(3,4,5,6)             -0.0636         estimate D2E/DX2                !
 ! D22   D(3,4,5,17)          -179.4961         estimate D2E/DX2                !
 ! D23   D(16,4,5,6)           178.3289         estimate D2E/DX2                !
 ! D24   D(16,4,5,17)           -1.1037         estimate D2E/DX2                !
 ! D25   D(4,5,6,1)              0.0419         estimate D2E/DX2                !
 ! D26   D(4,5,6,18)          -179.9644         estimate D2E/DX2                !
 ! D27   D(17,5,6,1)           179.4719         estimate D2E/DX2                !
 ! D28   D(17,5,6,18)           -0.5345         estimate D2E/DX2                !
 ! D29   D(3,7,8,9)           -179.8644         estimate D2E/DX2                !
 ! D30   D(3,7,8,19)             1.7063         estimate D2E/DX2                !
 ! D31   D(12,7,8,9)             0.0424         estimate D2E/DX2                !
 ! D32   D(12,7,8,19)         -178.3869         estimate D2E/DX2                !
 ! D33   D(3,7,12,11)          179.9275         estimate D2E/DX2                !
 ! D34   D(3,7,12,13)            1.5543         estimate D2E/DX2                !
 ! D35   D(8,7,12,11)            0.0207         estimate D2E/DX2                !
 ! D36   D(8,7,12,13)         -178.3524         estimate D2E/DX2                !
 ! D37   D(7,8,9,10)            -0.0647         estimate D2E/DX2                !
 ! D38   D(7,8,9,20)          -179.526          estimate D2E/DX2                !
 ! D39   D(19,8,9,10)          178.3603         estimate D2E/DX2                !
 ! D40   D(19,8,9,20)           -1.101          estimate D2E/DX2                !
 ! D41   D(8,9,10,11)            0.023          estimate D2E/DX2                !
 ! D42   D(8,9,10,21)         -179.9832         estimate D2E/DX2                !
 ! D43   D(20,9,10,11)         179.4818         estimate D2E/DX2                !
 ! D44   D(20,9,10,21)          -0.5244         estimate D2E/DX2                !
 ! D45   D(9,10,11,12)           0.0396         estimate D2E/DX2                !
 ! D46   D(9,10,11,22)         179.4677         estimate D2E/DX2                !
 ! D47   D(21,10,11,12)       -179.9541         estimate D2E/DX2                !
 ! D48   D(21,10,11,22)         -0.5261         estimate D2E/DX2                !
 ! D49   D(10,11,12,7)          -0.0619         estimate D2E/DX2                !
 ! D50   D(10,11,12,13)        178.3073         estimate D2E/DX2                !
 ! D51   D(22,11,12,7)        -179.4926         estimate D2E/DX2                !
 ! D52   D(22,11,12,13)         -1.1234         estimate D2E/DX2                !
 --------------------------------------------------------------------------------
 Trust Radius=3.00D-01 FncErr=1.00D-07 GrdErr=1.00D-07
 Number of optimizations in scan=  37
 Number of steps in this run=    121 maximum allowed number of steps=    132.
 GradGradGradGradGradGradGradGradGradGradGradGradGradGradGradGradGradGrad

                          Input orientation:                          
 ---------------------------------------------------------------------
 Center     Atomic      Atomic             Coordinates (Angstroms)
 Number     Number       Type             X           Y           Z
 ---------------------------------------------------------------------
      1          6           0       -2.942900   -0.655400    0.839900
      2          6           0       -1.554500   -0.528800    0.851100
      3          6           0       -0.907600    0.413100    0.033300
      4          6           0       -1.700400    1.224900   -0.795800
      5          6           0       -3.088900    1.100000   -0.806700
      6          6           0       -3.716900    0.158800    0.010900
      7          6           0        0.572100    0.546900    0.043200
      8          6           0        1.184400    1.807900   -0.056600
      9          6           0        2.572700    1.934000   -0.050200
     10          6           0        3.381400    0.801100    0.057600
     11          6           0        2.788100   -0.458600    0.158400
     12          6           0        1.399700   -0.583800    0.150600
     13          1           0        0.949200   -1.571200    0.201800
     14          1           0       -3.421300   -1.385800    1.487300
     15          1           0       -0.963900   -1.149000    1.519800
     16          1           0       -1.220500    1.941900   -1.456200
     17          1           0       -3.680500    1.733500   -1.462600
     18          1           0       -4.799100    0.060600    0.002400
     19          1           0        0.564300    2.698200   -0.114000
     20          1           0        3.023200    2.920700   -0.120800
     21          1           0        4.463700    0.899000    0.062900
     22          1           0        3.407700   -1.348400    0.234100
 ---------------------------------------------------------------------
                    Distance matrix (angstroms):
                    1          2          3          4          5
     1  C    0.000000
     2  C    1.394205   0.000000
     3  C    2.436133   1.405152   0.000000
     4  C    2.784753   2.410193   1.405332   0.000000
     5  C    2.411231   2.784901   2.436288   1.394149   0.000000
     6  C    1.396151   2.419649   2.820875   2.419423   1.395962
     7  C    3.799405   2.516398   1.485770   2.515524   3.798838
     8  C    4.889393   3.712904   2.515952   3.034531   4.396006
     9  C    6.157850   4.889939   3.799026   4.395239   5.772483
    10  C    6.536831   5.173141   4.306583   5.170357   6.534611
    11  C    5.774732   4.398060   3.799172   4.887873   6.156280
    12  C    4.397549   3.036614   2.516188   3.711831   4.888674
    13  H    4.048988   2.788674   2.722783   3.979166   4.945567
    14  H    1.086958   2.150382   3.415969   3.871666   3.398842
    15  H    2.149964   1.086562   2.157083   3.397034   3.871205
    16  H    3.871008   3.396991   2.157254   1.086518   2.149782
    17  H    3.398883   3.871832   3.416160   2.150370   1.086976
    18  H    2.158597   3.405160   3.907555   3.405093   2.158652
    19  H    4.945403   3.979229   2.722107   2.786455   4.047215
    20  H    7.021808   5.813689   4.665082   5.063967   6.414294
    21  H    7.607734   6.235271   5.393314   6.232151   7.605154
    22  H    6.416959   5.067135   4.665299   5.811648   7.020238
                    6          7          8          9         10
     6  C    0.000000
     7  C    4.306644   0.000000
     8  C    5.171734   1.405344   0.000000
     9  C    6.535605   2.436221   1.394030   0.000000
    10  C    7.127453   2.820814   2.419400   1.396094   0.000000
    11  C    6.535898   2.436177   2.784798   2.411316   1.396069
    12  C    5.172095   1.405325   2.410294   2.784882   2.419449
    13  H    4.980144   2.157245   3.397117   3.871135   3.400617
    14  H    2.157064   4.665619   5.813417   7.022323   7.287201
    15  H    3.400901   2.723182   3.980388   4.947457   4.982223
    16  H    3.400565   2.721698   2.785746   4.045400   4.976997
    17  H    2.156898   4.664768   5.064546   6.413859   7.283599
    18  H    1.086679   5.393324   6.233684   7.606302   8.214132
    19  H    4.979239   2.157050   1.086486   2.149824   3.400660
    20  H    7.285217   3.416096   2.150263   1.086974   2.157044
    21  H    8.214184   3.907546   3.405024   2.158680   1.086732
    22  H    7.285698   3.416026   3.871666   3.398853   2.156895
                   11         12         13         14         15
    11  C    0.000000
    12  C    1.394055   0.000000
    13  H    2.149725   1.086522   0.000000
    14  H    6.417346   5.066756   4.559403   0.000000
    15  H    4.050625   2.789402   2.361213   2.468997   0.000000
    16  H    4.943502   3.978243   4.449543   4.957953   4.298381
    17  H    7.019667   5.812119   5.926668   4.301061   4.958168
    18  H    7.606544   6.233966   5.978753   2.489043   4.298185
    19  H    3.871030   3.396974   4.298332   5.926907   4.450353
    20  H    3.398955   3.871812   4.958096   7.916029   5.928827
    21  H    2.158665   3.405067   4.298010   8.332014   5.981279
    22  H    1.086912   2.150267   2.468786   6.943137   4.561104
                   16         17         18         19         20
    16  H    0.000000
    17  H    2.468820   0.000000
    18  H    4.298044   2.489194   0.000000
    19  H    2.357754   4.557159   5.978005   0.000000
    20  H    4.555253   6.938982   8.329690   2.468956   0.000000
    21  H    5.975402   8.327757   9.300862   4.298108   2.489188
    22  H    5.924814   7.913247   8.330098   4.957930   4.301047
                   21         22
    21  H    0.000000
    22  H    2.489026   0.000000
 Stoichiometry    C12H10
 Framework group  C1[X(C12H10)]
 Deg. of freedom    60
 Full point group                 C1      NOp   1
 Largest Abelian subgroup         C1      NOp   1
 Largest concise Abelian subgroup C1      NOp   1
                         Standard orientation:                         
 ---------------------------------------------------------------------
 Center     Atomic      Atomic             Coordinates (Angstroms)
 Number     Number       Type             X           Y           Z
 ---------------------------------------------------------------------
      1          6           0        2.860973    1.138964    0.392702
      2          6           0        1.466770    1.139032    0.395032
      3          6           0        0.742890    0.000698    0.001784
      4          6           0        1.464620   -1.138652   -0.393117
      5          6           0        2.858767   -1.140154   -0.394480
      6          6           0        3.563762   -0.001030   -0.001936
      7          6           0       -0.742880    0.000966    0.001951
      8          6           0       -1.465733   -1.138266    0.395178
      9          6           0       -2.859760   -1.139704    0.392925
     10          6           0       -3.563691   -0.000472   -0.001677
     11          6           0       -2.859884    1.139498   -0.394275
     12          6           0       -1.465829    1.139540   -0.392932
     13          1           0       -0.928469    2.022932   -0.726687
     14          1           0        3.399076    2.028929    0.708746
     15          1           0        0.930176    2.022632    0.729599
     16          1           0        0.926315   -2.021596   -0.726523
     17          1           0        3.395075   -2.030725   -0.711928
     18          1           0        4.650441   -0.001426   -0.003348
     19          1           0       -0.928081   -2.021194    0.729574
     20          1           0       -3.396931   -2.030355    0.708677
     21          1           0       -4.650421   -0.001097   -0.003314
     22          1           0       -3.397202    2.029380   -0.711731
 ---------------------------------------------------------------------
 Rotational constants (GHZ):      2.8593405      0.5455315      0.4745243
 Standard basis: VSTO-6G (5D, 7F)
 There are    58 symmetry adapted cartesian basis functions of A   symmetry.
 There are    58 symmetry adapted basis functions of A   symmetry.
    58 basis functions,   348 primitive gaussians,    58 cartesian basis functions
    29 alpha electrons       29 beta electrons
       nuclear repulsion energy       325.7248812375 Hartrees.
 Integral buffers will be    131072 words long.
 Regular integral format.
 Two-electron integral symmetry is turned off.
 Do NDO integrals.
 One-electron integrals computed using PRISM.
 NBasis=    58 RedAO= F EigKep=  0.00D+00  NBF=    58
 NBsUse=    58 1.00D-04 EigRej=  0.00D+00 NBFU=    58
 Simple Huckel Guess.
 Overlap will be assumed to be unity.
 Keep J ints in memory in canonical form, NReq=912245.
 Requested convergence on RMS density matrix=1.00D-08 within 128 cycles.
 Requested convergence on MAX density matrix=1.00D-06.
 Requested convergence on             energy=1.00D-06.
 No special actions if energy rises.
 SCF Done:  E(RAM1) =  0.778244748755E-01 A.U. after   13 cycles
            NFock= 12  Conv=0.72D-08     -V/T= 1.0020

 **********************************************************************

            Population analysis using the SCF density.

 **********************************************************************

 Orbital symmetries:
       Occupied  (A) (A) (A) (A) (A) (A) (A) (A) (A) (A) (A) (A)
                 (A) (A) (A) (A) (A) (A) (A) (A) (A) (A) (A) (A)
                 (A) (A) (A) (A) (A)
       Virtual   (A) (A) (A) (A) (A) (A) (A) (A) (A) (A) (A) (A)
                 (A) (A) (A) (A) (A) (A) (A) (A) (A) (A) (A) (A)
                 (A) (A) (A) (A) (A)
 The electronic state is 1-A.
 Alpha  occ. eigenvalues --   -1.47427  -1.41891  -1.22723  -1.17028  -1.14630
 Alpha  occ. eigenvalues --   -1.08871  -0.89323  -0.87882  -0.82586  -0.79750
 Alpha  occ. eigenvalues --   -0.67389  -0.62672  -0.61300  -0.58795  -0.56267
 Alpha  occ. eigenvalues --   -0.55633  -0.52790  -0.52380  -0.51925  -0.50214
 Alpha  occ. eigenvalues --   -0.48170  -0.46305  -0.44649  -0.43616  -0.43080
 Alpha  occ. eigenvalues --   -0.37839  -0.35753  -0.35676  -0.32967
 Alpha virt. eigenvalues --   -0.00334   0.01840   0.01903   0.03273   0.10047
 Alpha virt. eigenvalues --    0.11198   0.13260   0.14369   0.14837   0.14943
 Alpha virt. eigenvalues --    0.15121   0.15249   0.15470   0.16402   0.16499
 Alpha virt. eigenvalues --    0.16521   0.17144   0.18002   0.18572   0.18817
 Alpha virt. eigenvalues --    0.18880   0.19950   0.20165   0.20545   0.20626
 Alpha virt. eigenvalues --    0.20660   0.21308   0.22188   0.22408
          Condensed to atoms (all electrons):
               1          2          3          4          5          6
     1  C    4.129798   0.000000   0.000000   0.000000   0.000000   0.000000
     2  C    0.000000   4.118495   0.000000   0.000000   0.000000   0.000000
     3  C    0.000000   0.000000   4.034891   0.000000   0.000000   0.000000
     4  C    0.000000   0.000000   0.000000   4.118576   0.000000   0.000000
     5  C    0.000000   0.000000   0.000000   0.000000   4.129781   0.000000
     6  C    0.000000   0.000000   0.000000   0.000000   0.000000   4.126274
     7  C    0.000000   0.000000   0.000000   0.000000   0.000000   0.000000
     8  C    0.000000   0.000000   0.000000   0.000000   0.000000   0.000000
     9  C    0.000000   0.000000   0.000000   0.000000   0.000000   0.000000
    10  C    0.000000   0.000000   0.000000   0.000000   0.000000   0.000000
    11  C    0.000000   0.000000   0.000000   0.000000   0.000000   0.000000
    12  C    0.000000   0.000000   0.000000   0.000000   0.000000   0.000000
    13  H    0.000000   0.000000   0.000000   0.000000   0.000000   0.000000
    14  H    0.000000   0.000000   0.000000   0.000000   0.000000   0.000000
    15  H    0.000000   0.000000   0.000000   0.000000   0.000000   0.000000
    16  H    0.000000   0.000000   0.000000   0.000000   0.000000   0.000000
    17  H    0.000000   0.000000   0.000000   0.000000   0.000000   0.000000
    18  H    0.000000   0.000000   0.000000   0.000000   0.000000   0.000000
    19  H    0.000000   0.000000   0.000000   0.000000   0.000000   0.000000
    20  H    0.000000   0.000000   0.000000   0.000000   0.000000   0.000000
    21  H    0.000000   0.000000   0.000000   0.000000   0.000000   0.000000
    22  H    0.000000   0.000000   0.000000   0.000000   0.000000   0.000000
               7          8          9         10         11         12
     1  C    0.000000   0.000000   0.000000   0.000000   0.000000   0.000000
     2  C    0.000000   0.000000   0.000000   0.000000   0.000000   0.000000
     3  C    0.000000   0.000000   0.000000   0.000000   0.000000   0.000000
     4  C    0.000000   0.000000   0.000000   0.000000   0.000000   0.000000
     5  C    0.000000   0.000000   0.000000   0.000000   0.000000   0.000000
     6  C    0.000000   0.000000   0.000000   0.000000   0.000000   0.000000
     7  C    4.034925   0.000000   0.000000   0.000000   0.000000   0.000000
     8  C    0.000000   4.118557   0.000000   0.000000   0.000000   0.000000
     9  C    0.000000   0.000000   4.129772   0.000000   0.000000   0.000000
    10  C    0.000000   0.000000   0.000000   4.126284   0.000000   0.000000
    11  C    0.000000   0.000000   0.000000   0.000000   4.129781   0.000000
    12  C    0.000000   0.000000   0.000000   0.000000   0.000000   4.118503
    13  H    0.000000   0.000000   0.000000   0.000000   0.000000   0.000000
    14  H    0.000000   0.000000   0.000000   0.000000   0.000000   0.000000
    15  H    0.000000   0.000000   0.000000   0.000000   0.000000   0.000000
    16  H    0.000000   0.000000   0.000000   0.000000   0.000000   0.000000
    17  H    0.000000   0.000000   0.000000   0.000000   0.000000   0.000000
    18  H    0.000000   0.000000   0.000000   0.000000   0.000000   0.000000
    19  H    0.000000   0.000000   0.000000   0.000000   0.000000   0.000000
    20  H    0.000000   0.000000   0.000000   0.000000   0.000000   0.000000
    21  H    0.000000   0.000000   0.000000   0.000000   0.000000   0.000000
    22  H    0.000000   0.000000   0.000000   0.000000   0.000000   0.000000
              13         14         15         16         17         18
     1  C    0.000000   0.000000   0.000000   0.000000   0.000000   0.000000
     2  C    0.000000   0.000000   0.000000   0.000000   0.000000   0.000000
     3  C    0.000000   0.000000   0.000000   0.000000   0.000000   0.000000
     4  C    0.000000   0.000000   0.000000   0.000000   0.000000   0.000000
     5  C    0.000000   0.000000   0.000000   0.000000   0.000000   0.000000
     6  C    0.000000   0.000000   0.000000   0.000000   0.000000   0.000000
     7  C    0.000000   0.000000   0.000000   0.000000   0.000000   0.000000
     8  C    0.000000   0.000000   0.000000   0.000000   0.000000   0.000000
     9  C    0.000000   0.000000   0.000000   0.000000   0.000000   0.000000
    10  C    0.000000   0.000000   0.000000   0.000000   0.000000   0.000000
    11  C    0.000000   0.000000   0.000000   0.000000   0.000000   0.000000
    12  C    0.000000   0.000000   0.000000   0.000000   0.000000   0.000000
    13  H    0.867909   0.000000   0.000000   0.000000   0.000000   0.000000
    14  H    0.000000   0.868817   0.000000   0.000000   0.000000   0.000000
    15  H    0.000000   0.000000   0.867897   0.000000   0.000000   0.000000
    16  H    0.000000   0.000000   0.000000   0.867896   0.000000   0.000000
    17  H    0.000000   0.000000   0.000000   0.000000   0.868823   0.000000
    18  H    0.000000   0.000000   0.000000   0.000000   0.000000   0.868737
    19  H    0.000000   0.000000   0.000000   0.000000   0.000000   0.000000
    20  H    0.000000   0.000000   0.000000   0.000000   0.000000   0.000000
    21  H    0.000000   0.000000   0.000000   0.000000   0.000000   0.000000
    22  H    0.000000   0.000000   0.000000   0.000000   0.000000   0.000000
              19         20         21         22
     1  C    0.000000   0.000000   0.000000   0.000000
     2  C    0.000000   0.000000   0.000000   0.000000
     3  C    0.000000   0.000000   0.000000   0.000000
     4  C    0.000000   0.000000   0.000000   0.000000
     5  C    0.000000   0.000000   0.000000   0.000000
     6  C    0.000000   0.000000   0.000000   0.000000
     7  C    0.000000   0.000000   0.000000   0.000000
     8  C    0.000000   0.000000   0.000000   0.000000
     9  C    0.000000   0.000000   0.000000   0.000000
    10  C    0.000000   0.000000   0.000000   0.000000
    11  C    0.000000   0.000000   0.000000   0.000000
    12  C    0.000000   0.000000   0.000000   0.000000
    13  H    0.000000   0.000000   0.000000   0.000000
    14  H    0.000000   0.000000   0.000000   0.000000
    15  H    0.000000   0.000000   0.000000   0.000000
    16  H    0.000000   0.000000   0.000000   0.000000
    17  H    0.000000   0.000000   0.000000   0.000000
    18  H    0.000000   0.000000   0.000000   0.000000
    19  H    0.867908   0.000000   0.000000   0.000000
    20  H    0.000000   0.868814   0.000000   0.000000
    21  H    0.000000   0.000000   0.868740   0.000000
    22  H    0.000000   0.000000   0.000000   0.868824
 Mulliken charges:
               1
     1  C   -0.129798
     2  C   -0.118495
     3  C   -0.034891
     4  C   -0.118576
     5  C   -0.129781
     6  C   -0.126274
     7  C   -0.034925
     8  C   -0.118557
     9  C   -0.129772
    10  C   -0.126284
    11  C   -0.129781
    12  C   -0.118503
    13  H    0.132091
    14  H    0.131183
    15  H    0.132103
    16  H    0.132104
    17  H    0.131177
    18  H    0.131263
    19  H    0.132092
    20  H    0.131186
    21  H    0.131260
    22  H    0.131176
 Sum of Mulliken charges =  -0.00000
 Mulliken charges with hydrogens summed into heavy atoms:
               1
     1  C    0.001386
     2  C    0.013608
     3  C   -0.034891
     4  C    0.013528
     5  C    0.001396
     6  C    0.004989
     7  C   -0.034925
     8  C    0.013536
     9  C    0.001414
    10  C    0.004976
    11  C    0.001395
    12  C    0.013588
 Charge=              0.0000 electrons
 Dipole moment (field-independent basis, Debye):
    X=              0.0001    Y=             -0.0006    Z=             -0.0030  Tot=              0.0031
 N-N= 3.257248812375D+02 E-N=-5.724380270380D+02  KE=-3.826547262154D+01
 Calling FoFJK, ICntrl=      2127 FMM=F ISym2X=0 I1Cent= 0 IOpClX= 0 NMat=1 NMatS=1 NMatT=0.
 ***** Axes restored to original set *****
 -------------------------------------------------------------------
 Center     Atomic                   Forces (Hartrees/Bohr)
 Number     Number              X              Y              Z
 -------------------------------------------------------------------
      1        6           0.004245553    0.007552653   -0.005913765
      2        6           0.000399736    0.007543029   -0.005086014
      3        6           0.012074138    0.001183879   -0.000052214
      4        6           0.001696233   -0.007448108    0.005161334
      5        6           0.005452324   -0.006560656    0.005900553
      6        6           0.010499577    0.000822555    0.000227965
      7        6          -0.011966747   -0.001119860   -0.000125840
      8        6          -0.000433731   -0.009023833    0.002183554
      9        6          -0.003893870   -0.009554780    0.001283418
     10        6          -0.010445627   -0.000925144   -0.000043534
     11        6          -0.005551198    0.008729036   -0.001324473
     12        6          -0.002036540    0.008781570   -0.002203787
     13        1          -0.004276652   -0.009050417    0.001474328
     14        1          -0.004107503   -0.006259618    0.005118162
     15        1           0.005587932   -0.006380904    0.005455480
     16        1           0.004459116    0.007308742   -0.005389322
     17        1          -0.005076534    0.005429795   -0.005191040
     18        1          -0.008754226   -0.000787837   -0.000080020
     19        1          -0.005803177    0.008182562   -0.001502509
     20        1           0.003904924    0.008133870   -0.000878567
     21        1           0.008716527    0.000789012    0.000045976
     22        1           0.005309746   -0.007345546    0.000940314
 -------------------------------------------------------------------
 Cartesian Forces:  Max     0.012074138 RMS     0.005747675

 GradGradGradGradGradGradGradGradGradGradGradGradGradGradGradGradGradGrad
 Berny optimization.
 FormGI is forming the generalized inverse of G from B-inverse, IUseBI=4.
 Internal  Forces:  Max     0.026585633 RMS     0.004135306
 Search for a local minimum.
 Step number   1 out of a maximum of  121 on scan point     1 out of    37
 All quantities printed in internal units (Hartrees-Bohrs-Radians)
 Mixed Optimization -- RFO/linear search
 Second derivative matrix not updated -- first step.
 ITU=  0
     Eigenvalues ---    0.01403   0.01688   0.02036   0.02037   0.02086
     Eigenvalues ---    0.02086   0.02099   0.02099   0.02131   0.02132
     Eigenvalues ---    0.02141   0.02141   0.02148   0.02148   0.02154
     Eigenvalues ---    0.02155   0.02156   0.02156   0.15994   0.15994
     Eigenvalues ---    0.15995   0.15995   0.15999   0.15999   0.15999
     Eigenvalues ---    0.15999   0.16000   0.16000   0.22000   0.22000
     Eigenvalues ---    0.22000   0.22000   0.23469   0.23469   0.25000
     Eigenvalues ---    0.25000   0.33917   0.35164   0.35165   0.35167
     Eigenvalues ---    0.35172   0.35193   0.35199   0.35213   0.35218
     Eigenvalues ---    0.35218   0.35222   0.41504   0.41514   0.41752
     Eigenvalues ---    0.41757   0.45173   0.45178   0.45627   0.45635
     Eigenvalues ---    0.46351   0.46354   0.46599   0.466221000.00000
     Eigenvalues --- 1000.000001000.000001000.000001000.000001000.00000
     Eigenvalues --- 1000.000001000.000001000.000001000.000001000.00000
     Eigenvalues --- 1000.000001000.000001000.000001000.000001000.00000
     Eigenvalues --- 1000.000001000.000001000.000001000.000001000.00000
     Eigenvalues --- 1000.000001000.000001000.000001000.000001000.00000
     Eigenvalues --- 1000.000001000.000001000.000001000.000001000.00000
     Eigenvalues --- 1000.000001000.000001000.000001000.000001000.00000
     Eigenvalues --- 1000.000001000.000001000.000001000.000001000.00000
     Eigenvalues --- 1000.000001000.000001000.000001000.000001000.00000
     Eigenvalues --- 1000.000001000.000001000.000001000.000001000.00000
     Eigenvalues --- 1000.00000
 RFO step:  Lambda=-5.68944969D-03 EMin= 1.40267354D-02
 Linear search not attempted -- first point.
 Iteration  1 RMS(Cart)=  0.03405584 RMS(Int)=  0.00011584
 Iteration  2 RMS(Cart)=  0.00014954 RMS(Int)=  0.00002776
 Iteration  3 RMS(Cart)=  0.00000002 RMS(Int)=  0.00002776
 Iteration  1 RMS(Cart)=  0.00000225 RMS(Int)=  0.00000102
 Iteration  2 RMS(Cart)=  0.00000134 RMS(Int)=  0.00000113
 Iteration  3 RMS(Cart)=  0.00000079 RMS(Int)=  0.00000129
 Variable       Old X    -DE/DX   Delta X   Delta X   Delta X     New X
                                 (Linear)    (Quad)   (Total)
    R1        2.63467  -0.00117   0.00000  -0.00248  -0.00248   2.63219
    R2        2.63834  -0.00053   0.00000  -0.00089  -0.00092   2.63743
    R3        2.05405   0.00906   0.00000   0.02536   0.02536   2.07941
    R4        2.65535  -0.00512   0.00000  -0.01155  -0.01152   2.64383
    R5        2.05330   0.01004   0.00000   0.02805   0.02805   2.08135
    R6        2.65569  -0.00521   0.00000  -0.01176  -0.01173   2.64396
    R7        2.80770  -0.02659   0.00000  -0.07709  -0.07709   2.73061
    R8        2.63456  -0.00110   0.00000  -0.00233  -0.00233   2.63223
    R9        2.05322   0.01007   0.00000   0.02813   0.02813   2.08136
   R10        2.63799  -0.00033   0.00000  -0.00045  -0.00047   2.63751
   R11        2.05409   0.00906   0.00000   0.02535   0.02535   2.07944
   R12        2.05353   0.00879   0.00000   0.02457   0.02457   2.07810
   R13        2.65572  -0.00524   0.00000  -0.01182  -0.01179   2.64392
   R14        2.65568  -0.00528   0.00000  -0.01191  -0.01188   2.64380
   R15        2.63433  -0.00098   0.00000  -0.00208  -0.00208   2.63226
   R16        2.05316   0.01010   0.00000   0.02821   0.02821   2.08137
   R17        2.63824  -0.00046   0.00000  -0.00073  -0.00076   2.63747
   R18        2.05408   0.00906   0.00000   0.02535   0.02535   2.07943
   R19        2.63819  -0.00045   0.00000  -0.00070  -0.00073   2.63746
   R20        2.05363   0.00875   0.00000   0.02447   0.02447   2.07810
   R21        2.63438  -0.00099   0.00000  -0.00209  -0.00209   2.63229
   R22        2.05397   0.00911   0.00000   0.02548   0.02548   2.07944
   R23        2.05323   0.01007   0.00000   0.02813   0.02813   2.08136
    A1        2.09889  -0.00055   0.00000  -0.00140  -0.00142   2.09747
    A2        2.08809   0.00043   0.00000   0.00169   0.00168   2.08977
    A3        2.09617   0.00012   0.00000  -0.00022  -0.00022   2.09594
    A4        2.11140  -0.00307   0.00000  -0.01355  -0.01355   2.09784
    A5        2.08794   0.00160   0.00000   0.00738   0.00731   2.09525
    A6        2.08352   0.00148   0.00000   0.00662   0.00654   2.09006
    A7        2.06106   0.00640   0.00000   0.02450   0.02458   2.08564
    A8        2.11178  -0.00333   0.00000  -0.01277  -0.01281   2.09898
    A9        2.11034  -0.00307   0.00000  -0.01173  -0.01177   2.09856
   A10        2.11147  -0.00312   0.00000  -0.01372  -0.01372   2.09775
   A11        2.08360   0.00149   0.00000   0.00663   0.00655   2.09015
   A12        2.08779   0.00164   0.00000   0.00755   0.00747   2.09526
   A13        2.09887  -0.00055   0.00000  -0.00135  -0.00137   2.09750
   A14        2.08813   0.00043   0.00000   0.00162   0.00161   2.08974
   A15        2.09615   0.00013   0.00000  -0.00019  -0.00020   2.09595
   A16        2.08468   0.00089   0.00000   0.00551   0.00548   2.09016
   A17        2.09907  -0.00043   0.00000  -0.00268  -0.00266   2.09641
   A18        2.09944  -0.00046   0.00000  -0.00283  -0.00281   2.09662
   A19        2.11092  -0.00315   0.00000  -0.01204  -0.01208   2.09885
   A20        2.11128  -0.00327   0.00000  -0.01251  -0.01255   2.09873
   A21        2.06098   0.00641   0.00000   0.02455   0.02463   2.08561
   A22        2.11150  -0.00310   0.00000  -0.01369  -0.01368   2.09782
   A23        2.08329   0.00151   0.00000   0.00678   0.00670   2.08999
   A24        2.08807   0.00160   0.00000   0.00735   0.00727   2.09534
   A25        2.09882  -0.00054   0.00000  -0.00130  -0.00133   2.09750
   A26        2.08813   0.00043   0.00000   0.00167   0.00167   2.08980
   A27        2.09620   0.00011   0.00000  -0.00030  -0.00030   2.09589
   A28        2.08474   0.00086   0.00000   0.00541   0.00537   2.09011
   A29        2.09922  -0.00043   0.00000  -0.00271  -0.00269   2.09653
   A30        2.09923  -0.00043   0.00000  -0.00271  -0.00269   2.09654
   A31        2.09889  -0.00055   0.00000  -0.00137  -0.00139   2.09750
   A32        2.09607   0.00013   0.00000  -0.00018  -0.00019   2.09588
   A33        2.08818   0.00043   0.00000   0.00163   0.00163   2.08981
   A34        2.11143  -0.00308   0.00000  -0.01360  -0.01360   2.09783
   A35        2.08358   0.00146   0.00000   0.00652   0.00643   2.09002
   A36        2.08782   0.00163   0.00000   0.00757   0.00749   2.09531
    D1       -0.00121  -0.00002   0.00000  -0.00127  -0.00127  -0.00248
    D2        3.11286   0.00048   0.00000   0.01786   0.01787   3.13073
    D3       -3.13304  -0.00026   0.00000  -0.01024  -0.01024   3.13990
    D4       -0.01897   0.00023   0.00000   0.00889   0.00889  -0.01007
    D5        0.00042   0.00002   0.00000   0.00046   0.00047   0.00088
    D6       -3.14107   0.00001   0.00000   0.00055   0.00055  -3.14052
    D7        3.13220   0.00026   0.00000   0.00948   0.00948  -3.14150
    D8       -0.00928   0.00026   0.00000   0.00957   0.00957   0.00029
    D9        0.00083   0.00001   0.00000   0.00105   0.00106   0.00189
   D10       -3.13982  -0.00001   0.00000  -0.00116  -0.00117  -3.14099
   D11       -3.11331  -0.00049   0.00000  -0.01805  -0.01803  -3.13134
   D12        0.02922  -0.00051   0.00000  -0.02025  -0.02026   0.00896
   D13        0.00033   0.00002   0.00000  -0.00003  -0.00004   0.00028
   D14       -3.11328  -0.00050   0.00000  -0.01960  -0.01961  -3.13289
   D15        3.14098   0.00003   0.00000   0.00217   0.00218  -3.14002
   D16        0.02738  -0.00049   0.00000  -0.01740  -0.01738   0.01000
   D17       -2.47667  -0.00004   0.00000   0.00008   0.00007  -2.47660
   D18        0.66659  -0.00009   0.00000   0.00000  -0.00000   0.66659
   D19        0.66588  -0.00006   0.00000  -0.00221  -0.00219   0.66369
   D20       -2.47404  -0.00010   0.00000  -0.00229  -0.00227  -2.47631
   D21       -0.00111  -0.00002   0.00000  -0.00076  -0.00076  -0.00187
   D22       -3.13280  -0.00027   0.00000  -0.01012  -0.01012   3.14027
   D23        3.11243   0.00049   0.00000   0.01884   0.01884   3.13127
   D24       -0.01926   0.00024   0.00000   0.00948   0.00949  -0.00978
   D25        0.00073   0.00001   0.00000   0.00056   0.00056   0.00129
   D26       -3.14097   0.00001   0.00000   0.00047   0.00048  -3.14050
   D27        3.13238   0.00026   0.00000   0.00996   0.00996  -3.14085
   D28       -0.00933   0.00026   0.00000   0.00988   0.00988   0.00055
   D29       -3.13923  -0.00002   0.00000  -0.00008  -0.00007  -3.13930
   D30        0.02978  -0.00052   0.00000  -0.01882  -0.01881   0.01097
   D31        0.00074   0.00001   0.00000  -0.00003  -0.00003   0.00071
   D32       -3.11344  -0.00048   0.00000  -0.01877  -0.01877  -3.13221
   D33        3.14033   0.00005   0.00000   0.00123   0.00122   3.14155
   D34        0.02713  -0.00048   0.00000  -0.01907  -0.01906   0.00807
   D35        0.00036   0.00001   0.00000   0.00118   0.00118   0.00154
   D36       -3.11284  -0.00052   0.00000  -0.01911  -0.01910  -3.13194
   D37       -0.00113  -0.00003   0.00000  -0.00091  -0.00091  -0.00204
   D38       -3.13332  -0.00026   0.00000  -0.00964  -0.00965   3.14022
   D39        3.11297   0.00047   0.00000   0.01787   0.01787   3.13085
   D40       -0.01922   0.00024   0.00000   0.00914   0.00914  -0.01008
   D41        0.00040   0.00002   0.00000   0.00072   0.00072   0.00112
   D42       -3.14130   0.00002   0.00000   0.00077   0.00077  -3.14053
   D43        3.13255   0.00025   0.00000   0.00950   0.00950  -3.14114
   D44       -0.00915   0.00026   0.00000   0.00955   0.00955   0.00039
   D45        0.00069   0.00001   0.00000   0.00043   0.00044   0.00113
   D46        3.13230   0.00027   0.00000   0.00976   0.00976  -3.14112
   D47       -3.14079   0.00001   0.00000   0.00038   0.00039  -3.14040
   D48       -0.00918   0.00026   0.00000   0.00971   0.00971   0.00053
   D49       -0.00108  -0.00003   0.00000  -0.00139  -0.00139  -0.00247
   D50        3.11205   0.00050   0.00000   0.01893   0.01894   3.13099
   D51       -3.13274  -0.00028   0.00000  -0.01066  -0.01066   3.13978
   D52       -0.01961   0.00025   0.00000   0.00966   0.00966  -0.00994
         Item               Value     Threshold  Converged?
 Maximum Force            0.026586     0.000450     NO 
 RMS     Force            0.004154     0.000300     NO 
 Maximum Displacement     0.102480     0.001800     NO 
 RMS     Displacement     0.034084     0.001200     NO 
 Predicted change in Energy=-2.907918D-03
 GradGradGradGradGradGradGradGradGradGradGradGradGradGradGradGradGradGrad

                          Input orientation:                          
 ---------------------------------------------------------------------
 Center     Atomic      Atomic             Coordinates (Angstroms)
 Number     Number       Type             X           Y           Z
 ---------------------------------------------------------------------
      1          6           0       -2.902763   -0.653703    0.840583
      2          6           0       -1.515554   -0.528519    0.852121
      3          6           0       -0.887222    0.414303    0.031363
      4          6           0       -1.662895    1.231092   -0.798538
      5          6           0       -3.050133    1.105710   -0.806314
      6          6           0       -3.673989    0.162917    0.012194
      7          6           0        0.551807    0.544849    0.041669
      8          6           0        1.145824    1.807599   -0.058796
      9          6           0        2.533188    1.931786   -0.051487
     10          6           0        3.338569    0.797237    0.058572
     11          6           0        2.748828   -0.463652    0.160042
     12          6           0        1.361723   -0.590735    0.150265
     13          1           0        0.898660   -1.587608    0.220391
     14          1           0       -3.388914   -1.398880    1.488039
     15          1           0       -0.909670   -1.166983    1.514210
     16          1           0       -1.172150    1.969082   -1.452477
     17          1           0       -3.652938    1.752858   -1.461060
     18          1           0       -4.769182    0.063926    0.004632
     19          1           0        0.512062    2.705135   -0.135537
     20          1           0        2.992389    2.928516   -0.132231
     21          1           0        4.433749    0.896423    0.065257
     22          1           0        3.378612   -1.361755    0.247503
 ---------------------------------------------------------------------
                    Distance matrix (angstroms):
                    1          2          3          4          5
     1  C    0.000000
     2  C    1.392893   0.000000
     3  C    2.420305   1.399056   0.000000
     4  C    2.788627   2.417150   1.399124   0.000000
     5  C    2.414441   2.788556   2.420316   1.392915   0.000000
     6  C    1.395667   2.417106   2.798148   2.417185   1.395712
     7  C    3.742839   2.466361   1.444975   2.466127   3.742675
     8  C    4.822649   3.656522   2.466309   2.961162   4.319432
     9  C    6.085236   4.823061   3.742836   4.319278   5.694351
    10  C    6.455308   5.094101   4.243194   5.092888   6.454356
    11  C    5.695588   4.320663   3.742756   4.822274   6.084791
    12  C    4.320456   2.962295   2.466169   3.656172   4.822597
    13  H    3.963285   2.710937   2.689378   3.942696   4.888870
    14  H    1.100378   2.161342   3.415846   3.889001   3.413473
    15  H    2.165559   1.101405   2.167903   3.415686   3.889929
    16  H    3.890005   3.415714   2.168017   1.101406   2.165585
    17  H    3.413482   3.888945   3.415880   2.161353   1.100393
    18  H    2.167332   3.413989   3.897832   3.414144   2.167505
    19  H    4.888315   3.942488   2.689565   2.709762   3.961986
    20  H    6.966453   5.765552   4.625950   4.999688   6.347368
    21  H    7.538464   6.167968   5.342876   6.166621   7.537369
    22  H    6.348917   5.001270   4.625845   5.764881   6.966181
                    6          7          8          9         10
     6  C    0.000000
     7  C    4.243123   0.000000
     8  C    5.093193   1.399103   0.000000
     9  C    6.454611   2.420360   1.392930   0.000000
    10  C    7.041341   2.798219   2.417176   1.395691   0.000000
    11  C    6.454999   2.420327   2.788564   2.414408   1.395683
    12  C    5.093667   1.399037   2.417090   2.788574   2.417188
    13  H    4.900693   2.167860   3.415621   3.889953   3.415675
    14  H    2.167624   4.625944   5.765246   6.966690   7.219788
    15  H    3.415574   2.689732   3.943037   4.889483   4.901488
    16  H    3.415654   2.689413   2.709507   3.961526   4.899294
    17  H    2.167679   4.625728   4.999745   6.347208   7.218287
    18  H    1.099684   5.342807   6.166986   7.537683   8.141025
    19  H    4.899767   2.167907   1.101414   2.165660   3.415684
    20  H    7.218725   3.415926   2.161399   1.100389   2.167625
    21  H    8.141024   3.897901   3.414101   2.167427   1.099683
    22  H    7.219361   3.415894   3.888955   3.413437   2.167613
                   11         12         13         14         15
    11  C    0.000000
    12  C    1.392949   0.000000
    13  H    2.165650   1.101409   0.000000
    14  H    6.349024   5.001129   4.475024   0.000000
    15  H    3.963969   2.711389   2.262951   2.490203   0.000000
    16  H    4.887993   3.942328   4.442610   4.990375   4.324931
    17  H    6.965880   5.765034   5.890928   4.324389   4.990312
    18  H    7.538101   6.167478   5.907499   2.499087   4.323170
    19  H    3.889948   3.415606   4.324787   5.890378   4.442554
    20  H    3.413437   3.888959   4.990333   7.878621   5.891515
    21  H    2.167429   3.414120   4.323348   8.275675   5.908405
    22  H    1.100394   2.161428   2.490363   6.880386   4.475695
                   16         17         18         19         20
    16  H    0.000000
    17  H    2.490207   0.000000
    18  H    4.323358   2.499349   0.000000
    19  H    2.261122   4.473372   5.906536   0.000000
    20  H    4.472912   6.878104   8.274454   2.490368   0.000000
    21  H    5.905948   8.273912   9.240708   4.323354   2.499185
    22  H    5.890148   7.877988   8.275150   4.990333   4.324326
                   21         22
    21  H    0.000000
    22  H    2.499180   0.000000
 Stoichiometry    C12H10
 Framework group  C1[X(C12H10)]
 Deg. of freedom    60
 Full point group                 C1      NOp   1
 Largest Abelian subgroup         C1      NOp   1
 Largest concise Abelian subgroup C1      NOp   1
                         Standard orientation:                         
 ---------------------------------------------------------------------
 Center     Atomic      Atomic             Coordinates (Angstroms)
 Number     Number       Type             X           Y           Z
 ---------------------------------------------------------------------
      1          6           0        2.820714    1.141222    0.392653
      2          6           0        1.427823    1.142480    0.394712
      3          6           0        0.722502    0.000544   -0.000083
      4          6           0        1.426862   -1.142240   -0.394380
      5          6           0        2.819776   -1.141790   -0.393083
      6          6           0        3.520650   -0.000439   -0.000521
      7          6           0       -0.722473    0.000549    0.000812
      8          6           0       -1.427171   -1.142069    0.394910
      9          6           0       -2.820099   -1.141612    0.392697
     10          6           0       -3.520691   -0.000302   -0.000414
     11          6           0       -2.820425    1.141371   -0.393021
     12          6           0       -1.427477    1.142566   -0.394246
     13          1           0       -0.876953    2.041331   -0.714006
     14          1           0        3.367765    2.044099    0.703103
     15          1           0        0.877593    2.041176    0.715160
     16          1           0        0.875926   -2.040849   -0.713857
     17          1           0        3.366108   -2.045153   -0.703439
     18          1           0        4.620334   -0.000658   -0.000799
     19          1           0       -0.876361   -2.040482    0.715186
     20          1           0       -3.366694   -2.044876    0.702865
     21          1           0       -4.620374   -0.000619   -0.000858
     22          1           0       -3.367292    2.044347   -0.703566
 ---------------------------------------------------------------------
 Rotational constants (GHZ):      2.8430383      0.5613167      0.4858294
 Standard basis: VSTO-6G (5D, 7F)
 There are    58 symmetry adapted cartesian basis functions of A   symmetry.
 There are    58 symmetry adapted basis functions of A   symmetry.
    58 basis functions,   348 primitive gaussians,    58 cartesian basis functions
    29 alpha electrons       29 beta electrons
       nuclear repulsion energy       327.0478569198 Hartrees.
 Integral buffers will be    131072 words long.
 Regular integral format.
 Two-electron integral symmetry is turned off.
 Do NDO integrals.
 One-electron integrals computed using PRISM.
 NBasis=    58 RedAO= F EigKep=  0.00D+00  NBF=    58
 NBsUse=    58 1.00D-04 EigRej=  0.00D+00 NBFU=    58
 Initial guess from the checkpoint file:  "bi-phenyl-opt.chk"
 B after Tr=     0.000000   -0.000000   -0.000000
         Rot=    1.000000    0.000008    0.000015   -0.000050 Ang=   0.01 deg.
 Overlap will be assumed to be unity.
 Keep J ints in memory in canonical form, NReq=912245.
 Requested convergence on RMS density matrix=1.00D-08 within 128 cycles.
 Requested convergence on MAX density matrix=1.00D-06.
 Requested convergence on             energy=1.00D-06.
 No special actions if energy rises.
 SCF Done:  E(RAM1) =  0.760978334159E-01 A.U. after   12 cycles
            NFock= 11  Conv=0.47D-08     -V/T= 1.0020
 Calling FoFJK, ICntrl=      2127 FMM=F ISym2X=0 I1Cent= 0 IOpClX= 0 NMat=1 NMatS=1 NMatT=0.
 ***** Axes restored to original set *****
 -------------------------------------------------------------------
 Center     Atomic                   Forces (Hartrees/Bohr)
 Number     Number              X              Y              Z
 -------------------------------------------------------------------
      1        6          -0.001432435   -0.000025909   -0.000078139
      2        6          -0.003455979   -0.003220487    0.002683615
      3        6          -0.009880687   -0.000739685    0.000034896
      4        6          -0.004000841    0.002449401   -0.002762031
      5        6          -0.001412477   -0.000239902    0.000065671
      6        6           0.000816351    0.000097169   -0.000004612
      7        6           0.009868308    0.000876477   -0.000091629
      8        6           0.003397515    0.004263285   -0.000218353
      9        6           0.001395239    0.000011515    0.000048251
     10        6          -0.000835708   -0.000081051   -0.000008872
     11        6           0.001384092    0.000242124   -0.000015544
     12        6           0.004148020   -0.003614539    0.000383064
     13        1           0.000623632    0.000368948   -0.000116782
     14        1          -0.000101733    0.000370265   -0.000214332
     15        1          -0.000663724    0.000230608   -0.000167293
     16        1          -0.000618880   -0.000363250    0.000146846
     17        1          -0.000033448   -0.000393563    0.000219673
     18        1           0.000188022    0.000026661   -0.000010017
     19        1           0.000687926   -0.000252682    0.000112511
     20        1           0.000096857   -0.000410145    0.000138297
     21        1          -0.000189366   -0.000017601   -0.000000283
     22        1           0.000019318    0.000422362   -0.000144938
 -------------------------------------------------------------------
 Cartesian Forces:  Max     0.009880687 RMS     0.002229642

 GradGradGradGradGradGradGradGradGradGradGradGradGradGradGradGradGradGrad
 Berny optimization.
 Using GEDIIS/GDIIS optimizer.
 FormGI is forming the generalized inverse of G from B-inverse, IUseBI=4.
 Internal  Forces:  Max     0.020675097 RMS     0.002422998
 Search for a local minimum.
 Step number   2 out of a maximum of  121 on scan point     1 out of    37
 All quantities printed in internal units (Hartrees-Bohrs-Radians)
 Mixed Optimization -- RFO/linear search
 Update second derivatives using D2CorX and points    1    2
 DE= -1.73D-03 DEPred=-2.91D-03 R= 5.94D-01
 TightC=F SS=  1.41D+00  RLast= 1.49D-01 DXNew= 5.0454D-01 4.4766D-01
 Trust test= 5.94D-01 RLast= 1.49D-01 DXMaxT set to 4.48D-01
 ITU=  1  0
 Use linear search instead of GDIIS.
     Eigenvalues ---    0.01413   0.01697   0.02035   0.02036   0.02085
     Eigenvalues ---    0.02094   0.02098   0.02098   0.02130   0.02131
     Eigenvalues ---    0.02141   0.02141   0.02148   0.02148   0.02154
     Eigenvalues ---    0.02155   0.02156   0.02156   0.15979   0.15999
     Eigenvalues ---    0.16000   0.16000   0.16000   0.16000   0.16000
     Eigenvalues ---    0.16000   0.16000   0.16002   0.21997   0.22000
     Eigenvalues ---    0.22000   0.22000   0.23480   0.23810   0.24999
     Eigenvalues ---    0.25000   0.30551   0.35165   0.35166   0.35170
     Eigenvalues ---    0.35182   0.35196   0.35204   0.35215   0.35218
     Eigenvalues ---    0.35221   0.38873   0.41441   0.41806   0.41811
     Eigenvalues ---    0.45080   0.45163   0.45169   0.45633   0.46351
     Eigenvalues ---    0.46353   0.46554   0.46614   0.602041000.00000
     Eigenvalues --- 1000.000001000.000001000.000001000.000001000.00000
     Eigenvalues --- 1000.000001000.000001000.000001000.000001000.00000
     Eigenvalues --- 1000.000001000.000001000.000001000.000001000.00000
     Eigenvalues --- 1000.000001000.000001000.000001000.000001000.00000
     Eigenvalues --- 1000.000001000.000001000.000001000.000001000.00000
     Eigenvalues --- 1000.000001000.000001000.000001000.000001000.00000
     Eigenvalues --- 1000.000001000.000001000.000001000.000001000.00000
     Eigenvalues --- 1000.000001000.000001000.000001000.000001000.00000
     Eigenvalues --- 1000.000001000.000001000.000001000.000001000.00000
     Eigenvalues --- 1000.000001000.000001000.000001000.000001000.00000
     Eigenvalues --- 1000.00000
 RFO step:  Lambda=-4.64565240D-04 EMin= 1.41280126D-02
 Quartic linear search produced a step of -0.28410.
 Iteration  1 RMS(Cart)=  0.01632319 RMS(Int)=  0.00002692
 Iteration  2 RMS(Cart)=  0.00003557 RMS(Int)=  0.00000924
 Iteration  3 RMS(Cart)=  0.00000000 RMS(Int)=  0.00000924
 Iteration  1 RMS(Cart)=  0.00000576 RMS(Int)=  0.00000260
 Iteration  2 RMS(Cart)=  0.00000342 RMS(Int)=  0.00000290
 Iteration  3 RMS(Cart)=  0.00000203 RMS(Int)=  0.00000330
 Iteration  4 RMS(Cart)=  0.00000120 RMS(Int)=  0.00000360
 Iteration  5 RMS(Cart)=  0.00000071 RMS(Int)=  0.00000378
 Variable       Old X    -DE/DX   Delta X   Delta X   Delta X     New X
                                 (Linear)    (Quad)   (Total)
    R1        2.63219   0.00101   0.00070   0.00063   0.00133   2.63352
    R2        2.63743  -0.00103   0.00026  -0.00239  -0.00212   2.63531
    R3        2.07941  -0.00033  -0.00720   0.00888   0.00167   2.08109
    R4        2.64383   0.00616   0.00327   0.00601   0.00928   2.65311
    R5        2.08135  -0.00060  -0.00797   0.00935   0.00138   2.08273
    R6        2.64396   0.00615   0.00333   0.00591   0.00924   2.65320
    R7        2.73061   0.02068   0.02190   0.01448   0.03638   2.76699
    R8        2.63223   0.00097   0.00066   0.00062   0.00128   2.63351
    R9        2.08136  -0.00061  -0.00799   0.00937   0.00137   2.08273
   R10        2.63751  -0.00108   0.00013  -0.00230  -0.00216   2.63535
   R11        2.07944  -0.00034  -0.00720   0.00885   0.00165   2.08109
   R12        2.07810  -0.00019  -0.00698   0.00887   0.00189   2.07999
   R13        2.64392   0.00615   0.00335   0.00590   0.00925   2.65317
   R14        2.64380   0.00621   0.00338   0.00595   0.00933   2.65312
   R15        2.63226   0.00094   0.00059   0.00067   0.00126   2.63351
   R16        2.08137  -0.00061  -0.00801   0.00939   0.00137   2.08275
   R17        2.63747  -0.00104   0.00022  -0.00235  -0.00213   2.63534
   R18        2.07943  -0.00034  -0.00720   0.00886   0.00165   2.08109
   R19        2.63746  -0.00105   0.00021  -0.00236  -0.00215   2.63531
   R20        2.07810  -0.00019  -0.00695   0.00883   0.00188   2.07998
   R21        2.63229   0.00094   0.00059   0.00066   0.00125   2.63354
   R22        2.07944  -0.00035  -0.00724   0.00889   0.00166   2.08110
   R23        2.08136  -0.00060  -0.00799   0.00937   0.00138   2.08274
    A1        2.09747   0.00070   0.00040   0.00056   0.00096   2.09843
    A2        2.08977  -0.00007  -0.00048   0.00135   0.00088   2.09065
    A3        2.09594  -0.00063   0.00006  -0.00190  -0.00184   2.09410
    A4        2.09784   0.00088   0.00385  -0.00161   0.00225   2.10009
    A5        2.09525  -0.00085  -0.00208  -0.00085  -0.00290   2.09234
    A6        2.09006  -0.00003  -0.00186   0.00251   0.00067   2.09073
    A7        2.08564  -0.00404  -0.00698  -0.00058  -0.00759   2.07806
    A8        2.09898   0.00196   0.00364  -0.00008   0.00356   2.10253
    A9        2.09856   0.00208   0.00334   0.00067   0.00401   2.10257
   A10        2.09775   0.00090   0.00390  -0.00161   0.00229   2.10004
   A11        2.09015  -0.00004  -0.00186   0.00250   0.00066   2.09081
   A12        2.09526  -0.00087  -0.00212  -0.00083  -0.00293   2.09232
   A13        2.09750   0.00071   0.00039   0.00056   0.00095   2.09846
   A14        2.08974  -0.00007  -0.00046   0.00135   0.00089   2.09063
   A15        2.09595  -0.00064   0.00006  -0.00191  -0.00185   2.09410
   A16        2.09016   0.00085  -0.00156   0.00269   0.00113   2.09129
   A17        2.09641  -0.00041   0.00076  -0.00124  -0.00049   2.09592
   A18        2.09662  -0.00044   0.00080  -0.00144  -0.00064   2.09598
   A19        2.09885   0.00203   0.00343   0.00039   0.00381   2.10266
   A20        2.09873   0.00201   0.00357   0.00015   0.00371   2.10244
   A21        2.08561  -0.00403  -0.00700  -0.00053  -0.00755   2.07805
   A22        2.09782   0.00088   0.00389  -0.00166   0.00223   2.10005
   A23        2.08999  -0.00001  -0.00190   0.00267   0.00078   2.09077
   A24        2.09534  -0.00087  -0.00207  -0.00094  -0.00299   2.09235
   A25        2.09750   0.00071   0.00038   0.00059   0.00096   2.09846
   A26        2.08980  -0.00008  -0.00047   0.00133   0.00085   2.09065
   A27        2.09589  -0.00063   0.00009  -0.00191  -0.00182   2.09407
   A28        2.09011   0.00086  -0.00153   0.00269   0.00117   2.09128
   A29        2.09653  -0.00043   0.00076  -0.00134  -0.00058   2.09595
   A30        2.09654  -0.00043   0.00076  -0.00135  -0.00059   2.09596
   A31        2.09750   0.00070   0.00040   0.00054   0.00093   2.09843
   A32        2.09588  -0.00062   0.00005  -0.00184  -0.00179   2.09409
   A33        2.08981  -0.00008  -0.00046   0.00131   0.00085   2.09066
   A34        2.09783   0.00088   0.00386  -0.00162   0.00225   2.10008
   A35        2.09002  -0.00002  -0.00183   0.00251   0.00070   2.09072
   A36        2.09531  -0.00086  -0.00213  -0.00084  -0.00294   2.09237
    D1       -0.00248   0.00010   0.00036   0.00413   0.00449   0.00201
    D2        3.13073  -0.00001  -0.00508   0.01173   0.00665   3.13738
    D3        3.13990   0.00010   0.00291  -0.00193   0.00098   3.14088
    D4       -0.01007  -0.00001  -0.00253   0.00567   0.00314  -0.00693
    D5        0.00088  -0.00004  -0.00013  -0.00026  -0.00039   0.00050
    D6       -3.14052  -0.00005  -0.00016  -0.00155  -0.00171   3.14096
    D7       -3.14150  -0.00004  -0.00269   0.00582   0.00313  -3.13837
    D8        0.00029  -0.00005  -0.00272   0.00453   0.00181   0.00209
    D9        0.00189  -0.00007  -0.00030  -0.00548  -0.00576  -0.00387
   D10       -3.14099  -0.00003   0.00033   0.00274   0.00305  -3.13794
   D11       -3.13134   0.00005   0.00512  -0.01304  -0.00791  -3.13925
   D12        0.00896   0.00008   0.00576  -0.00483   0.00091   0.00987
   D13        0.00028  -0.00003   0.00001   0.00300   0.00300   0.00328
   D14       -3.13289   0.00009   0.00557  -0.00588  -0.00033  -3.13322
   D15       -3.14002  -0.00006  -0.00062  -0.00522  -0.00582   3.13734
   D16        0.01000   0.00005   0.00494  -0.01410  -0.00915   0.00085
   D17       -2.47660   0.00047  -0.00002   0.00997   0.00998  -2.46662
   D18        0.66659   0.00043   0.00000   0.00000   0.00000   0.66659
   D19        0.66369   0.00050   0.00062   0.01825   0.01892   0.68260
   D20       -2.47631   0.00047   0.00064   0.00828   0.00893  -2.46737
   D21       -0.00187   0.00009   0.00022   0.00084   0.00106  -0.00082
   D22        3.14027   0.00009   0.00288  -0.00420  -0.00133   3.13894
   D23        3.13127  -0.00002  -0.00535   0.00976   0.00440   3.13567
   D24       -0.00978  -0.00002  -0.00269   0.00472   0.00202  -0.00776
   D25        0.00129  -0.00005  -0.00016  -0.00222  -0.00238  -0.00109
   D26       -3.14050  -0.00004  -0.00014  -0.00092  -0.00106  -3.14155
   D27       -3.14085  -0.00006  -0.00283   0.00284   0.00001  -3.14084
   D28        0.00055  -0.00005  -0.00281   0.00414   0.00133   0.00188
   D29       -3.13930  -0.00007   0.00002  -0.00698  -0.00694   3.13695
   D30        0.01097   0.00004   0.00535  -0.01552  -0.01016   0.00081
   D31        0.00071  -0.00003   0.00001   0.00292   0.00291   0.00362
   D32       -3.13221   0.00008   0.00533  -0.00562  -0.00031  -3.13252
   D33        3.14155  -0.00003  -0.00035   0.00453   0.00417  -3.13747
   D34        0.00807   0.00010   0.00542  -0.00357   0.00182   0.00989
   D35        0.00154  -0.00007  -0.00034  -0.00537  -0.00569  -0.00414
   D36       -3.13194   0.00005   0.00543  -0.01347  -0.00803  -3.13997
   D37       -0.00204   0.00009   0.00026   0.00079   0.00105  -0.00099
   D38        3.14022   0.00009   0.00274  -0.00400  -0.00126   3.13896
   D39        3.13085  -0.00002  -0.00508   0.00938   0.00429   3.13514
   D40       -0.01008  -0.00002  -0.00260   0.00459   0.00199  -0.00809
   D41        0.00112  -0.00005  -0.00021  -0.00208  -0.00229  -0.00116
   D42       -3.14053  -0.00005  -0.00022  -0.00084  -0.00106  -3.14158
   D43       -3.14114  -0.00005  -0.00270   0.00273   0.00002  -3.14111
   D44        0.00039  -0.00005  -0.00271   0.00397   0.00125   0.00165
   D45        0.00113  -0.00004  -0.00012  -0.00036  -0.00049   0.00064
   D46       -3.14112  -0.00005  -0.00277   0.00580   0.00302  -3.13810
   D47       -3.14040  -0.00005  -0.00011  -0.00161  -0.00172   3.14106
   D48        0.00053  -0.00005  -0.00276   0.00456   0.00179   0.00232
   D49       -0.00247   0.00010   0.00039   0.00411   0.00451   0.00204
   D50        3.13099  -0.00002  -0.00538   0.01225   0.00687   3.13786
   D51        3.13978   0.00011   0.00303  -0.00203   0.00100   3.14078
   D52       -0.00994  -0.00001  -0.00275   0.00611   0.00336  -0.00658
         Item               Value     Threshold  Converged?
 Maximum Force            0.020675     0.000450     NO 
 RMS     Force            0.002433     0.000300     NO 
 Maximum Displacement     0.044628     0.001800     NO 
 RMS     Displacement     0.016326     0.001200     NO 
 Predicted change in Energy=-5.691551D-04
 GradGradGradGradGradGradGradGradGradGradGradGradGradGradGradGradGradGrad

                          Input orientation:                          
 ---------------------------------------------------------------------
 Center     Atomic      Atomic             Coordinates (Angstroms)
 Number     Number       Type             X           Y           Z
 ---------------------------------------------------------------------
      1          6           0       -2.918732   -0.650209    0.845694
      2          6           0       -1.530732   -0.525884    0.856319
      3          6           0       -0.897152    0.417377    0.031723
      4          6           0       -1.681124    1.227846   -0.804804
      5          6           0       -3.068640    1.097990   -0.811176
      6          6           0       -3.689944    0.160458    0.013345
      7          6           0        0.561278    0.547460    0.037076
      8          6           0        1.163645    1.812381   -0.054217
      9          6           0        2.551966    1.933014   -0.043270
     10          6           0        3.354690    0.797309    0.059740
     11          6           0        2.764675   -0.462796    0.153450
     12          6           0        1.376943   -0.590283    0.143694
     13          1           0        0.916759   -1.589245    0.214513
     14          1           0       -3.406386   -1.393538    1.495644
     15          1           0       -0.927079   -1.166767    1.519321
     16          1           0       -1.195766    1.966807   -1.462877
     17          1           0       -3.675140    1.740022   -1.469004
     18          1           0       -4.785998    0.059845    0.006412
     19          1           0        0.534668    2.714271   -0.129709
     20          1           0        3.015115    2.929362   -0.117869
     21          1           0        4.450960    0.895334    0.068171
     22          1           0        3.395993   -1.361155    0.238224
 ---------------------------------------------------------------------
                    Distance matrix (angstroms):
                    1          2          3          4          5
     1  C    0.000000
     2  C    1.393597   0.000000
     3  C    2.426742   1.403967   0.000000
     4  C    2.789786   2.420230   1.404012   0.000000
     5  C    2.413274   2.789743   2.426741   1.393593   0.000000
     6  C    1.394544   2.417409   2.804645   2.417446   1.394568
     7  C    3.768122   2.489926   1.464229   2.489990   3.768144
     8  C    4.851802   3.681877   2.490041   2.999628   4.358391
     9  C    6.114886   4.850140   3.768182   4.358469   5.733947
    10  C    6.486051   5.123741   4.268874   5.127594   6.489073
    11  C    5.728476   4.352990   3.768089   4.851974   6.115073
    12  C    4.353070   2.994420   2.489864   3.681985   4.850283
    13  H    3.998896   2.744606   2.711127   3.965350   4.914943
    14  H    1.101263   2.163247   3.423264   3.891047   3.412214
    15  H    2.165015   1.102135   2.173328   3.421157   3.891867
    16  H    3.891900   3.421166   2.173415   1.102132   2.164997
    17  H    3.412211   3.891007   3.423272   2.163235   1.101265
    18  H    2.166853   3.414993   3.905329   3.415046   2.166913
    19  H    4.919055   3.966954   2.711437   2.752262   4.007566
    20  H    6.996594   5.792451   4.651697   5.041994   6.391140
    21  H    7.570047   6.198523   5.369551   6.202831   7.573553
    22  H    6.383590   5.035111   4.651549   5.793786   6.995721
                    6          7          8          9         10
     6  C    0.000000
     7  C    4.268866   0.000000
     8  C    5.127449   1.403996   0.000000
     9  C    6.488960   2.426738   1.393596   0.000000
    10  C    7.073514   2.804655   2.417444   1.394562   0.000000
    11  C    6.486153   2.426751   2.789777   2.413266   1.394548
    12  C    5.123861   1.403972   2.420219   2.789743   2.417425
    13  H    4.931900   2.173329   3.421144   3.891871   3.415128
    14  H    2.166223   4.651586   5.793545   6.995439   7.250778
    15  H    3.415101   2.711242   3.965157   4.914681   4.931684
    16  H    3.415121   2.711384   2.752270   4.007733   4.938901
    17  H    2.166241   4.651635   5.041894   6.391151   7.255637
    18  H    1.100684   5.369550   6.202685   7.573437   8.174197
    19  H    4.938600   2.173382   1.102141   2.165023   3.415136
    20  H    7.255472   3.423271   2.163248   1.101264   2.166220
    21  H    8.174190   3.905332   3.415025   2.166882   1.100677
    22  H    7.250957   3.423286   3.891045   3.412210   2.166225
                   11         12         13         14         15
    11  C    0.000000
    12  C    1.393610   0.000000
    13  H    2.165043   1.102138   0.000000
    14  H    6.383554   5.035198   4.513223   0.000000
    15  H    3.998778   2.744667   2.297988   2.489769   0.000000
    16  H    4.919408   3.967192   4.463395   4.993156   4.334165
    17  H    6.996855   5.792638   5.916399   4.322102   4.993130
    18  H    7.570167   6.198657   5.940053   2.496691   4.322584
    19  H    3.891897   3.421148   4.334135   5.920116   4.463010
    20  H    3.412195   3.891006   4.993134   7.907374   5.916042
    21  H    2.166876   3.415018   4.322630   8.307497   5.939815
    22  H    1.101271   2.163271   2.489817   6.917696   4.513086
                   16         17         18         19         20
    16  H    0.000000
    17  H    2.489731   0.000000
    18  H    4.322624   2.496768   0.000000
    19  H    2.308775   4.523865   5.947604   0.000000
    20  H    4.524056   6.928175   8.313058   2.489784   0.000000
    21  H    5.947914   8.313237   9.274872   4.322618   2.496704
    22  H    5.920585   7.907771   8.307704   4.993160   4.322084
                   21         22
    21  H    0.000000
    22  H    2.496722   0.000000
 Stoichiometry    C12H10
 Framework group  C1[X(C12H10)]
 Deg. of freedom    60
 Full point group                 C1      NOp   1
 Largest Abelian subgroup         C1      NOp   1
 Largest concise Abelian subgroup C1      NOp   1
                         Standard orientation:                         
 ---------------------------------------------------------------------
 Center     Atomic      Atomic             Coordinates (Angstroms)
 Number     Number       Type             X           Y           Z
 ---------------------------------------------------------------------
      1          6           0        2.836148    1.139460    0.399834
      2          6           0        1.442551    1.141099    0.400518
      3          6           0        0.732111   -0.002424    0.002081
      4          6           0        1.445470   -1.142766   -0.400398
      5          6           0        2.839054   -1.137603   -0.399458
      6          6           0        3.536753    0.001654    0.000705
      7          6           0       -0.732110   -0.002566   -0.002729
      8          6           0       -1.445351   -1.142810    0.400179
      9          6           0       -2.838937   -1.137655    0.399651
     10          6           0       -3.536761    0.001584   -0.000326
     11          6           0       -2.836271    1.139412   -0.399606
     12          6           0       -1.442663    1.141025   -0.400788
     13          1           0       -0.894845    2.042240   -0.720814
     14          1           0        3.384417    2.041585    0.713444
     15          1           0        0.894659    2.042152    0.720860
     16          1           0        0.899935   -2.044404   -0.723097
     17          1           0        3.389643   -2.037821   -0.714487
     18          1           0        4.637436    0.003171    0.000507
     19          1           0       -0.899685   -2.044262    0.723211
     20          1           0       -3.389447   -2.037794    0.715039
     21          1           0       -4.637436    0.003048    0.000183
     22          1           0       -3.384649    2.041616   -0.712830
 ---------------------------------------------------------------------
 Rotational constants (GHZ):      2.8402442      0.5541337      0.4808965
 Standard basis: VSTO-6G (5D, 7F)
 There are    58 symmetry adapted cartesian basis functions of A   symmetry.
 There are    58 symmetry adapted basis functions of A   symmetry.
    58 basis functions,   348 primitive gaussians,    58 cartesian basis functions
    29 alpha electrons       29 beta electrons
       nuclear repulsion energy       326.2440026963 Hartrees.
 Integral buffers will be    131072 words long.
 Regular integral format.
 Two-electron integral symmetry is turned off.
 Do NDO integrals.
 One-electron integrals computed using PRISM.
 NBasis=    58 RedAO= F EigKep=  0.00D+00  NBF=    58
 NBsUse=    58 1.00D-04 EigRej=  0.00D+00 NBFU=    58
 Initial guess from the checkpoint file:  "bi-phenyl-opt.chk"
 B after Tr=    -0.000000   -0.000000    0.000000
         Rot=    1.000000   -0.000003    0.000100   -0.000031 Ang=  -0.01 deg.
 Overlap will be assumed to be unity.
 Keep J ints in memory in canonical form, NReq=912245.
 Requested convergence on RMS density matrix=1.00D-08 within 128 cycles.
 Requested convergence on MAX density matrix=1.00D-06.
 Requested convergence on             energy=1.00D-06.
 No special actions if energy rises.
 SCF Done:  E(RAM1) =  0.756594946496E-01 A.U. after   11 cycles
            NFock= 10  Conv=0.63D-08     -V/T= 1.0020
 Calling FoFJK, ICntrl=      2127 FMM=F ISym2X=0 I1Cent= 0 IOpClX= 0 NMat=1 NMatS=1 NMatT=0.
 ***** Axes restored to original set *****
 -------------------------------------------------------------------
 Center     Atomic                   Forces (Hartrees/Bohr)
 Number     Number              X              Y              Z
 -------------------------------------------------------------------
[...]
           D43        179.69749 179.83399
           D44         -0.21027  -0.14616
           D45          0.06736  -0.04386
           D46       -179.93949 179.90525
           D47        179.97512 179.93630
           D48         -0.03173  -0.11459
           D49          0.32007   0.17386
           D50        179.17809 179.58932
           D51       -179.67309-179.77534
           D52         -0.81507  -0.35988
                          Input orientation:                          
 ---------------------------------------------------------------------
 Center     Atomic      Atomic             Coordinates (Angstroms)
 Number     Number       Type             X           Y           Z
 ---------------------------------------------------------------------
      1          6           0       -3.062195    1.094670   -0.821776
      2          6           0       -1.674990    1.224313   -0.807804
      3          6           0       -0.895307    0.410896    0.027370
      4          6           0       -1.532061   -0.530327    0.849548
      5          6           0       -2.919622   -0.654802    0.833899
      6          6           0       -3.687669    0.156065   -0.001500
      7          6           0        0.560033    0.546637    0.045900
      8          6           0        1.378205   -0.587688    0.152101
      9          6           0        2.765254   -0.456945    0.164611
     10          6           0        3.352095    0.804918    0.072657
     11          6           0        2.545588    1.937745   -0.033547
     12          6           0        1.158097    1.811761   -0.048865
     13          1           0        0.526642    2.709662   -0.126040
     14          1           0       -3.664240    1.734933   -1.483201
     15          1           0       -1.186389    1.961888   -1.462155
     16          1           0       -0.931494   -1.167276    1.516272
     17          1           0       -3.409488   -1.394351    1.484264
     18          1           0       -4.782592    0.055786   -0.013037
     19          1           0        0.920557   -1.586322    0.217122
     20          1           0        3.398015   -1.352989    0.245755
     21          1           0        4.446913    0.906254    0.083528
     22          1           0        3.004648    2.934771   -0.104702
 ---------------------------------------------------------------------
                    Distance matrix (angstroms):
                    1          2          3          4          5
     1  C    0.000000
     2  C    1.393320   0.000000
     3  C    2.425696   1.402523   0.000000
     4  C    2.788414   2.417852   1.402616   0.000000
     5  C    2.412932   2.788436   2.425706   1.393221   0.000000
     6  C    1.394650   2.417056   2.804115   2.417037   1.394738
     7  C    3.764802   2.486641   1.461774   2.486475   3.764624
     8  C    4.847259   3.677875   2.486279   2.993221   4.352088
     9  C    6.110617   4.846441   3.764531   4.352177   5.727557
    10  C    6.482830   5.120809   4.265879   5.122638   6.484189
    11  C    5.725322   4.349912   3.764936   4.847521   6.110833
    12  C    4.349997   2.991231   2.486907   3.678243   4.846752
    13  H    3.996498   2.741942   2.707361   3.960753   4.910991
    14  H    1.099944   2.161946   3.420803   3.888356   3.410900
    15  H    2.163516   1.100419   2.170021   3.416811   3.888833
    16  H    3.888799   3.416697   2.169969   1.100411   2.163542
    17  H    3.410815   3.888376   3.420901   2.161975   1.099944
    18  H    2.166358   3.413840   3.903680   3.413728   2.166308
    19  H    4.912162   3.960683   2.705965   2.744162   3.999390
    20  H    6.990348   5.786869   4.646675   5.034579   6.383253
    21  H    7.565830   6.194621   5.365431   6.196667   7.567416
    22  H    6.380184   5.031801   4.647261   5.787851   6.990206
                    6          7          8          9         10
     6  C    0.000000
     7  C    4.265884   0.000000
     8  C    5.122485   1.402632   0.000000
     9  C    6.484104   2.425752   1.393254   0.000000
    10  C    7.069992   2.804110   2.417003   1.394682   0.000000
    11  C    6.482971   2.425680   2.788379   2.412895   1.394643
    12  C    5.121038   1.402570   2.417890   2.788469   2.417049
    13  H    4.929177   2.170105   3.416875   3.888864   3.413314
    14  H    2.165366   4.647007   5.787489   6.989851   7.246694
    15  H    3.413343   2.706872   3.960215   4.910459   4.928698
    16  H    3.413410   2.706316   2.744376   3.999689   4.931806
    17  H    2.165334   4.646872   5.034618   6.383390   7.249029
    18  H    1.099566   5.365450   6.196511   7.567327   8.169558
    19  H    4.931476   2.169978   1.100427   2.163598   3.413396
    20  H    7.248814   3.420915   2.161964   1.099938   2.165325
    21  H    8.169544   3.903662   3.413727   2.166302   1.099552
    22  H    7.246997   3.420820   3.888312   3.410803   2.165282
                   11         12         13         14         15
    11  C    0.000000
    12  C    1.393283   0.000000
    13  H    2.163459   1.100417   0.000000
    14  H    6.380015   5.031715   4.511704   0.000000
    15  H    3.996143   2.741631   2.297573   2.488312   0.000000
    16  H    4.912555   3.961150   4.455783   4.988743   4.327547
    17  H    6.990676   5.787268   5.910086   4.320088   4.988777
    18  H    7.566004   6.194879   5.936649   2.496323   4.320399
    19  H    3.888780   3.416744   4.327633   5.911192   4.455220
    20  H    3.410802   3.888403   4.988802   7.899366   5.909494
    21  H    2.166268   3.413764   4.320269   8.302539   5.936126
    22  H    1.099935   2.161948   2.488301   6.914762   4.511537
                   16         17         18         19         20
    16  H    0.000000
    17  H    2.488582   0.000000
    18  H    4.320373   2.496041   0.000000
    19  H    2.300757   4.515728   5.939310   0.000000
    20  H    4.515900   6.919372   8.305055   2.488586   0.000000
    21  H    5.939659   8.305293   9.269109   4.320413   2.496134
    22  H    5.911646   7.899826   8.302895   4.988715   4.320004
                   21         22
    21  H    0.000000
    22  H    2.496085   0.000000
 Stoichiometry    C12H10
 Framework group  C1[X(C12H10)]
 Deg. of freedom    60
 Full point group                 C1      NOp   1
 Largest Abelian subgroup         C1      NOp   1
 Largest concise Abelian subgroup C1      NOp   1
                         Standard orientation:                         
 ---------------------------------------------------------------------
 Center     Atomic      Atomic             Coordinates (Angstroms)
 Number     Number       Type             X           Y           Z
 ---------------------------------------------------------------------
      1          6           0        2.834640    1.139050    0.399022
      2          6           0        1.441321    1.140898    0.398882
      3          6           0        0.730895   -0.001282    0.001656
      4          6           0        1.442715   -1.141708   -0.398436
      5          6           0        2.835932   -1.138142   -0.398870
      6          6           0        3.535009    0.000882    0.000139
      7          6           0       -0.730874   -0.001165   -0.001919
      8          6           0       -1.442530   -1.141681    0.398263
      9          6           0       -2.835779   -1.138225    0.399006
     10          6           0       -3.534983    0.000695    0.000117
     11          6           0       -2.834806    1.138921   -0.398909
     12          6           0       -1.441524    1.140974   -0.399032
     13          1           0       -0.894388    2.039682   -0.721340
     14          1           0        3.382264    2.038805    0.715924
     15          1           0        0.893957    2.039498    0.721111
     16          1           0        0.896205   -2.040488   -0.721587
     17          1           0        3.384779   -2.036816   -0.716721
     18          1           0        4.634574    0.001494   -0.000114
     19          1           0       -0.895848   -2.040402    0.721339
     20          1           0       -3.384428   -2.036962    0.716999
     21          1           0       -4.634535    0.001324    0.000546
     22          1           0       -3.382682    2.038563   -0.715665
 ---------------------------------------------------------------------
 Rotational constants (GHZ):      2.8439604      0.5550457      0.4816108

 **********************************************************************

            Population analysis using the SCF density.

 **********************************************************************

 Orbital symmetries:
       Occupied  (A) (A) (A) (A) (A) (A) (A) (A) (A) (A) (A) (A)
                 (A) (A) (A) (A) (A) (A) (A) (A) (A) (A) (A) (A)
                 (A) (A) (A) (A) (A)
       Virtual   (A) (A) (A) (A) (A) (A) (A) (A) (A) (A) (A) (A)
                 (A) (A) (A) (A) (A) (A) (A) (A) (A) (A) (A) (A)
                 (A) (A) (A) (A) (A)
 The electronic state is 1-A.
 Alpha  occ. eigenvalues --   -1.47863  -1.41736  -1.23018  -1.16976  -1.14374
 Alpha  occ. eigenvalues --   -1.08395  -0.89275  -0.87901  -0.82240  -0.79356
 Alpha  occ. eigenvalues --   -0.67261  -0.62265  -0.61077  -0.58872  -0.55932
 Alpha  occ. eigenvalues --   -0.55632  -0.52788  -0.52199  -0.51768  -0.50243
 Alpha  occ. eigenvalues --   -0.48107  -0.46024  -0.44634  -0.43483  -0.42982
 Alpha  occ. eigenvalues --   -0.37881  -0.35716  -0.35643  -0.32839
 Alpha virt. eigenvalues --   -0.00306   0.01901   0.01970   0.03417   0.10128
 Alpha virt. eigenvalues --    0.11286   0.13707   0.14288   0.14635   0.14712
 Alpha virt. eigenvalues --    0.14984   0.15015   0.15219   0.16279   0.16350
 Alpha virt. eigenvalues --    0.16454   0.17069   0.18079   0.18468   0.18770
 Alpha virt. eigenvalues --    0.18839   0.19889   0.20118   0.20588   0.20661
 Alpha virt. eigenvalues --    0.20729   0.21371   0.22216   0.22444
          Condensed to atoms (all electrons):
               1          2          3          4          5          6
     1  C    4.130657   0.000000   0.000000   0.000000   0.000000   0.000000
     2  C    0.000000   4.119004   0.000000   0.000000   0.000000   0.000000
     3  C    0.000000   0.000000   4.036806   0.000000   0.000000   0.000000
     4  C    0.000000   0.000000   0.000000   4.118957   0.000000   0.000000
     5  C    0.000000   0.000000   0.000000   0.000000   4.130667   0.000000
     6  C    0.000000   0.000000   0.000000   0.000000   0.000000   4.127542
     7  C    0.000000   0.000000   0.000000   0.000000   0.000000   0.000000
     8  C    0.000000   0.000000   0.000000   0.000000   0.000000   0.000000
     9  C    0.000000   0.000000   0.000000   0.000000   0.000000   0.000000
    10  C    0.000000   0.000000   0.000000   0.000000   0.000000   0.000000
    11  C    0.000000   0.000000   0.000000   0.000000   0.000000   0.000000
    12  C    0.000000   0.000000   0.000000   0.000000   0.000000   0.000000
    13  H    0.000000   0.000000   0.000000   0.000000   0.000000   0.000000
    14  H    0.000000   0.000000   0.000000   0.000000   0.000000   0.000000
    15  H    0.000000   0.000000   0.000000   0.000000   0.000000   0.000000
    16  H    0.000000   0.000000   0.000000   0.000000   0.000000   0.000000
    17  H    0.000000   0.000000   0.000000   0.000000   0.000000   0.000000
    18  H    0.000000   0.000000   0.000000   0.000000   0.000000   0.000000
    19  H    0.000000   0.000000   0.000000   0.000000   0.000000   0.000000
    20  H    0.000000   0.000000   0.000000   0.000000   0.000000   0.000000
    21  H    0.000000   0.000000   0.000000   0.000000   0.000000   0.000000
    22  H    0.000000   0.000000   0.000000   0.000000   0.000000   0.000000
               7          8          9         10         11         12
     1  C    0.000000   0.000000   0.000000   0.000000   0.000000   0.000000
     2  C    0.000000   0.000000   0.000000   0.000000   0.000000   0.000000
     3  C    0.000000   0.000000   0.000000   0.000000   0.000000   0.000000
     4  C    0.000000   0.000000   0.000000   0.000000   0.000000   0.000000
     5  C    0.000000   0.000000   0.000000   0.000000   0.000000   0.000000
     6  C    0.000000   0.000000   0.000000   0.000000   0.000000   0.000000
     7  C    4.036809   0.000000   0.000000   0.000000   0.000000   0.000000
     8  C    0.000000   4.118982   0.000000   0.000000   0.000000   0.000000
     9  C    0.000000   0.000000   4.130659   0.000000   0.000000   0.000000
    10  C    0.000000   0.000000   0.000000   4.127541   0.000000   0.000000
    11  C    0.000000   0.000000   0.000000   0.000000   4.130665   0.000000
    12  C    0.000000   0.000000   0.000000   0.000000   0.000000   4.118979
    13  H    0.000000   0.000000   0.000000   0.000000   0.000000   0.000000
    14  H    0.000000   0.000000   0.000000   0.000000   0.000000   0.000000
    15  H    0.000000   0.000000   0.000000   0.000000   0.000000   0.000000
    16  H    0.000000   0.000000   0.000000   0.000000   0.000000   0.000000
    17  H    0.000000   0.000000   0.000000   0.000000   0.000000   0.000000
    18  H    0.000000   0.000000   0.000000   0.000000   0.000000   0.000000
    19  H    0.000000   0.000000   0.000000   0.000000   0.000000   0.000000
    20  H    0.000000   0.000000   0.000000   0.000000   0.000000   0.000000
    21  H    0.000000   0.000000   0.000000   0.000000   0.000000   0.000000
    22  H    0.000000   0.000000   0.000000   0.000000   0.000000   0.000000
              13         14         15         16         17         18
     1  C    0.000000   0.000000   0.000000   0.000000   0.000000   0.000000
     2  C    0.000000   0.000000   0.000000   0.000000   0.000000   0.000000
     3  C    0.000000   0.000000   0.000000   0.000000   0.000000   0.000000
     4  C    0.000000   0.000000   0.000000   0.000000   0.000000   0.000000
     5  C    0.000000   0.000000   0.000000   0.000000   0.000000   0.000000
     6  C    0.000000   0.000000   0.000000   0.000000   0.000000   0.000000
     7  C    0.000000   0.000000   0.000000   0.000000   0.000000   0.000000
     8  C    0.000000   0.000000   0.000000   0.000000   0.000000   0.000000
     9  C    0.000000   0.000000   0.000000   0.000000   0.000000   0.000000
    10  C    0.000000   0.000000   0.000000   0.000000   0.000000   0.000000
    11  C    0.000000   0.000000   0.000000   0.000000   0.000000   0.000000
    12  C    0.000000   0.000000   0.000000   0.000000   0.000000   0.000000
    13  H    0.865550   0.000000   0.000000   0.000000   0.000000   0.000000
    14  H    0.000000   0.868346   0.000000   0.000000   0.000000   0.000000
    15  H    0.000000   0.000000   0.865550   0.000000   0.000000   0.000000
    16  H    0.000000   0.000000   0.000000   0.865551   0.000000   0.000000
    17  H    0.000000   0.000000   0.000000   0.000000   0.868344   0.000000
    18  H    0.000000   0.000000   0.000000   0.000000   0.000000   0.868569
    19  H    0.000000   0.000000   0.000000   0.000000   0.000000   0.000000
    20  H    0.000000   0.000000   0.000000   0.000000   0.000000   0.000000
    21  H    0.000000   0.000000   0.000000   0.000000   0.000000   0.000000
    22  H    0.000000   0.000000   0.000000   0.000000   0.000000   0.000000
              19         20         21         22
     1  C    0.000000   0.000000   0.000000   0.000000
     2  C    0.000000   0.000000   0.000000   0.000000
     3  C    0.000000   0.000000   0.000000   0.000000
     4  C    0.000000   0.000000   0.000000   0.000000
     5  C    0.000000   0.000000   0.000000   0.000000
     6  C    0.000000   0.000000   0.000000   0.000000
     7  C    0.000000   0.000000   0.000000   0.000000
     8  C    0.000000   0.000000   0.000000   0.000000
     9  C    0.000000   0.000000   0.000000   0.000000
    10  C    0.000000   0.000000   0.000000   0.000000
    11  C    0.000000   0.000000   0.000000   0.000000
    12  C    0.000000   0.000000   0.000000   0.000000
    13  H    0.000000   0.000000   0.000000   0.000000
    14  H    0.000000   0.000000   0.000000   0.000000
    15  H    0.000000   0.000000   0.000000   0.000000
    16  H    0.000000   0.000000   0.000000   0.000000
    17  H    0.000000   0.000000   0.000000   0.000000
    18  H    0.000000   0.000000   0.000000   0.000000
    19  H    0.865547   0.000000   0.000000   0.000000
    20  H    0.000000   0.868346   0.000000   0.000000
    21  H    0.000000   0.000000   0.868575   0.000000
    22  H    0.000000   0.000000   0.000000   0.868351
 Mulliken charges:
               1
     1  C   -0.130657
     2  C   -0.119004
     3  C   -0.036806
     4  C   -0.118957
     5  C   -0.130667
     6  C   -0.127542
     7  C   -0.036809
     8  C   -0.118982
     9  C   -0.130659
    10  C   -0.127541
    11  C   -0.130665
    12  C   -0.118979
    13  H    0.134450
    14  H    0.131654
    15  H    0.134450
    16  H    0.134449
    17  H    0.131656
    18  H    0.131431
    19  H    0.134453
    20  H    0.131654
    21  H    0.131425
    22  H    0.131649
 Sum of Mulliken charges =  -0.00000
 Mulliken charges with hydrogens summed into heavy atoms:
               1
     1  C    0.000997
     2  C    0.015445
     3  C   -0.036806
     4  C    0.015492
     5  C    0.000988
     6  C    0.003888
     7  C   -0.036809
     8  C    0.015471
     9  C    0.000995
    10  C    0.003884
    11  C    0.000985
    12  C    0.015471
 Charge=             -0.0000 electrons
 Dipole moment (field-independent basis, Debye):
    X=              0.0001    Y=              0.0018    Z=              0.0002  Tot=              0.0018
 N-N= 3.264109667361D+02 E-N=-5.738863177453D+02  KE=-3.825474791935D+01
 1\1\GINC-GTX1080DELTA\Scan\RAM1\ZDO\C12H10\MVEROT\18-Apr-2022\0\\#n AM
 1 Opt=modredundant\\Optimisation de geometrie\\0,1\C,-3.0621950541,1.0
 946703163,-0.821775675\C,-1.6749897737,1.2243133938,-0.8078042589\C,-0
 .8953069095,0.4108955016,0.0273701009\C,-1.5320607459,-0.5303272206,0.
 8495484823\C,-2.9196220186,-0.6548020166,0.8338988262\C,-3.6876694352,
 0.1560651431,-0.0015004876\C,0.5600327948,0.5466367191,0.0459001693\C,
 1.3782053049,-0.5876875284,0.1521011427\C,2.7652544969,-0.4569452291,0
 .1646108081\C,3.3520946953,0.8049184463,0.0726572433\C,2.5455881046,1.
 9377454415,-0.0335466787\C,1.1580970281,1.8117613139,-0.0488654944\H,0
 .5266420358,2.7096619948,-0.1260403827\H,-3.6642400305,1.7349327169,-1
 .4832009036\H,-1.1863889683,1.9618879348,-1.462154649\H,-0.9314941696,
 -1.1672764351,1.5162721024\H,-3.4094882045,-1.3943505767,1.484264442\H
 ,-4.7825920328,0.0557855541,-0.0130370701\H,0.9205570621,-1.586321755,
 0.2171215072\H,3.3980148556,-1.3529885019,0.2457545624\H,4.4469131081,
 0.9062542737,0.0835283119\H,3.0046478567,2.9347705134,-0.1047020986\\V
 ersion=AM64L-G09RevD.01\State=1-A\HF=0.0756188,0.075749,0.0762401,0.07
 67644,0.0771154,0.0772545,0.0771899,0.0769151,0.0764394,0.075901,0.075
 605,0.0758399,0.0767052,0.0779941,0.0789261,0.078438,0.0771468,0.07608
 24,0.0756187,0.0757479,0.0762384,0.0767631,0.0771153,0.0772547,0.07718
 97,0.0769153,0.0764407,0.0759023,0.0756052,0.0758424,0.0767115,0.07799
 6,0.0789261,0.0784379,0.0771526,0.0760868,0.0756187\RMSD=2.169e-09,4.5
 37e-09,4.615e-09,5.352e-09,3.833e-09,8.605e-09,4.402e-09,5.179e-09,4.8
 81e-09,3.429e-09,2.268e-09,8.269e-09,6.183e-09,6.451e-09,2.504e-09,3.0
 51e-09,5.012e-09,7.253e-09,9.445e-09,7.497e-09,4.361e-09,3.554e-09,3.7
 39e-09,3.602e-09,7.289e-09,3.220e-09,5.720e-09,4.233e-09,3.811e-09,2.7
 90e-09,2.486e-09,2.539e-09,9.828e-09,2.699e-09,3.387e-09,2.618e-09,2.4
 94e-09\PG=C01 [X(C12H10)]\\@


 EVERYTHING'S GOT A MORAL, IF ONLY YOU CAN FIND IT.

                                    -- LEWIS CARROL, ALICE IN WONDERLAND
 Job cpu time:       0 days  0 hours  1 minutes 19.9 seconds.
 File lengths (MBytes):  RWF=    137 Int=      0 D2E=      0 Chk=      8 Scr=      2
 Normal termination of Gaussian 09 at Mon Apr 18 01:00:37 2022.
