 Entering Gaussian System, Link 0=g09
 Input=/scratch/mverot/Methylcyclopropane-opt/Methylcyclopropane-opt.com
 Output=/scratch/mverot/Methylcyclopropane-opt/Methylcyclopropane-opt.log
 Initial command:
 /opt/g09/l1.exe "/scratch/mverot/Methylcyclopropane-opt/Gau-747826.inp" -scrdir="/scratch/mverot/Methylcyclopropane-opt/"
 Entering Link 1 = /opt/g09/l1.exe PID=    747828.
  
 Copyright (c) 1988,1990,1992,1993,1995,1998,2003,2009,2013,
            Gaussian, Inc.  All Rights Reserved.
  
 This is part of the Gaussian(R) 09 program.  It is based on
 the Gaussian(R) 03 system (copyright 2003, Gaussian, Inc.),
 the Gaussian(R) 98 system (copyright 1998, Gaussian, Inc.),
 the Gaussian(R) 94 system (copyright 1995, Gaussian, Inc.),
 the Gaussian 92(TM) system (copyright 1992, Gaussian, Inc.),
 the Gaussian 90(TM) system (copyright 1990, Gaussian, Inc.),
 the Gaussian 88(TM) system (copyright 1988, Gaussian, Inc.),
 the Gaussian 86(TM) system (copyright 1986, Carnegie Mellon
 University), and the Gaussian 82(TM) system (copyright 1983,
 Carnegie Mellon University). Gaussian is a federally registered
 trademark of Gaussian, Inc.
  
 This software contains proprietary and confidential information,
 including trade secrets, belonging to Gaussian, Inc.
  
 This software is provided under written license and may be
 used, copied, transmitted, or stored only in accord with that
 written license.
  
 The following legend is applicable only to US Government
 contracts under FAR:
  
                    RESTRICTED RIGHTS LEGEND
  
 Use, reproduction and disclosure by the US Government is
 subject to restrictions as set forth in subparagraphs (a)
 and (c) of the Commercial Computer Software - Restricted
 Rights clause in FAR 52.227-19.
  
 Gaussian, Inc.
 340 Quinnipiac St., Bldg. 40, Wallingford CT 06492
  
  
 ---------------------------------------------------------------
 Warning -- This program may not be used in any manner that
 competes with the business of Gaussian, Inc. or will provide
 assistance to any competitor of Gaussian, Inc.  The licensee
 of this program is prohibited from giving any competitor of
 Gaussian, Inc. access to this program.  By using this program,
 the user acknowledges that Gaussian, Inc. is engaged in the
 business of creating and licensing software in the field of
 computational chemistry and represents and warrants to the
 licensee that it is not a competitor of Gaussian, Inc. and that
 it will not use this program in any manner prohibited above.
 ---------------------------------------------------------------
  

 Cite this work as:
 Gaussian 09, Revision D.01,
 M. J. Frisch, G. W. Trucks, H. B. Schlegel, G. E. Scuseria, 
 M. A. Robb, J. R. Cheeseman, G. Scalmani, V. Barone, B. Mennucci, 
 G. A. Petersson, H. Nakatsuji, M. Caricato, X. Li, H. P. Hratchian, 
 A. F. Izmaylov, J. Bloino, G. Zheng, J. L. Sonnenberg, M. Hada, 
 M. Ehara, K. Toyota, R. Fukuda, J. Hasegawa, M. Ishida, T. Nakajima, 
 Y. Honda, O. Kitao, H. Nakai, T. Vreven, J. A. Montgomery, Jr., 
 J. E. Peralta, F. Ogliaro, M. Bearpark, J. J. Heyd, E. Brothers, 
 K. N. Kudin, V. N. Staroverov, T. Keith, R. Kobayashi, J. Normand, 
 K. Raghavachari, A. Rendell, J. C. Burant, S. S. Iyengar, J. Tomasi, 
 M. Cossi, N. Rega, J. M. Millam, M. Klene, J. E. Knox, J. B. Cross, 
 V. Bakken, C. Adamo, J. Jaramillo, R. Gomperts, R. E. Stratmann, 
 O. Yazyev, A. J. Austin, R. Cammi, C. Pomelli, J. W. Ochterski, 
 R. L. Martin, K. Morokuma, V. G. Zakrzewski, G. A. Voth, 
 P. Salvador, J. J. Dannenberg, S. Dapprich, A. D. Daniels, 
 O. Farkas, J. B. Foresman, J. V. Ortiz, J. Cioslowski, 
 and D. J. Fox, Gaussian, Inc., Wallingford CT, 2013.
 
 ******************************************
 Gaussian 09:  AM64L-G09RevD.01 24-Apr-2013
                16-Apr-2022 
 ******************************************
 %chk=Methylcyclopropane-opt
 --------------------
 # hf/6-31G* opt freq
 --------------------
 1/18=20,19=15,38=1/1,3;
 2/9=110,12=2,17=6,18=5,40=1/2;
 3/5=1,6=6,7=1,11=9,16=1,25=1,30=1,71=1/1,2,3;
 4//1;
 5/5=2,38=5/2;
 6/7=2,8=2,9=2,10=2,28=1/1;
 7//1,2,3,16;
 1/18=20,19=15/3(2);
 2/9=110/2;
 99//99;
 2/9=110/2;
 3/5=1,6=6,7=1,11=9,16=1,25=1,30=1,71=1/1,2,3;
 4/5=5,16=3,69=1/1;
 5/5=2,38=5/2;
 7//1,2,3,16;
 1/18=20,19=15/3(-5);
 2/9=110/2;
 6/7=2,8=2,9=2,10=2,19=2,28=1/1;
 99/9=1/99;
 -------------------------
 Optimisation de geometrie
 -------------------------
 Symbolic Z-matrix:
 Charge =  0 Multiplicity = 1
 C                     1.9579    1.4794    1.713 
 C                     3.1125    2.13      0.9901 
 C                     3.0696    0.6273    1.1501 
 C                     0.5784    1.4519    1.0898 
 H                     1.9586    1.5948    2.7964 
 H                     2.9248    2.541     0.0007 
 H                     3.8415    2.6904    1.5694 
 H                     3.7695    0.1609    1.8385 
 H                     2.8526    0.0284    0.2685 
 H                     0.642     1.3338    0.0012 
 H                    -0.0199    0.6184    1.4787 
 H                     0.0298    2.3808    1.2904 
 

 GradGradGradGradGradGradGradGradGradGradGradGradGradGradGradGradGradGrad
 Berny optimization.
 Initialization pass.
                           ----------------------------
                           !    Initial Parameters    !
                           ! (Angstroms and Degrees)  !
 --------------------------                            --------------------------
 ! Name  Definition              Value          Derivative Info.                !
 --------------------------------------------------------------------------------
 ! R1    R(1,2)                  1.5096         estimate D2E/DX2                !
 ! R2    R(1,3)                  1.5096         estimate D2E/DX2                !
 ! R3    R(1,4)                  1.514          estimate D2E/DX2                !
 ! R4    R(1,5)                  1.0895         estimate D2E/DX2                !
 ! R5    R(2,3)                  1.5118         estimate D2E/DX2                !
 ! R6    R(2,6)                  1.0877         estimate D2E/DX2                !
 ! R7    R(2,7)                  1.0868         estimate D2E/DX2                !
 ! R8    R(3,8)                  1.0869         estimate D2E/DX2                !
 ! R9    R(3,9)                  1.0877         estimate D2E/DX2                !
 ! R10   R(4,10)                 1.0968         estimate D2E/DX2                !
 ! R11   R(4,11)                 1.0972         estimate D2E/DX2                !
 ! R12   R(4,12)                 1.0973         estimate D2E/DX2                !
 ! A1    A(2,1,4)              120.5043         estimate D2E/DX2                !
 ! A2    A(2,1,5)              115.4694         estimate D2E/DX2                !
 ! A3    A(3,1,4)              120.4824         estimate D2E/DX2                !
 ! A4    A(3,1,5)              115.4741         estimate D2E/DX2                !
 ! A5    A(4,1,5)              114.3194         estimate D2E/DX2                !
 ! A6    A(1,2,6)              117.8043         estimate D2E/DX2                !
 ! A7    A(1,2,7)              118.6864         estimate D2E/DX2                !
 ! A8    A(3,2,6)              117.8374         estimate D2E/DX2                !
 ! A9    A(3,2,7)              118.3704         estimate D2E/DX2                !
 ! A10   A(6,2,7)              113.9404         estimate D2E/DX2                !
 ! A11   A(1,3,8)              118.7037         estimate D2E/DX2                !
 ! A12   A(1,3,9)              117.7835         estimate D2E/DX2                !
 ! A13   A(2,3,8)              118.3788         estimate D2E/DX2                !
 ! A14   A(2,3,9)              117.8525         estimate D2E/DX2                !
 ! A15   A(8,3,9)              113.9272         estimate D2E/DX2                !
 ! A16   A(1,4,10)             110.9566         estimate D2E/DX2                !
 ! A17   A(1,4,11)             111.3918         estimate D2E/DX2                !
 ! A18   A(1,4,12)             111.4025         estimate D2E/DX2                !
 ! A19   A(10,4,11)            107.5538         estimate D2E/DX2                !
 ! A20   A(10,4,12)            107.5526         estimate D2E/DX2                !
 ! A21   A(11,4,12)            107.7971         estimate D2E/DX2                !
 ! D1    D(4,1,2,6)             -2.1519         estimate D2E/DX2                !
 ! D2    D(4,1,2,7)            142.0891         estimate D2E/DX2                !
 ! D3    D(5,1,2,6)           -146.253          estimate D2E/DX2                !
 ! D4    D(5,1,2,7)             -2.012          estimate D2E/DX2                !
 ! D5    D(4,1,3,8)           -142.0494         estimate D2E/DX2                !
 ! D6    D(4,1,3,9)              2.1587         estimate D2E/DX2                !
 ! D7    D(5,1,3,8)              2.0239         estimate D2E/DX2                !
 ! D8    D(5,1,3,9)            146.2321         estimate D2E/DX2                !
 ! D9    D(2,1,4,10)            35.5338         estimate D2E/DX2                !
 ! D10   D(2,1,4,11)           155.3284         estimate D2E/DX2                !
 ! D11   D(2,1,4,12)           -84.2663         estimate D2E/DX2                !
 ! D12   D(3,1,4,10)           -35.5225         estimate D2E/DX2                !
 ! D13   D(3,1,4,11)            84.272          estimate D2E/DX2                !
 ! D14   D(3,1,4,12)          -155.3227         estimate D2E/DX2                !
 ! D15   D(5,1,4,10)          -179.9815         estimate D2E/DX2                !
 ! D16   D(5,1,4,11)           -60.1869         estimate D2E/DX2                !
 ! D17   D(5,1,4,12)            60.2184         estimate D2E/DX2                !
 ! D18   D(6,2,3,8)            143.7568         estimate D2E/DX2                !
 ! D19   D(6,2,3,9)             -0.0306         estimate D2E/DX2                !
 ! D20   D(7,2,3,8)             -0.0187         estimate D2E/DX2                !
 ! D21   D(7,2,3,9)           -143.8061         estimate D2E/DX2                !
 --------------------------------------------------------------------------------
 Trust Radius=3.00D-01 FncErr=1.00D-07 GrdErr=1.00D-07
 Number of steps in this run=     64 maximum allowed number of steps=    100.
 GradGradGradGradGradGradGradGradGradGradGradGradGradGradGradGradGradGrad

                          Input orientation:                          
 ---------------------------------------------------------------------
 Center     Atomic      Atomic             Coordinates (Angstroms)
 Number     Number       Type             X           Y           Z
 ---------------------------------------------------------------------
      1          6           0        1.957900    1.479400    1.713000
      2          6           0        3.112500    2.130000    0.990100
      3          6           0        3.069600    0.627300    1.150100
      4          6           0        0.578400    1.451900    1.089800
      5          1           0        1.958600    1.594800    2.796400
      6          1           0        2.924800    2.541000    0.000700
      7          1           0        3.841500    2.690400    1.569400
      8          1           0        3.769500    0.160900    1.838500
      9          1           0        2.852600    0.028400    0.268500
     10          1           0        0.642000    1.333800    0.001200
     11          1           0       -0.019900    0.618400    1.478700
     12          1           0        0.029800    2.380800    1.290400
 ---------------------------------------------------------------------
                    Distance matrix (angstroms):
                    1          2          3          4          5
     1  C    0.000000
     2  C    1.509624   0.000000
     3  C    1.509572   1.511803   0.000000
     4  C    1.513986   2.625152   2.624820   0.000000
     5  H    1.089529   2.209218   2.209226   2.199513   0.000000
     6  H    2.234695   1.087688   2.237037   2.806754   3.105604
     7  H    2.243901   1.086774   2.242326   3.523027   2.500236
     8  H    2.244123   2.242496   1.086869   3.522833   2.500600
     9  H    2.234383   2.237181   1.087653   2.805864   3.105338
    10  H    2.164036   2.777630   2.777113   1.096833   3.100758
    11  H    2.169772   3.512206   3.106939   1.097237   2.569855
    12  H    2.169950   3.107430   3.512098   1.097296   2.570234
                    6          7          8          9         10
     6  H    0.000000
     7  H    1.823041   0.000000
     8  H    3.123444   2.544793   0.000000
     9  H    2.527862   3.123541   1.822954   0.000000
    10  H    2.582345   3.812665   3.812168   2.581138   0.000000
    11  H    3.814726   4.383129   3.833838   3.172371   1.770004
    12  H    3.173329   3.834417   4.383346   3.813957   1.770038
                   11         12
    11  H    0.000000
    12  H    1.773127   0.000000
 Stoichiometry    C4H8
 Framework group  C1[X(C4H8)]
 Deg. of freedom    30
 Full point group                 C1      NOp   1
 Largest Abelian subgroup         C1      NOp   1
 Largest concise Abelian subgroup C1      NOp   1
                         Standard orientation:                         
 ---------------------------------------------------------------------
 Center     Atomic      Atomic             Coordinates (Angstroms)
 Number     Number       Type             X           Y           Z
 ---------------------------------------------------------------------
      1          6           0        0.181680   -0.000273    0.498944
      2          6           0       -0.958395   -0.755789   -0.140110
      3          6           0       -0.957934    0.756013   -0.139899
      4          6           0        1.555629   -0.000079   -0.136995
      5          1           0        0.191529   -0.000492    1.588429
      6          1           0       -0.765468   -1.263628   -1.082418
      7          1           0       -1.667002   -1.272065    0.502084
      8          1           0       -1.666440    1.272727    0.502214
      9          1           0       -0.764227    1.264234   -1.081800
     10          1           0        1.481395    0.000470   -1.231313
     11          1           0        2.132133    0.886322    0.156030
     12          1           0        2.132202   -0.886805    0.155131
 ---------------------------------------------------------------------
 Rotational constants (GHZ):     15.5813968      6.2930882      5.5272478
 Standard basis: 6-31G(d) (6D, 7F)
 There are    76 symmetry adapted cartesian basis functions of A   symmetry.
 There are    76 symmetry adapted basis functions of A   symmetry.
    76 basis functions,   144 primitive gaussians,    76 cartesian basis functions
    16 alpha electrons       16 beta electrons
       nuclear repulsion energy       123.8676469173 Hartrees.
 NAtoms=   12 NActive=   12 NUniq=   12 SFac= 1.00D+00 NAtFMM=   60 NAOKFM=F Big=F
 Integral buffers will be    131072 words long.
 Raffenetti 1 integral format.
 Two-electron integral symmetry is turned on.
 One-electron integrals computed using PRISM.
 NBasis=    76 RedAO= T EigKep=  4.73D-03  NBF=    76
 NBsUse=    76 1.00D-06 EigRej= -1.00D+00 NBFU=    76
 ExpMin= 1.61D-01 ExpMax= 3.05D+03 ExpMxC= 4.57D+02 IAcc=1 IRadAn=         1 AccDes= 0.00D+00
 Harris functional with IExCor=  205 and IRadAn=       1 diagonalized for initial guess.
 HarFok:  IExCor=  205 AccDes= 0.00D+00 IRadAn=         1 IDoV= 1 UseB2=F ITyADJ=14
 ICtDFT=  3500011 ScaDFX=  1.000000  1.000000  1.000000  1.000000
 FoFCou: FMM=F IPFlag=           0 FMFlag=      100000 FMFlg1=           0
         NFxFlg=           0 DoJE=T BraDBF=F KetDBF=T FulRan=T
         wScrn=  0.000000 ICntrl=     500 IOpCl=  0 I1Cent=   200000004 NGrid=           0
         NMat0=    1 NMatS0=      1 NMatT0=    0 NMatD0=    1 NMtDS0=    0 NMtDT0=    0
 Petite list used in FoFCou.
 Keep R1 ints in memory in canonical form, NReq=5182797.
 Requested convergence on RMS density matrix=1.00D-08 within 128 cycles.
 Requested convergence on MAX density matrix=1.00D-06.
 Requested convergence on             energy=1.00D-06.
 No special actions if energy rises.
 SCF Done:  E(RHF) =  -156.095023051     A.U. after   11 cycles
            NFock= 11  Conv=0.50D-08     -V/T= 2.0016

 **********************************************************************

            Population analysis using the SCF density.

 **********************************************************************

 Orbital symmetries:
       Occupied  (A) (A) (A) (A) (A) (A) (A) (A) (A) (A) (A) (A)
                 (A) (A) (A) (A)
       Virtual   (A) (A) (A) (A) (A) (A) (A) (A) (A) (A) (A) (A)
                 (A) (A) (A) (A) (A) (A) (A) (A) (A) (A) (A) (A)
                 (A) (A) (A) (A) (A) (A) (A) (A) (A) (A) (A) (A)
                 (A) (A) (A) (A) (A) (A) (A) (A) (A) (A) (A) (A)
                 (A) (A) (A) (A) (A) (A) (A) (A) (A) (A) (A) (A)
 The electronic state is 1-A.
 Alpha  occ. eigenvalues --  -11.22862 -11.22052 -11.21991 -11.21638  -1.13528
 Alpha  occ. eigenvalues --   -0.95706  -0.81475  -0.77211  -0.65973  -0.61013
 Alpha  occ. eigenvalues --   -0.56109  -0.53910  -0.50640  -0.48968  -0.40754
 Alpha  occ. eigenvalues --   -0.39745
 Alpha virt. eigenvalues --    0.24226   0.25892   0.28549   0.30418   0.31220
 Alpha virt. eigenvalues --    0.32696   0.33205   0.34830   0.38275   0.42207
 Alpha virt. eigenvalues --    0.43246   0.48860   0.67665   0.71950   0.73624
 Alpha virt. eigenvalues --    0.76901   0.81811   0.85630   0.89520   0.91514
 Alpha virt. eigenvalues --    0.97197   0.97927   1.01032   1.05902   1.13058
 Alpha virt. eigenvalues --    1.14589   1.16906   1.18152   1.21058   1.22294
 Alpha virt. eigenvalues --    1.23554   1.24430   1.28729   1.45957   1.52709
 Alpha virt. eigenvalues --    1.61833   1.90472   1.92368   2.03628   2.14122
 Alpha virt. eigenvalues --    2.15414   2.20155   2.24470   2.28789   2.41245
 Alpha virt. eigenvalues --    2.43329   2.48772   2.62021   2.62176   2.67306
 Alpha virt. eigenvalues --    2.74107   2.84872   2.91226   2.96176   3.05514
 Alpha virt. eigenvalues --    3.14737   4.54236   4.68642   4.83108   4.94074
          Condensed to atoms (all electrons):
               1          2          3          4          5          6
     1  C    5.112162   0.264656   0.264665   0.348074   0.397778  -0.028563
     2  C    0.264656   5.198525   0.219658  -0.037470  -0.026447   0.396306
     3  C    0.264665   0.219658   5.198589  -0.037508  -0.026450  -0.023358
     4  C    0.348074  -0.037470  -0.037508   5.053178  -0.029353  -0.002878
     5  H    0.397778  -0.026447  -0.026450  -0.029353   0.510913   0.001708
     6  H   -0.028563   0.396306  -0.023358  -0.002878   0.001708   0.502346
     7  H   -0.024386   0.395680  -0.022223   0.001777  -0.003555  -0.020911
     8  H   -0.024373  -0.022225   0.395661   0.001778  -0.003555   0.001306
     9  H   -0.028598  -0.023339   0.396327  -0.002889   0.001711  -0.003644
    10  H   -0.042869  -0.001418  -0.001426   0.395551   0.003353   0.001365
    11  H   -0.039016   0.004544  -0.004065   0.390809  -0.001893  -0.000038
    12  H   -0.039007  -0.004061   0.004546   0.390800  -0.001890   0.000832
               7          8          9         10         11         12
     1  C   -0.024386  -0.024373  -0.028598  -0.042869  -0.039016  -0.039007
     2  C    0.395680  -0.022225  -0.023339  -0.001418   0.004544  -0.004061
     3  C   -0.022223   0.395661   0.396327  -0.001426  -0.004065   0.004546
     4  C    0.001777   0.001778  -0.002889   0.395551   0.390809   0.390800
     5  H   -0.003555  -0.003555   0.001711   0.003353  -0.001893  -0.001890
     6  H   -0.020911   0.001306  -0.003644   0.001365  -0.000038   0.000832
     7  H    0.497984  -0.003384   0.001306  -0.000006  -0.000064   0.000065
     8  H   -0.003384   0.498046  -0.020928  -0.000006   0.000065  -0.000064
     9  H    0.001306  -0.020928   0.502375   0.001369   0.000833  -0.000038
    10  H   -0.000006  -0.000006   0.001369   0.545485  -0.027990  -0.027994
    11  H   -0.000064   0.000065   0.000833  -0.027990   0.545495  -0.029945
    12  H    0.000065  -0.000064  -0.000038  -0.027994  -0.029945   0.545513
 Mulliken charges:
               1
     1  C   -0.160521
     2  C   -0.364410
     3  C   -0.364416
     4  C   -0.471868
     5  H    0.177681
     6  H    0.175530
     7  H    0.177719
     8  H    0.177678
     9  H    0.175515
    10  H    0.154586
    11  H    0.161264
    12  H    0.161243
 Sum of Mulliken charges =  -0.00000
 Mulliken charges with hydrogens summed into heavy atoms:
               1
     1  C    0.017159
     2  C   -0.011161
     3  C   -0.011222
     4  C    0.005224
 Electronic spatial extent (au):  <R**2>=            300.3366
 Charge=             -0.0000 electrons
 Dipole moment (field-independent basis, Debye):
    X=              0.0645    Y=              0.0002    Z=              0.0772  Tot=              0.1006
 Quadrupole moment (field-independent basis, Debye-Ang):
   XX=            -27.1956   YY=            -27.1525   ZZ=            -25.7766
   XY=              0.0010   XZ=             -0.6939   YZ=             -0.0002
 Traceless Quadrupole moment (field-independent basis, Debye-Ang):
   XX=             -0.4874   YY=             -0.4443   ZZ=              0.9317
   XY=              0.0010   XZ=             -0.6939   YZ=             -0.0002
 Octapole moment (field-independent basis, Debye-Ang**2):
  XXX=              0.5009  YYY=              0.0030  ZZZ=              0.0581  XYY=             -0.9755
  XXY=             -0.0021  XXZ=              2.6661  XZZ=             -0.2906  YZZ=             -0.0009
  YYZ=             -0.7045  XYZ=             -0.0008
 Hexadecapole moment (field-independent basis, Debye-Ang**3):
 XXXX=           -250.6296 YYYY=           -100.6693 ZZZZ=            -63.1737 XXXY=              0.0042
 XXXZ=             -3.4436 YYYX=             -0.0018 YYYZ=             -0.0008 ZZZX=             -0.7924
 ZZZY=             -0.0003 XXYY=            -53.3838 XXZZ=            -52.6053 YYZZ=            -26.6542
 XXYZ=              0.0023 YYXZ=             -0.0240 ZZXY=              0.0036
 N-N= 1.238676469173D+02 E-N=-6.102919371095D+02  KE= 1.558380906251D+02
 Calling FoFJK, ICntrl=      2127 FMM=F ISym2X=0 I1Cent= 0 IOpClX= 0 NMat=1 NMatS=1 NMatT=0.
 ***** Axes restored to original set *****
 -------------------------------------------------------------------
 Center     Atomic                   Forces (Hartrees/Bohr)
 Number     Number              X              Y              Z
 -------------------------------------------------------------------
      1        6           0.008394753   -0.000018521    0.002107803
      2        6          -0.001730792   -0.002296664    0.000660983
      3        6          -0.001524141    0.002405024    0.000259830
      4        6          -0.005927678   -0.000148967   -0.003367001
      5        1           0.000118136   -0.000878467   -0.008255511
      6        1           0.001416101   -0.003116727    0.007273721
      7        1          -0.005400910   -0.004324515   -0.004029032
      8        1          -0.005220171    0.003718636   -0.004900611
      9        1           0.001658463    0.004509809    0.006413732
     10        1          -0.000487956    0.000803830    0.007380478
     11        1           0.004509747    0.005710318   -0.002415022
     12        1           0.004194450   -0.006363755   -0.001129371
 -------------------------------------------------------------------
 Cartesian Forces:  Max     0.008394753 RMS     0.004212357

 GradGradGradGradGradGradGradGradGradGradGradGradGradGradGradGradGradGrad
 Berny optimization.
 FormGI is forming the generalized inverse of G from B-inverse, IUseBI=4.
 Internal  Forces:  Max     0.008302041 RMS     0.003473288
 Search for a local minimum.
 Step number   1 out of a maximum of   64
 All quantities printed in internal units (Hartrees-Bohrs-Radians)
 Mixed Optimization -- RFO/linear search
 Second derivative matrix not updated -- first step.
 ITU=  0
     Eigenvalues ---    0.00581   0.01830   0.02212   0.03012   0.03013
     Eigenvalues ---    0.03536   0.03857   0.05591   0.05653   0.09911
     Eigenvalues ---    0.10456   0.10995   0.15049   0.16000   0.16000
     Eigenvalues ---    0.16000   0.16000   0.17327   0.25999   0.27719
     Eigenvalues ---    0.30953   0.31318   0.33983   0.33990   0.34035
     Eigenvalues ---    0.34867   0.35081   0.35085   0.35177   0.35188
 RFO step:  Lambda=-1.92062683D-03 EMin= 5.80934526D-03
 Linear search not attempted -- first point.
 Iteration  1 RMS(Cart)=  0.01298208 RMS(Int)=  0.00001532
 Iteration  2 RMS(Cart)=  0.00001892 RMS(Int)=  0.00000305
 Iteration  3 RMS(Cart)=  0.00000000 RMS(Int)=  0.00000305
 Variable       Old X    -DE/DX   Delta X   Delta X   Delta X     New X
                                 (Linear)    (Quad)   (Total)
    R1        2.85278  -0.00704   0.00000  -0.02240  -0.02240   2.83038
    R2        2.85268  -0.00701   0.00000  -0.02225  -0.02225   2.83042
    R3        2.86102  -0.00228   0.00000  -0.00732  -0.00732   2.85370
    R4        2.05891  -0.00830   0.00000  -0.02368  -0.02368   2.03523
    R5        2.85689  -0.00679   0.00000  -0.02147  -0.02147   2.83542
    R6        2.05543  -0.00804   0.00000  -0.02279  -0.02279   2.03264
    R7        2.05371  -0.00800   0.00000  -0.02261  -0.02261   2.03109
    R8        2.05388  -0.00806   0.00000  -0.02279  -0.02279   2.03109
    R9        2.05537  -0.00801   0.00000  -0.02271  -0.02271   2.03265
   R10        2.07271  -0.00744   0.00000  -0.02174  -0.02174   2.05098
   R11        2.07348  -0.00765   0.00000  -0.02239  -0.02239   2.05109
   R12        2.07359  -0.00769   0.00000  -0.02250  -0.02250   2.05108
    A1        2.10320  -0.00013   0.00000  -0.00067  -0.00067   2.10252
    A2        2.01532  -0.00002   0.00000  -0.00035  -0.00035   2.01497
    A3        2.10281  -0.00009   0.00000  -0.00030  -0.00030   2.10251
    A4        2.01540  -0.00005   0.00000  -0.00039  -0.00039   2.01502
    A5        1.99525   0.00014   0.00000   0.00091   0.00091   1.99616
    A6        2.05607   0.00023   0.00000   0.00134   0.00134   2.05741
    A7        2.07147  -0.00031   0.00000  -0.00170  -0.00170   2.06977
    A8        2.05665   0.00003   0.00000  -0.00033  -0.00033   2.05632
    A9        2.06595  -0.00015   0.00000  -0.00143  -0.00143   2.06452
   A10        1.98864   0.00014   0.00000   0.00133   0.00133   1.98997
   A11        2.07177  -0.00030   0.00000  -0.00181  -0.00181   2.06996
   A12        2.05571   0.00023   0.00000   0.00170   0.00170   2.05741
   A13        2.06610  -0.00012   0.00000  -0.00141  -0.00141   2.06469
   A14        2.05691  -0.00002   0.00000  -0.00078  -0.00078   2.05614
   A15        1.98840   0.00015   0.00000   0.00147   0.00147   1.98988
   A16        1.93656   0.00034   0.00000   0.00281   0.00282   1.93937
   A17        1.94415  -0.00058   0.00000  -0.00396  -0.00397   1.94019
   A18        1.94434  -0.00060   0.00000  -0.00406  -0.00407   1.94027
   A19        1.87717   0.00021   0.00000   0.00197   0.00197   1.87914
   A20        1.87715   0.00021   0.00000   0.00196   0.00197   1.87911
   A21        1.88141   0.00048   0.00000   0.00164   0.00163   1.88304
    D1       -0.03756  -0.00006   0.00000  -0.00108  -0.00108  -0.03864
    D2        2.47992   0.00009   0.00000   0.00101   0.00101   2.48093
    D3       -2.55260  -0.00009   0.00000  -0.00122  -0.00122  -2.55381
    D4       -0.03512   0.00005   0.00000   0.00088   0.00088  -0.03424
    D5       -2.47923  -0.00012   0.00000  -0.00158  -0.00158  -2.48081
    D6        0.03768   0.00006   0.00000   0.00121   0.00121   0.03889
    D7        0.03532  -0.00007   0.00000  -0.00089  -0.00089   0.03443
    D8        2.55223   0.00012   0.00000   0.00190   0.00190   2.55413
    D9        0.62018   0.00001   0.00000  -0.00001  -0.00001   0.62017
   D10        2.71099   0.00011   0.00000   0.00173   0.00172   2.71271
   D11       -1.47072  -0.00008   0.00000  -0.00167  -0.00167  -1.47239
   D12       -0.61999  -0.00001   0.00000  -0.00004  -0.00004  -0.62003
   D13        1.47082   0.00009   0.00000   0.00169   0.00169   1.47251
   D14       -2.71089  -0.00011   0.00000  -0.00171  -0.00170  -2.71259
   D15       -3.14127  -0.00001   0.00000  -0.00029  -0.00029  -3.14156
   D16       -1.05046   0.00009   0.00000   0.00144   0.00144  -1.04902
   D17        1.05101  -0.00010   0.00000  -0.00196  -0.00195   1.04906
   D18        2.50903   0.00009   0.00000  -0.00004  -0.00004   2.50899
   D19       -0.00053   0.00001   0.00000   0.00060   0.00060   0.00007
   D20       -0.00033   0.00001   0.00000   0.00018   0.00018  -0.00014
   D21       -2.50989  -0.00006   0.00000   0.00082   0.00082  -2.50907
         Item               Value     Threshold  Converged?
 Maximum Force            0.008302     0.000450     NO 
 RMS     Force            0.003473     0.000300     NO 
 Maximum Displacement     0.030055     0.001800     NO 
 RMS     Displacement     0.012980     0.001200     NO 
 Predicted change in Energy=-9.658003D-04
 GradGradGradGradGradGradGradGradGradGradGradGradGradGradGradGradGradGrad

                          Input orientation:                          
 ---------------------------------------------------------------------
 Center     Atomic      Atomic             Coordinates (Angstroms)
 Number     Number       Type             X           Y           Z
 ---------------------------------------------------------------------
      1          6           0        1.960820    1.478785    1.709566
      2          6           0        3.105870    2.124503    0.991771
      3          6           0        3.063514    0.633110    1.150735
      4          6           0        0.584898    1.451594    1.087838
      5          1           0        1.962420    1.592943    2.780496
      6          1           0        2.921306    2.530426    0.012925
      7          1           0        3.826621    2.677691    1.565978
      8          1           0        3.755529    0.173536    1.832731
      9          1           0        2.850656    0.041308    0.278125
     10          1           0        0.644860    1.334966    0.010459
     11          1           0       -0.004360    0.626932    1.476137
     12          1           0        0.045167    2.371307    1.290038
 ---------------------------------------------------------------------
                    Distance matrix (angstroms):
                    1          2          3          4          5
     1  C    0.000000
     2  C    1.497772   0.000000
     3  C    1.497796   1.500439   0.000000
     4  C    1.510115   2.611003   2.611017   0.000000
     5  H    1.076998   2.188509   2.188562   2.186924   0.000000
     6  H    2.215191   1.075628   2.216899   2.788928   3.075351
     7  H    2.222432   1.074808   2.221501   3.498671   2.475273
     8  H    2.222572   2.221608   1.074808   3.498743   2.475523
     9  H    2.215214   2.216783   1.075633   2.788942   3.075450
    10  H    2.153927   2.764582   2.764547   1.085330   3.078249
    11  H    2.154548   3.485809   3.085089   1.085389   2.550050
    12  H    2.154605   3.085090   3.485850   1.085387   2.550132
                    6          7          8          9         10
     6  H    0.000000
     7  H    1.803678   0.000000
     8  H    3.092337   2.519326   0.000000
     9  H    2.504203   3.092182   1.803629   0.000000
    10  H    2.571252   3.787632   3.787593   2.571135   0.000000
    11  H    3.784680   4.346275   3.803879   3.151080   1.752430
    12  H    3.150953   3.803867   4.346435   3.784657   1.752414
                   11         12
    11  H    0.000000
    12  H    1.754973   0.000000
 Stoichiometry    C4H8
 Framework group  C1[X(C4H8)]
 Deg. of freedom    30
 Full point group                 C1      NOp   1
 Largest Abelian subgroup         C1      NOp   1
 Largest concise Abelian subgroup C1      NOp   1
                         Standard orientation:                         
 ---------------------------------------------------------------------
 Center     Atomic      Atomic             Coordinates (Angstroms)
 Number     Number       Type             X           Y           Z
 ---------------------------------------------------------------------
      1          6           0        0.177585   -0.000023    0.496213
      2          6           0       -0.952115   -0.750222   -0.139634
      3          6           0       -0.952146    0.750217   -0.139586
      4          6           0        1.548776    0.000025   -0.136465
      5          1           0        0.185055   -0.000111    1.573185
      6          1           0       -0.761132   -1.252158   -1.071600
      7          1           0       -1.653431   -1.259621    0.495882
      8          1           0       -1.653511    1.259705    0.495804
      9          1           0       -0.761227    1.252045   -1.071630
     10          1           0        1.479664    0.000146   -1.219593
     11          1           0        2.115967    0.877491    0.157505
     12          1           0        2.116015   -0.877482    0.157280
 ---------------------------------------------------------------------
 Rotational constants (GHZ):     15.8420642      6.3697788      5.5981772
 Standard basis: 6-31G(d) (6D, 7F)
 There are    76 symmetry adapted cartesian basis functions of A   symmetry.
 There are    76 symmetry adapted basis functions of A   symmetry.
    76 basis functions,   144 primitive gaussians,    76 cartesian basis functions
    16 alpha electrons       16 beta electrons
       nuclear repulsion energy       124.8111347167 Hartrees.
 NAtoms=   12 NActive=   12 NUniq=   12 SFac= 1.00D+00 NAtFMM=   60 NAOKFM=F Big=F
 Integral buffers will be    131072 words long.
 Raffenetti 1 integral format.
 Two-electron integral symmetry is turned on.
 One-electron integrals computed using PRISM.
 NBasis=    76 RedAO= T EigKep=  4.56D-03  NBF=    76
 NBsUse=    76 1.00D-06 EigRej= -1.00D+00 NBFU=    76
 Initial guess from the checkpoint file:  "Methylcyclopropane-opt.chk"
 B after Tr=     0.000000    0.000000    0.000000
         Rot=    1.000000    0.000103    0.000471   -0.000080 Ang=   0.06 deg.
 ExpMin= 1.61D-01 ExpMax= 3.05D+03 ExpMxC= 4.57D+02 IAcc=1 IRadAn=         1 AccDes= 0.00D+00
 Harris functional with IExCor=  205 and IRadAn=       1 diagonalized for initial guess.
 HarFok:  IExCor=  205 AccDes= 0.00D+00 IRadAn=         1 IDoV= 1 UseB2=F ITyADJ=14
 ICtDFT=  3500011 ScaDFX=  1.000000  1.000000  1.000000  1.000000
 FoFCou: FMM=F IPFlag=           0 FMFlag=      100000 FMFlg1=           0
         NFxFlg=           0 DoJE=T BraDBF=F KetDBF=T FulRan=T
         wScrn=  0.000000 ICntrl=     500 IOpCl=  0 I1Cent=   200000004 NGrid=           0
         NMat0=    1 NMatS0=      1 NMatT0=    0 NMatD0=    1 NMtDS0=    0 NMtDT0=    0
 Petite list used in FoFCou.
 Keep R1 ints in memory in canonical form, NReq=5182913.
 Requested convergence on RMS density matrix=1.00D-08 within 128 cycles.
 Requested convergence on MAX density matrix=1.00D-06.
 Requested convergence on             energy=1.00D-06.
 No special actions if energy rises.
 SCF Done:  E(RHF) =  -156.095919788     A.U. after    9 cycles
            NFock=  9  Conv=0.51D-08     -V/T= 2.0004
 Calling FoFJK, ICntrl=      2127 FMM=F ISym2X=0 I1Cent= 0 IOpClX= 0 NMat=1 NMatS=1 NMatT=0.
 ***** Axes restored to original set *****
 -------------------------------------------------------------------
 Center     Atomic                   Forces (Hartrees/Bohr)
 Number     Number              X              Y              Z
 -------------------------------------------------------------------
      1        6           0.001562636   -0.000127145   -0.000745311
      2        6          -0.000592641   -0.000837269    0.000364374
      3        6          -0.000558943    0.000930116    0.000133544
      4        6          -0.000801574    0.000009585   -0.000056466
      5        1          -0.000265813    0.000085187    0.000772441
      6        1          -0.000077119    0.000444897   -0.000731648
      7        1           0.000648075    0.000479629    0.000441765
      8        1           0.000621956   -0.000394093    0.000546542
      9        1          -0.000119554   -0.000592116   -0.000611845
     10        1           0.000196591   -0.000061280   -0.000510484
     11        1          -0.000325418   -0.000530032    0.000255191
     12        1          -0.000288196    0.000592520    0.000141898
 -------------------------------------------------------------------
 Cartesian Forces:  Max     0.001562636 RMS     0.000554976

 GradGradGradGradGradGradGradGradGradGradGradGradGradGradGradGradGradGrad
 Berny optimization.
 Using GEDIIS/GDIIS optimizer.
 FormGI is forming the generalized inverse of G from B-inverse, IUseBI=4.
 Internal  Forces:  Max     0.001180048 RMS     0.000349493
 Search for a local minimum.
 Step number   2 out of a maximum of   64
 All quantities printed in internal units (Hartrees-Bohrs-Radians)
 Mixed Optimization -- En-DIIS/RFO-DIIS
 Update second derivatives using D2CorX and points    1    2
 DE= -8.97D-04 DEPred=-9.66D-04 R= 9.28D-01
 TightC=F SS=  1.41D+00  RLast= 7.56D-02 DXNew= 5.0454D-01 2.2693D-01
 Trust test= 9.28D-01 RLast= 7.56D-02 DXMaxT set to 3.00D-01
 ITU=  1  0
 Use linear search instead of GDIIS.
     Eigenvalues ---    0.00581   0.01830   0.02211   0.03011   0.03012
     Eigenvalues ---    0.03534   0.03860   0.05633   0.05649   0.09890
     Eigenvalues ---    0.10456   0.11009   0.15038   0.15976   0.16000
     Eigenvalues ---    0.16000   0.16010   0.17327   0.25953   0.27680
     Eigenvalues ---    0.30339   0.31380   0.33986   0.34018   0.34221
     Eigenvalues ---    0.34908   0.35083   0.35130   0.35183   0.38476
 RFO step:  Lambda=-8.42908433D-06 EMin= 5.80934537D-03
 Quartic linear search produced a step of -0.06981.
 Iteration  1 RMS(Cart)=  0.00129473 RMS(Int)=  0.00000080
 Iteration  2 RMS(Cart)=  0.00000080 RMS(Int)=  0.00000029
 Variable       Old X    -DE/DX   Delta X   Delta X   Delta X     New X
                                 (Linear)    (Quad)   (Total)
    R1        2.83038  -0.00001   0.00156  -0.00197  -0.00041   2.82997
    R2        2.83042  -0.00004   0.00155  -0.00203  -0.00048   2.82995
    R3        2.85370   0.00118   0.00051   0.00298   0.00349   2.85720
    R4        2.03523   0.00078   0.00165   0.00026   0.00191   2.03714
    R5        2.83542  -0.00000   0.00150  -0.00123   0.00026   2.83568
    R6        2.03264   0.00085   0.00159   0.00050   0.00209   2.03473
    R7        2.03109   0.00092   0.00158   0.00069   0.00227   2.03336
    R8        2.03109   0.00092   0.00159   0.00067   0.00227   2.03336
    R9        2.03265   0.00085   0.00159   0.00050   0.00209   2.03474
   R10        2.05098   0.00052   0.00152  -0.00024   0.00128   2.05226
   R11        2.05109   0.00067   0.00156   0.00012   0.00168   2.05277
   R12        2.05108   0.00067   0.00157   0.00011   0.00168   2.05277
    A1        2.10252   0.00015   0.00005   0.00085   0.00089   2.10341
    A2        2.01497   0.00003   0.00002   0.00063   0.00065   2.01562
    A3        2.10251   0.00014   0.00002   0.00086   0.00088   2.10339
    A4        2.01502   0.00004   0.00003   0.00058   0.00060   2.01562
    A5        1.99616  -0.00023  -0.00006  -0.00189  -0.00195   1.99421
    A6        2.05741   0.00005  -0.00009   0.00039   0.00030   2.05771
    A7        2.06977   0.00002   0.00012   0.00018   0.00030   2.07007
    A8        2.05632   0.00010   0.00002   0.00091   0.00093   2.05726
    A9        2.06452  -0.00003   0.00010  -0.00052  -0.00042   2.06410
   A10        1.98997  -0.00008  -0.00009  -0.00052  -0.00061   1.98935
   A11        2.06996   0.00001   0.00013   0.00008   0.00020   2.07016
   A12        2.05741   0.00005  -0.00012   0.00032   0.00021   2.05761
   A13        2.06469  -0.00005   0.00010  -0.00064  -0.00054   2.06415
   A14        2.05614   0.00011   0.00005   0.00107   0.00112   2.05726
   A15        1.98988  -0.00007  -0.00010  -0.00045  -0.00055   1.98933
   A16        1.93937  -0.00023  -0.00020  -0.00126  -0.00146   1.93792
   A17        1.94019  -0.00001   0.00028  -0.00027   0.00000   1.94019
   A18        1.94027  -0.00002   0.00028  -0.00037  -0.00009   1.94018
   A19        1.87914   0.00011  -0.00014   0.00064   0.00050   1.87964
   A20        1.87911   0.00011  -0.00014   0.00066   0.00052   1.87963
   A21        1.88304   0.00005  -0.00011   0.00072   0.00061   1.88365
    D1       -0.03864  -0.00003   0.00008   0.00002   0.00010  -0.03854
    D2        2.48093  -0.00007  -0.00007  -0.00006  -0.00013   2.48080
    D3       -2.55381   0.00012   0.00008   0.00137   0.00146  -2.55235
    D4       -0.03424   0.00008  -0.00006   0.00129   0.00123  -0.03301
    D5       -2.48081   0.00007   0.00011  -0.00004   0.00007  -2.48073
    D6        0.03889   0.00002  -0.00008  -0.00027  -0.00036   0.03853
    D7        0.03443  -0.00008   0.00006  -0.00146  -0.00139   0.03304
    D8        2.55413  -0.00014  -0.00013  -0.00169  -0.00182   2.55231
    D9        0.62017   0.00007   0.00000   0.00048   0.00048   0.62066
   D10        2.71271   0.00004  -0.00012   0.00026   0.00014   2.71286
   D11       -1.47239   0.00009   0.00012   0.00074   0.00086  -1.47153
   D12       -0.62003  -0.00007   0.00000  -0.00062  -0.00062  -0.62064
   D13        1.47251  -0.00009  -0.00012  -0.00084  -0.00096   1.47155
   D14       -2.71259  -0.00004   0.00012  -0.00036  -0.00024  -2.71283
   D15       -3.14156  -0.00000   0.00002  -0.00003  -0.00000  -3.14157
   D16       -1.04902  -0.00002  -0.00010  -0.00025  -0.00035  -1.04937
   D17        1.04906   0.00002   0.00014   0.00024   0.00037   1.04943
   D18        2.50899  -0.00004   0.00000  -0.00033  -0.00033   2.50866
   D19        0.00007  -0.00000  -0.00004  -0.00014  -0.00018  -0.00012
   D20       -0.00014   0.00000  -0.00001   0.00006   0.00005  -0.00009
   D21       -2.50907   0.00004  -0.00006   0.00026   0.00020  -2.50887
         Item               Value     Threshold  Converged?
 Maximum Force            0.001180     0.000450     NO 
 RMS     Force            0.000349     0.000300     NO 
 Maximum Displacement     0.003175     0.001800     NO 
 RMS     Displacement     0.001295     0.001200     NO 
 Predicted change in Energy=-9.529594D-06
 GradGradGradGradGradGradGradGradGradGradGradGradGradGradGradGradGradGrad

                          Input orientation:                          
 ---------------------------------------------------------------------
 Center     Atomic      Atomic             Coordinates (Angstroms)
 Number     Number       Type             X           Y           Z
 ---------------------------------------------------------------------
      1          6           0        1.961484    1.478709    1.709038
      2          6           0        3.106448    2.124576    0.991687
      3          6           0        3.064066    0.633043    1.150650
      4          6           0        0.583327    1.451615    1.087763
      5          1           0        1.961937    1.592936    2.780978
      6          1           0        2.921970    2.531851    0.012172
      7          1           0        3.828301    2.677957    1.566572
      8          1           0        3.757174    0.173446    1.833411
      9          1           0        2.851047    0.039642    0.277803
     10          1           0        0.643948    1.334979    0.009739
     11          1           0       -0.005999    0.626069    1.476565
     12          1           0        0.043596    2.372277    1.290422
 ---------------------------------------------------------------------
                    Distance matrix (angstroms):
                    1          2          3          4          5
     1  C    0.000000
     2  C    1.497557   0.000000
     3  C    1.497543   1.500578   0.000000
     4  C    1.511964   2.613091   2.613060   0.000000
     5  H    1.078008   2.189545   2.189532   2.188039   0.000000
     6  H    2.216077   1.076734   2.218512   2.791605   3.077257
     7  H    2.223398   1.076009   2.222323   3.501861   2.476967
     8  H    2.223439   2.222352   1.076007   3.501859   2.477037
     9  H    2.216003   2.218515   1.076738   2.791462   3.077194
    10  H    2.155036   2.766150   2.766110   1.086009   3.079514
    11  H    2.156857   3.488260   3.087324   1.086278   2.551293
    12  H    2.156850   3.087339   3.488225   1.086278   2.551306
                    6          7          8          9         10
     6  H    0.000000
     7  H    1.805255   0.000000
     8  H    3.094600   2.519689   0.000000
     9  H    2.507329   3.094618   1.805238   0.000000
    10  H    2.573303   3.790438   3.790398   2.573139   0.000000
    11  H    3.788068   4.349736   3.807057   3.153354   1.754015
    12  H    3.153479   3.807058   4.349754   3.787924   1.754013
                   11         12
    11  H    0.000000
    12  H    1.756802   0.000000
 Stoichiometry    C4H8
 Framework group  C1[X(C4H8)]
 Deg. of freedom    30
 Full point group                 C1      NOp   1
 Largest Abelian subgroup         C1      NOp   1
 Largest concise Abelian subgroup C1      NOp   1
                         Standard orientation:                         
 ---------------------------------------------------------------------
 Center     Atomic      Atomic             Coordinates (Angstroms)
 Number     Number       Type             X           Y           Z
 ---------------------------------------------------------------------
      1          6           0        0.176898   -0.000018    0.495825
      2          6           0       -0.952667   -0.750280   -0.139682
      3          6           0       -0.952622    0.750299   -0.139663
      4          6           0        1.550397   -0.000011   -0.136262
      5          1           0        0.185405   -0.000028    1.573800
      6          1           0       -0.761652   -1.253648   -1.072146
      7          1           0       -1.655163   -1.259800    0.496466
      8          1           0       -1.655127    1.259890    0.496415
      9          1           0       -0.761470    1.253681   -1.072096
     10          1           0        1.480740    0.000026   -1.220034
     11          1           0        2.117633    0.878371    0.158169
     12          1           0        2.117603   -0.878431    0.158109
 ---------------------------------------------------------------------
 Rotational constants (GHZ):     15.8337934      6.3607631      5.5904407
 Standard basis: 6-31G(d) (6D, 7F)
 There are    76 symmetry adapted cartesian basis functions of A   symmetry.
 There are    76 symmetry adapted basis functions of A   symmetry.
    76 basis functions,   144 primitive gaussians,    76 cartesian basis functions
    16 alpha electrons       16 beta electrons
       nuclear repulsion energy       124.7416184669 Hartrees.
 NAtoms=   12 NActive=   12 NUniq=   12 SFac= 1.00D+00 NAtFMM=   60 NAOKFM=F Big=F
 Integral buffers will be    131072 words long.
 Raffenetti 1 integral format.
 Two-electron integral symmetry is turned on.
 One-electron integrals computed using PRISM.
 NBasis=    76 RedAO= T EigKep=  4.57D-03  NBF=    76
 NBsUse=    76 1.00D-06 EigRej= -1.00D+00 NBFU=    76
 Initial guess from the checkpoint file:  "Methylcyclopropane-opt.chk"
 B after Tr=    -0.000000   -0.000000   -0.000000
         Rot=    1.000000    0.000006    0.000069    0.000016 Ang=   0.01 deg.
 Keep R1 ints in memory in canonical form, NReq=5182913.
 Requested convergence on RMS density matrix=1.00D-08 within 128 cycles.
 Requested convergence on MAX density matrix=1.00D-06.
 Requested convergence on             energy=1.00D-06.
 No special actions if energy rises.
 SCF Done:  E(RHF) =  -156.095929692     A.U. after    8 cycles
            NFock=  8  Conv=0.34D-08     -V/T= 2.0005
 Calling FoFJK, ICntrl=      2127 FMM=F ISym2X=0 I1Cent= 0 IOpClX= 0 NMat=1 NMatS=1 NMatT=0.
 ***** Axes restored to original set *****
 -------------------------------------------------------------------
 Center     Atomic                   Forces (Hartrees/Bohr)
 Number     Number              X              Y              Z
 -------------------------------------------------------------------
      1        6           0.000302342   -0.000006401    0.000011128
      2        6          -0.000138301   -0.000119017   -0.000009507
      3        6          -0.000133428    0.000110561   -0.000044781
      4        6          -0.000175778    0.000006283   -0.000004574
      5        1          -0.000135032    0.000011238    0.000047905
      6        1           0.000062908    0.000064657   -0.000010679
      7        1           0.000006862    0.000026040   -0.000010620
      8        1           0.000004245   -0.000025615    0.000001039
      9        1           0.000066427   -0.000065713    0.000001450
     10        1           0.000023171   -0.000004781   -0.000038746
     11        1           0.000058681   -0.000006191    0.000029607
     12        1           0.000057902    0.000008940    0.000027779
 -------------------------------------------------------------------
 Cartesian Forces:  Max     0.000302342 RMS     0.000081262

 GradGradGradGradGradGradGradGradGradGradGradGradGradGradGradGradGradGrad
 Berny optimization.
 Using GEDIIS/GDIIS optimizer.
 FormGI is forming the generalized inverse of G from B-inverse, IUseBI=4.
 Internal  Forces:  Max     0.000088095 RMS     0.000038201
 Search for a local minimum.
 Step number   3 out of a maximum of   64
 All quantities printed in internal units (Hartrees-Bohrs-Radians)
 Mixed Optimization -- En-DIIS/RFO-DIIS
 Swapping is turned off.
 Update second derivatives using D2CorX and points    1    2    3
 DE= -9.90D-06 DEPred=-9.53D-06 R= 1.04D+00
 TightC=F SS=  1.41D+00  RLast= 8.20D-03 DXNew= 5.0454D-01 2.4590D-02
 Trust test= 1.04D+00 RLast= 8.20D-03 DXMaxT set to 3.00D-01
 ITU=  1  1  0
     Eigenvalues ---    0.00581   0.01832   0.02213   0.03010   0.03012
     Eigenvalues ---    0.03520   0.03862   0.05648   0.05659   0.09548
     Eigenvalues ---    0.10454   0.10586   0.15093   0.15535   0.16000
     Eigenvalues ---    0.16000   0.16141   0.17329   0.25972   0.27678
     Eigenvalues ---    0.29954   0.31527   0.33986   0.33997   0.34267
     Eigenvalues ---    0.34886   0.35083   0.35126   0.35183   0.40228
 En-DIIS/RFO-DIIS IScMMF=        0 using points:     3    2
 RFO step:  Lambda=-2.18597819D-07.
 DidBck=F Rises=F RFO-DIIS coefs:    1.05875   -0.05875
 Iteration  1 RMS(Cart)=  0.00039926 RMS(Int)=  0.00000016
 Iteration  2 RMS(Cart)=  0.00000014 RMS(Int)=  0.00000006
 Variable       Old X    -DE/DX   Delta X   Delta X   Delta X     New X
                                 (Linear)    (Quad)   (Total)
    R1        2.82997  -0.00004  -0.00002  -0.00019  -0.00021   2.82976
    R2        2.82995  -0.00003  -0.00003  -0.00015  -0.00018   2.82977
    R3        2.85720   0.00003   0.00021  -0.00000   0.00020   2.85740
    R4        2.03714   0.00005   0.00011   0.00008   0.00019   2.03733
    R5        2.83568  -0.00002   0.00002  -0.00003  -0.00001   2.83567
    R6        2.03473   0.00002   0.00012  -0.00000   0.00012   2.03485
    R7        2.03336   0.00001   0.00013  -0.00004   0.00009   2.03345
    R8        2.03336   0.00001   0.00013  -0.00004   0.00010   2.03345
    R9        2.03474   0.00002   0.00012  -0.00001   0.00011   2.03485
   R10        2.05226   0.00004   0.00008   0.00007   0.00015   2.05241
   R11        2.05277  -0.00002   0.00010  -0.00012  -0.00002   2.05275
   R12        2.05277  -0.00002   0.00010  -0.00012  -0.00002   2.05275
    A1        2.10341   0.00000   0.00005   0.00006   0.00011   2.10353
    A2        2.01562   0.00007   0.00004   0.00054   0.00058   2.01620
    A3        2.10339   0.00000   0.00005   0.00008   0.00013   2.10352
    A4        2.01562   0.00007   0.00004   0.00058   0.00061   2.01623
    A5        1.99421  -0.00009  -0.00011  -0.00078  -0.00090   1.99331
    A6        2.05771   0.00008   0.00002   0.00060   0.00062   2.05833
    A7        2.07007  -0.00004   0.00002  -0.00017  -0.00015   2.06992
    A8        2.05726   0.00003   0.00005   0.00024   0.00029   2.05755
    A9        2.06410   0.00001  -0.00002   0.00004   0.00001   2.06411
   A10        1.98935  -0.00005  -0.00004  -0.00042  -0.00046   1.98890
   A11        2.07016  -0.00005   0.00001  -0.00021  -0.00020   2.06996
   A12        2.05761   0.00009   0.00001   0.00070   0.00071   2.05832
   A13        2.06415   0.00001  -0.00003   0.00003  -0.00000   2.06415
   A14        2.05726   0.00003   0.00007   0.00018   0.00024   2.05750
   A15        1.98933  -0.00004  -0.00003  -0.00041  -0.00044   1.98889
   A16        1.93792   0.00000  -0.00009   0.00009   0.00001   1.93793
   A17        1.94019  -0.00007   0.00000  -0.00051  -0.00051   1.93968
   A18        1.94018  -0.00007  -0.00001  -0.00050  -0.00050   1.93968
   A19        1.87964   0.00004   0.00003   0.00031   0.00034   1.87998
   A20        1.87963   0.00004   0.00003   0.00031   0.00034   1.87997
   A21        1.88365   0.00007   0.00004   0.00035   0.00039   1.88404
    D1       -0.03854  -0.00001   0.00001  -0.00008  -0.00008  -0.03862
    D2        2.48080  -0.00004  -0.00001  -0.00021  -0.00022   2.48058
    D3       -2.55235   0.00005   0.00009   0.00048   0.00056  -2.55179
    D4       -0.03301   0.00002   0.00007   0.00035   0.00042  -0.03259
    D5       -2.48073   0.00003   0.00000   0.00018   0.00018  -2.48055
    D6        0.03853   0.00001  -0.00002   0.00017   0.00015   0.03868
    D7        0.03304  -0.00002  -0.00008  -0.00029  -0.00037   0.03267
    D8        2.55231  -0.00004  -0.00011  -0.00030  -0.00041   2.55190
    D9        0.62066   0.00001   0.00003   0.00007   0.00010   0.62076
   D10        2.71286   0.00001   0.00001   0.00019   0.00019   2.71305
   D11       -1.47153  -0.00000   0.00005  -0.00005   0.00000  -1.47153
   D12       -0.62064  -0.00000  -0.00004  -0.00006  -0.00009  -0.62074
   D13        1.47155   0.00000  -0.00006   0.00006   0.00000   1.47155
   D14       -2.71283  -0.00001  -0.00001  -0.00018  -0.00019  -2.71303
   D15       -3.14157  -0.00000  -0.00000  -0.00004  -0.00004   3.14158
   D16       -1.04937   0.00000  -0.00002   0.00007   0.00005  -1.04932
   D17        1.04943  -0.00001   0.00002  -0.00016  -0.00014   1.04929
   D18        2.50866  -0.00003  -0.00002  -0.00033  -0.00035   2.50832
   D19       -0.00012   0.00000  -0.00001   0.00014   0.00012   0.00001
   D20       -0.00009   0.00000   0.00000   0.00006   0.00007  -0.00003
   D21       -2.50887   0.00003   0.00001   0.00053   0.00054  -2.50833
         Item               Value     Threshold  Converged?
 Maximum Force            0.000088     0.000450     YES
 RMS     Force            0.000038     0.000300     YES
 Maximum Displacement     0.001428     0.001800     YES
 RMS     Displacement     0.000399     0.001200     YES
 Predicted change in Energy=-3.122770D-07
 Optimization completed.
    -- Stationary point found.
                           ----------------------------
                           !   Optimized Parameters   !
                           ! (Angstroms and Degrees)  !
 --------------------------                            --------------------------
 ! Name  Definition              Value          Derivative Info.                !
 --------------------------------------------------------------------------------
 ! R1    R(1,2)                  1.4976         -DE/DX =    0.0                 !
 ! R2    R(1,3)                  1.4975         -DE/DX =    0.0                 !
 ! R3    R(1,4)                  1.512          -DE/DX =    0.0                 !
 ! R4    R(1,5)                  1.078          -DE/DX =    0.0                 !
 ! R5    R(2,3)                  1.5006         -DE/DX =    0.0                 !
 ! R6    R(2,6)                  1.0767         -DE/DX =    0.0                 !
 ! R7    R(2,7)                  1.076          -DE/DX =    0.0                 !
 ! R8    R(3,8)                  1.076          -DE/DX =    0.0                 !
 ! R9    R(3,9)                  1.0767         -DE/DX =    0.0                 !
 ! R10   R(4,10)                 1.086          -DE/DX =    0.0                 !
 ! R11   R(4,11)                 1.0863         -DE/DX =    0.0                 !
 ! R12   R(4,12)                 1.0863         -DE/DX =    0.0                 !
 ! A1    A(2,1,4)              120.5167         -DE/DX =    0.0                 !
 ! A2    A(2,1,5)              115.4864         -DE/DX =    0.0001              !
 ! A3    A(3,1,4)              120.5153         -DE/DX =    0.0                 !
 ! A4    A(3,1,5)              115.4864         -DE/DX =    0.0001              !
 ! A5    A(4,1,5)              114.2598         -DE/DX =   -0.0001              !
 ! A6    A(1,2,6)              117.8984         -DE/DX =    0.0001              !
 ! A7    A(1,2,7)              118.6063         -DE/DX =    0.0                 !
 ! A8    A(3,2,6)              117.8722         -DE/DX =    0.0                 !
 ! A9    A(3,2,7)              118.2643         -DE/DX =    0.0                 !
 ! A10   A(6,2,7)              113.9816         -DE/DX =    0.0                 !
 ! A11   A(1,3,8)              118.6113         -DE/DX =    0.0                 !
 ! A12   A(1,3,9)              117.8926         -DE/DX =    0.0001              !
 ! A13   A(2,3,8)              118.2671         -DE/DX =    0.0                 !
 ! A14   A(2,3,9)              117.8722         -DE/DX =    0.0                 !
 ! A15   A(8,3,9)              113.98           -DE/DX =    0.0                 !
 ! A16   A(1,4,10)             111.0345         -DE/DX =    0.0                 !
 ! A17   A(1,4,11)             111.1648         -DE/DX =   -0.0001              !
 ! A18   A(1,4,12)             111.1643         -DE/DX =   -0.0001              !
 ! A19   A(10,4,11)            107.6952         -DE/DX =    0.0                 !
 ! A20   A(10,4,12)            107.6951         -DE/DX =    0.0                 !
 ! A21   A(11,4,12)            107.9253         -DE/DX =    0.0001              !
 ! D1    D(4,1,2,6)             -2.2084         -DE/DX =    0.0                 !
 ! D2    D(4,1,2,7)            142.1395         -DE/DX =    0.0                 !
 ! D3    D(5,1,2,6)           -146.2392         -DE/DX =    0.0                 !
 ! D4    D(5,1,2,7)             -1.8913         -DE/DX =    0.0                 !
 ! D5    D(4,1,3,8)           -142.1356         -DE/DX =    0.0                 !
 ! D6    D(4,1,3,9)              2.2078         -DE/DX =    0.0                 !
 ! D7    D(5,1,3,8)              1.8929         -DE/DX =    0.0                 !
 ! D8    D(5,1,3,9)            146.2363         -DE/DX =    0.0                 !
 ! D9    D(2,1,4,10)            35.5611         -DE/DX =    0.0                 !
 ! D10   D(2,1,4,11)           155.4353         -DE/DX =    0.0                 !
 ! D11   D(2,1,4,12)           -84.3125         -DE/DX =    0.0                 !
 ! D12   D(3,1,4,10)           -35.5603         -DE/DX =    0.0                 !
 ! D13   D(3,1,4,11)            84.3138         -DE/DX =    0.0                 !
 ! D14   D(3,1,4,12)          -155.434          -DE/DX =    0.0                 !
 ! D15   D(5,1,4,10)           180.0015         -DE/DX =    0.0                 !
 ! D16   D(5,1,4,11)           -60.1243         -DE/DX =    0.0                 !
 ! D17   D(5,1,4,12)            60.1279         -DE/DX =    0.0                 !
 ! D18   D(6,2,3,8)            143.7359         -DE/DX =    0.0                 !
 ! D19   D(6,2,3,9)             -0.0066         -DE/DX =    0.0                 !
 ! D20   D(7,2,3,8)             -0.0053         -DE/DX =    0.0                 !
 ! D21   D(7,2,3,9)           -143.7478         -DE/DX =    0.0                 !
 --------------------------------------------------------------------------------
 GradGradGradGradGradGradGradGradGradGradGradGradGradGradGradGradGradGrad

                          Input orientation:                          
 ---------------------------------------------------------------------
 Center     Atomic      Atomic             Coordinates (Angstroms)
 Number     Number       Type             X           Y           Z
 ---------------------------------------------------------------------
      1          6           0        1.961484    1.478709    1.709038
      2          6           0        3.106448    2.124576    0.991687
      3          6           0        3.064066    0.633043    1.150650
      4          6           0        0.583327    1.451615    1.087763
      5          1           0        1.961937    1.592936    2.780978
      6          1           0        2.921970    2.531851    0.012172
      7          1           0        3.828301    2.677957    1.566572
      8          1           0        3.757174    0.173446    1.833411
      9          1           0        2.851047    0.039642    0.277803
     10          1           0        0.643948    1.334979    0.009739
     11          1           0       -0.005999    0.626069    1.476565
     12          1           0        0.043596    2.372277    1.290422
 ---------------------------------------------------------------------
                    Distance matrix (angstroms):
                    1          2          3          4          5
     1  C    0.000000
     2  C    1.497557   0.000000
     3  C    1.497543   1.500578   0.000000
     4  C    1.511964   2.613091   2.613060   0.000000
     5  H    1.078008   2.189545   2.189532   2.188039   0.000000
     6  H    2.216077   1.076734   2.218512   2.791605   3.077257
     7  H    2.223398   1.076009   2.222323   3.501861   2.476967
     8  H    2.223439   2.222352   1.076007   3.501859   2.477037
     9  H    2.216003   2.218515   1.076738   2.791462   3.077194
    10  H    2.155036   2.766150   2.766110   1.086009   3.079514
    11  H    2.156857   3.488260   3.087324   1.086278   2.551293
    12  H    2.156850   3.087339   3.488225   1.086278   2.551306
                    6          7          8          9         10
     6  H    0.000000
     7  H    1.805255   0.000000
     8  H    3.094600   2.519689   0.000000
     9  H    2.507329   3.094618   1.805238   0.000000
    10  H    2.573303   3.790438   3.790398   2.573139   0.000000
    11  H    3.788068   4.349736   3.807057   3.153354   1.754015
    12  H    3.153479   3.807058   4.349754   3.787924   1.754013
                   11         12
    11  H    0.000000
    12  H    1.756802   0.000000
 Stoichiometry    C4H8
 Framework group  C1[X(C4H8)]
 Deg. of freedom    30
 Full point group                 C1      NOp   1
 Largest Abelian subgroup         C1      NOp   1
 Largest concise Abelian subgroup C1      NOp   1
                         Standard orientation:                         
 ---------------------------------------------------------------------
 Center     Atomic      Atomic             Coordinates (Angstroms)
 Number     Number       Type             X           Y           Z
 ---------------------------------------------------------------------
      1          6           0        0.176898   -0.000018    0.495825
      2          6           0       -0.952667   -0.750280   -0.139682
      3          6           0       -0.952622    0.750299   -0.139663
      4          6           0        1.550397   -0.000011   -0.136262
      5          1           0        0.185405   -0.000028    1.573800
      6          1           0       -0.761652   -1.253648   -1.072146
      7          1           0       -1.655163   -1.259800    0.496466
      8          1           0       -1.655127    1.259890    0.496415
      9          1           0       -0.761470    1.253681   -1.072096
     10          1           0        1.480740    0.000026   -1.220034
     11          1           0        2.117633    0.878371    0.158169
     12          1           0        2.117603   -0.878431    0.158109
 ---------------------------------------------------------------------
 Rotational constants (GHZ):     15.8337934      6.3607631      5.5904407

 **********************************************************************

            Population analysis using the SCF density.

 **********************************************************************

 Orbital symmetries:
       Occupied  (A) (A) (A) (A) (A) (A) (A) (A) (A) (A) (A) (A)
                 (A) (A) (A) (A)
       Virtual   (A) (A) (A) (A) (A) (A) (A) (A) (A) (A) (A) (A)
                 (A) (A) (A) (A) (A) (A) (A) (A) (A) (A) (A) (A)
                 (A) (A) (A) (A) (A) (A) (A) (A) (A) (A) (A) (A)
                 (A) (A) (A) (A) (A) (A) (A) (A) (A) (A) (A) (A)
                 (A) (A) (A) (A) (A) (A) (A) (A) (A) (A) (A) (A)
 The electronic state is 1-A.
 Alpha  occ. eigenvalues --  -11.22440 -11.21571 -11.21507 -11.21170  -1.14198
 Alpha  occ. eigenvalues --   -0.96046  -0.81803  -0.77556  -0.66468  -0.61398
 Alpha  occ. eigenvalues --   -0.56412  -0.54193  -0.50847  -0.49042  -0.40886
 Alpha  occ. eigenvalues --   -0.39931
 Alpha virt. eigenvalues --    0.24408   0.26133   0.28771   0.30813   0.31654
 Alpha virt. eigenvalues --    0.33028   0.33542   0.35087   0.38516   0.42387
 Alpha virt. eigenvalues --    0.43614   0.49121   0.67138   0.72069   0.73359
 Alpha virt. eigenvalues --    0.76650   0.81458   0.85829   0.90280   0.92581
 Alpha virt. eigenvalues --    0.97292   0.98388   1.01086   1.06156   1.13650
 Alpha virt. eigenvalues --    1.15052   1.17807   1.19115   1.22027   1.23497
 Alpha virt. eigenvalues --    1.24642   1.25654   1.29033   1.46575   1.53270
 Alpha virt. eigenvalues --    1.62238   1.90967   1.93011   2.03969   2.15109
 Alpha virt. eigenvalues --    2.16292   2.21488   2.25724   2.29400   2.42408
 Alpha virt. eigenvalues --    2.44808   2.50331   2.63246   2.63882   2.68795
 Alpha virt. eigenvalues --    2.75738   2.85672   2.93307   2.97100   3.06774
 Alpha virt. eigenvalues --    3.16100   4.55905   4.69346   4.83793   4.94710
          Condensed to atoms (all electrons):
               1          2          3          4          5          6
     1  C    5.108613   0.265931   0.265930   0.351748   0.399996  -0.028867
     2  C    0.265931   5.195115   0.220816  -0.038068  -0.027141   0.398343
     3  C    0.265930   0.220816   5.195118  -0.038069  -0.027144  -0.023751
     4  C    0.351748  -0.038068  -0.038069   5.047209  -0.029370  -0.003109
     5  H    0.399996  -0.027141  -0.027144  -0.029370   0.509746   0.001809
     6  H   -0.028867   0.398343  -0.023751  -0.003109   0.001809   0.500641
     7  H   -0.024946   0.397812  -0.022646   0.001865  -0.003768  -0.021008
     8  H   -0.024942  -0.022646   0.397810   0.001865  -0.003767   0.001379
     9  H   -0.028876  -0.023749   0.398346  -0.003111   0.001809  -0.003794
    10  H   -0.042746  -0.001474  -0.001475   0.397020   0.003463   0.001393
    11  H   -0.039429   0.004747  -0.004210   0.392440  -0.001991  -0.000036
    12  H   -0.039430  -0.004209   0.004747   0.392441  -0.001991   0.000853
               7          8          9         10         11         12
     1  C   -0.024946  -0.024942  -0.028876  -0.042746  -0.039429  -0.039430
     2  C    0.397812  -0.022646  -0.023749  -0.001474   0.004747  -0.004209
     3  C   -0.022646   0.397810   0.398346  -0.001475  -0.004210   0.004747
     4  C    0.001865   0.001865  -0.003111   0.397020   0.392440   0.392441
     5  H   -0.003768  -0.003767   0.001809   0.003463  -0.001991  -0.001991
     6  H   -0.021008   0.001379  -0.003794   0.001393  -0.000036   0.000853
     7  H    0.496747  -0.003590   0.001379  -0.000009  -0.000069   0.000069
     8  H   -0.003590   0.496745  -0.021010  -0.000009   0.000069  -0.000069
     9  H    0.001379  -0.021010   0.500653   0.001393   0.000853  -0.000036
    10  H   -0.000009  -0.000009   0.001393   0.543714  -0.028285  -0.028285
    11  H   -0.000069   0.000069   0.000853  -0.028285   0.543776  -0.030126
    12  H    0.000069  -0.000069  -0.000036  -0.028285  -0.030126   0.543776
 Mulliken charges:
               1
     1  C   -0.162982
     2  C   -0.365477
     3  C   -0.365473
     4  C   -0.472861
     5  H    0.178351
     6  H    0.176148
     7  H    0.178164
     8  H    0.178164
     9  H    0.176142
    10  H    0.155299
    11  H    0.162262
    12  H    0.162263
 Sum of Mulliken charges =   0.00000
 Mulliken charges with hydrogens summed into heavy atoms:
               1
     1  C    0.015369
     2  C   -0.011165
     3  C   -0.011168
     4  C    0.006963
 Electronic spatial extent (au):  <R**2>=            297.1387
 Charge=             -0.0000 electrons
 Dipole moment (field-independent basis, Debye):
    X=              0.0667    Y=              0.0000    Z=              0.0795  Tot=              0.1037
 Quadrupole moment (field-independent basis, Debye-Ang):
   XX=            -27.1109   YY=            -27.0680   ZZ=            -25.6906
   XY=              0.0001   XZ=             -0.6854   YZ=              0.0000
 Traceless Quadrupole moment (field-independent basis, Debye-Ang):
   XX=             -0.4878   YY=             -0.4448   ZZ=              0.9326
   XY=              0.0001   XZ=             -0.6854   YZ=              0.0000
 Octapole moment (field-independent basis, Debye-Ang**2):
  XXX=              0.4549  YYY=              0.0003  ZZZ=              0.0641  XYY=             -0.9126
  XXY=             -0.0000  XXZ=              2.6037  XZZ=             -0.2766  YZZ=             -0.0002
  YYZ=             -0.6826  XYZ=             -0.0002
 Hexadecapole moment (field-independent basis, Debye-Ang**3):
 XXXX=           -247.3559 YYYY=            -98.9499 ZZZZ=            -62.2523 XXXY=              0.0001
 XXXZ=             -3.3258 YYYX=             -0.0004 YYYZ=              0.0001 ZZZX=             -0.8038
 ZZZY=              0.0002 XXYY=            -52.7810 XXZZ=            -51.8097 YYZZ=            -26.2426
 XXYZ=              0.0003 YYXZ=              0.0091 ZZXY=              0.0005
 N-N= 1.247416184669D+02 E-N=-6.121908275373D+02  KE= 1.560250682796D+02
 1\1\GINC-GTX1080DELTA\FOpt\RHF\6-31G(d)\C4H8\MVEROT\16-Apr-2022\0\\# h
 f/6-31G* opt freq\\Optimisation de geometrie\\0,1\C,1.9614842623,1.478
 7089538,1.7090384525\C,3.1064476056,2.1245757159,0.9916872951\C,3.0640
 66255,0.6330427798,1.1506499791\C,0.5833270588,1.4516154326,1.08776251
 69\H,1.9619371448,1.5929357543,2.7809779134\H,2.9219701352,2.531851104
 4,0.0121716967\H,3.8283011181,2.6779567546,1.5665722724\H,3.7571744776
 ,0.1734462069,1.8334106864\H,2.851047077,0.0396417774,0.2778030207\H,0
 .6439484967,1.3349793424,0.0097385048\H,-0.0059993527,0.6260688547,1.4
 765654632\H,0.0435957215,2.3722773233,1.2904221989\\Version=AM64L-G09R
 evD.01\State=1-A\HF=-156.0959297\RMSD=3.433e-09\RMSF=8.126e-05\Dipole=
 -0.0259715,0.0040538,0.0312274\Quadrupole=-0.3540705,-0.3224049,0.6764
 754,0.0556136,0.5151003,0.0926734\PG=C01 [X(C4H8)]\\@


 FROM THE ASHES OF OUR DESPAIR GROW THE FLOWERS OF TOMORROW.
 Job cpu time:       0 days  0 hours  0 minutes  5.2 seconds.
 File lengths (MBytes):  RWF=    132 Int=      0 D2E=      0 Chk=      3 Scr=      2
 Normal termination of Gaussian 09 at Sat Apr 16 11:54:18 2022.
 Link1:  Proceeding to internal job step number  2.
 -----------------------------------------------------------------
 #N Geom=AllCheck Guess=TCheck SCRF=Check GenChk RHF/6-31G(d) Freq
 -----------------------------------------------------------------
 1/10=4,29=7,30=1,38=1,40=1/1,3;
 2/12=2,40=1/2;
 3/5=1,6=6,7=1,11=1,14=-4,16=1,25=1,30=1,70=2,71=2,116=1,140=1/1,2,3;
 4/5=101/1;
 5/5=2,98=1/2;
 8/6=4,10=90,11=11/1;
 10/13=10,15=4/2;
 11/6=3,8=1,9=11,15=111,16=1/1,2,10;
 10/6=1/2;
 6/7=2,8=2,9=2,10=2,18=1,28=1/1;
 7/8=1,10=1,25=1/1,2,3,16;
 1/10=4,30=1/3;
 99//99;
 Structure from the checkpoint file:  "Methylcyclopropane-opt.chk"
 -------------------------
 Optimisation de geometrie
 -------------------------
 Charge =  0 Multiplicity = 1
 Redundant internal coordinates found in file.
 C,0,1.9614842623,1.4787089538,1.7090384525
 C,0,3.1064476056,2.1245757159,0.9916872951
 C,0,3.064066255,0.6330427798,1.1506499791
 C,0,0.5833270588,1.4516154326,1.0877625169
 H,0,1.9619371448,1.5929357543,2.7809779134
 H,0,2.9219701352,2.5318511044,0.0121716967
 H,0,3.8283011181,2.6779567546,1.5665722724
 H,0,3.7571744776,0.1734462069,1.8334106864
 H,0,2.851047077,0.0396417774,0.2778030207
 H,0,0.6439484967,1.3349793424,0.0097385048
 H,0,-0.0059993527,0.6260688547,1.4765654632
 H,0,0.0435957215,2.3722773233,1.2904221989
 Recover connectivity data from disk.

 GradGradGradGradGradGradGradGradGradGradGradGradGradGradGradGradGradGrad
 Berny optimization.
 Initialization pass.
                           ----------------------------
                           !    Initial Parameters    !
                           ! (Angstroms and Degrees)  !
 --------------------------                            --------------------------
 ! Name  Definition              Value          Derivative Info.                !
 --------------------------------------------------------------------------------
 ! R1    R(1,2)                  1.4976         calculate D2E/DX2 analytically  !
 ! R2    R(1,3)                  1.4975         calculate D2E/DX2 analytically  !
 ! R3    R(1,4)                  1.512          calculate D2E/DX2 analytically  !
 ! R4    R(1,5)                  1.078          calculate D2E/DX2 analytically  !
 ! R5    R(2,3)                  1.5006         calculate D2E/DX2 analytically  !
 ! R6    R(2,6)                  1.0767         calculate D2E/DX2 analytically  !
 ! R7    R(2,7)                  1.076          calculate D2E/DX2 analytically  !
 ! R8    R(3,8)                  1.076          calculate D2E/DX2 analytically  !
 ! R9    R(3,9)                  1.0767         calculate D2E/DX2 analytically  !
 ! R10   R(4,10)                 1.086          calculate D2E/DX2 analytically  !
 ! R11   R(4,11)                 1.0863         calculate D2E/DX2 analytically  !
 ! R12   R(4,12)                 1.0863         calculate D2E/DX2 analytically  !
 ! A1    A(2,1,4)              120.5167         calculate D2E/DX2 analytically  !
 ! A2    A(2,1,5)              115.4864         calculate D2E/DX2 analytically  !
 ! A3    A(3,1,4)              120.5153         calculate D2E/DX2 analytically  !
 ! A4    A(3,1,5)              115.4864         calculate D2E/DX2 analytically  !
 ! A5    A(4,1,5)              114.2598         calculate D2E/DX2 analytically  !
 ! A6    A(1,2,6)              117.8984         calculate D2E/DX2 analytically  !
 ! A7    A(1,2,7)              118.6063         calculate D2E/DX2 analytically  !
 ! A8    A(3,2,6)              117.8722         calculate D2E/DX2 analytically  !
 ! A9    A(3,2,7)              118.2643         calculate D2E/DX2 analytically  !
 ! A10   A(6,2,7)              113.9816         calculate D2E/DX2 analytically  !
 ! A11   A(1,3,8)              118.6113         calculate D2E/DX2 analytically  !
 ! A12   A(1,3,9)              117.8926         calculate D2E/DX2 analytically  !
 ! A13   A(2,3,8)              118.2671         calculate D2E/DX2 analytically  !
 ! A14   A(2,3,9)              117.8722         calculate D2E/DX2 analytically  !
 ! A15   A(8,3,9)              113.98           calculate D2E/DX2 analytically  !
 ! A16   A(1,4,10)             111.0345         calculate D2E/DX2 analytically  !
 ! A17   A(1,4,11)             111.1648         calculate D2E/DX2 analytically  !
 ! A18   A(1,4,12)             111.1643         calculate D2E/DX2 analytically  !
 ! A19   A(10,4,11)            107.6952         calculate D2E/DX2 analytically  !
 ! A20   A(10,4,12)            107.6951         calculate D2E/DX2 analytically  !
 ! A21   A(11,4,12)            107.9253         calculate D2E/DX2 analytically  !
 ! D1    D(4,1,2,6)             -2.2084         calculate D2E/DX2 analytically  !
 ! D2    D(4,1,2,7)            142.1395         calculate D2E/DX2 analytically  !
 ! D3    D(5,1,2,6)           -146.2392         calculate D2E/DX2 analytically  !
 ! D4    D(5,1,2,7)             -1.8913         calculate D2E/DX2 analytically  !
 ! D5    D(4,1,3,8)           -142.1356         calculate D2E/DX2 analytically  !
 ! D6    D(4,1,3,9)              2.2078         calculate D2E/DX2 analytically  !
 ! D7    D(5,1,3,8)              1.8929         calculate D2E/DX2 analytically  !
 ! D8    D(5,1,3,9)            146.2363         calculate D2E/DX2 analytically  !
 ! D9    D(2,1,4,10)            35.5611         calculate D2E/DX2 analytically  !
 ! D10   D(2,1,4,11)           155.4353         calculate D2E/DX2 analytically  !
 ! D11   D(2,1,4,12)           -84.3125         calculate D2E/DX2 analytically  !
 ! D12   D(3,1,4,10)           -35.5603         calculate D2E/DX2 analytically  !
 ! D13   D(3,1,4,11)            84.3138         calculate D2E/DX2 analytically  !
 ! D14   D(3,1,4,12)          -155.434          calculate D2E/DX2 analytically  !
 ! D15   D(5,1,4,10)          -179.9985         calculate D2E/DX2 analytically  !
 ! D16   D(5,1,4,11)           -60.1243         calculate D2E/DX2 analytically  !
 ! D17   D(5,1,4,12)            60.1279         calculate D2E/DX2 analytically  !
 ! D18   D(6,2,3,8)            143.7359         calculate D2E/DX2 analytically  !
 ! D19   D(6,2,3,9)             -0.0066         calculate D2E/DX2 analytically  !
 ! D20   D(7,2,3,8)             -0.0053         calculate D2E/DX2 analytically  !
 ! D21   D(7,2,3,9)           -143.7478         calculate D2E/DX2 analytically  !
 --------------------------------------------------------------------------------
 Trust Radius=3.00D-01 FncErr=1.00D-07 GrdErr=1.00D-07
 Number of steps in this run=      2 maximum allowed number of steps=      2.
 GradGradGradGradGradGradGradGradGradGradGradGradGradGradGradGradGradGrad

                          Input orientation:                          
 ---------------------------------------------------------------------
 Center     Atomic      Atomic             Coordinates (Angstroms)
 Number     Number       Type             X           Y           Z
 ---------------------------------------------------------------------
      1          6           0        1.961484    1.478709    1.709038
      2          6           0        3.106448    2.124576    0.991687
      3          6           0        3.064066    0.633043    1.150650
      4          6           0        0.583327    1.451615    1.087763
      5          1           0        1.961937    1.592936    2.780978
      6          1           0        2.921970    2.531851    0.012172
      7          1           0        3.828301    2.677957    1.566572
      8          1           0        3.757174    0.173446    1.833411
      9          1           0        2.851047    0.039642    0.277803
     10          1           0        0.643948    1.334979    0.009739
     11          1           0       -0.005999    0.626069    1.476565
     12          1           0        0.043596    2.372277    1.290422
 ---------------------------------------------------------------------
                    Distance matrix (angstroms):
                    1          2          3          4          5
     1  C    0.000000
     2  C    1.497557   0.000000
     3  C    1.497543   1.500578   0.000000
     4  C    1.511964   2.613091   2.613060   0.000000
     5  H    1.078008   2.189545   2.189532   2.188039   0.000000
     6  H    2.216077   1.076734   2.218512   2.791605   3.077257
     7  H    2.223398   1.076009   2.222323   3.501861   2.476967
     8  H    2.223439   2.222352   1.076007   3.501859   2.477037
     9  H    2.216003   2.218515   1.076738   2.791462   3.077194
    10  H    2.155036   2.766150   2.766110   1.086009   3.079514
[...]
 -------------------------------------------------------------------
      1        6           0.000302339   -0.000006400    0.000011134
      2        6          -0.000138301   -0.000119013   -0.000009505
      3        6          -0.000133428    0.000110557   -0.000044778
      4        6          -0.000175779    0.000006283   -0.000004574
      5        1          -0.000135032    0.000011237    0.000047902
      6        1           0.000062907    0.000064658   -0.000010681
      7        1           0.000006864    0.000026039   -0.000010621
      8        1           0.000004246   -0.000025614    0.000001038
      9        1           0.000066426   -0.000065715    0.000001448
     10        1           0.000023171   -0.000004781   -0.000038746
     11        1           0.000058683   -0.000006189    0.000029606
     12        1           0.000057904    0.000008938    0.000027779
 -------------------------------------------------------------------
 Cartesian Forces:  Max     0.000302339 RMS     0.000081261
 FormGI is forming the generalized inverse of G from B-inverse, IUseBI=4.

 GradGradGradGradGradGradGradGradGradGradGradGradGradGradGradGradGradGrad
 Berny optimization.
 Internal  Forces:  Max     0.000088094 RMS     0.000038201
 Search for a local minimum.
 Step number   1 out of a maximum of    2
 All quantities printed in internal units (Hartrees-Bohrs-Radians)
 Second derivative matrix not updated -- analytic derivatives used.
 ITU=  0
     Eigenvalues ---    0.00231   0.01899   0.01929   0.02493   0.03466
     Eigenvalues ---    0.04001   0.04196   0.05394   0.05467   0.06991
     Eigenvalues ---    0.06993   0.07833   0.09500   0.14743   0.16318
     Eigenvalues ---    0.17308   0.18219   0.21271   0.26870   0.30159
     Eigenvalues ---    0.31108   0.35010   0.36761   0.36896   0.38110
     Eigenvalues ---    0.38875   0.39091   0.39321   0.39847   0.39888
 Angle between quadratic step and forces=  35.44 degrees.
 Linear search not attempted -- first point.
 Iteration  1 RMS(Cart)=  0.00046941 RMS(Int)=  0.00000023
 Iteration  2 RMS(Cart)=  0.00000021 RMS(Int)=  0.00000009
 Variable       Old X    -DE/DX   Delta X   Delta X   Delta X     New X
                                 (Linear)    (Quad)   (Total)
    R1        2.82997  -0.00004   0.00000  -0.00028  -0.00028   2.82969
    R2        2.82995  -0.00003   0.00000  -0.00026  -0.00026   2.82969
    R3        2.85720   0.00003   0.00000   0.00028   0.00028   2.85748
    R4        2.03714   0.00005   0.00000   0.00013   0.00013   2.03727
    R5        2.83568  -0.00002   0.00000  -0.00005  -0.00005   2.83563
    R6        2.03473   0.00002   0.00000   0.00007   0.00007   2.03480
    R7        2.03336   0.00001   0.00000   0.00006   0.00006   2.03343
    R8        2.03336   0.00001   0.00000   0.00007   0.00007   2.03343
    R9        2.03474   0.00002   0.00000   0.00006   0.00006   2.03480
   R10        2.05226   0.00004   0.00000   0.00009   0.00009   2.05235
   R11        2.05277  -0.00002   0.00000  -0.00007  -0.00007   2.05270
   R12        2.05277  -0.00002   0.00000  -0.00006  -0.00006   2.05270
    A1        2.10341   0.00000   0.00000   0.00009   0.00009   2.10351
    A2        2.01562   0.00007   0.00000   0.00082   0.00082   2.01643
    A3        2.10339   0.00000   0.00000   0.00012   0.00012   2.10351
    A4        2.01562   0.00007   0.00000   0.00082   0.00082   2.01643
    A5        1.99421  -0.00009   0.00000  -0.00114  -0.00114   1.99307
    A6        2.05771   0.00008   0.00000   0.00068   0.00068   2.05840
    A7        2.07007  -0.00004   0.00000  -0.00009  -0.00009   2.06998
    A8        2.05726   0.00003   0.00000   0.00060   0.00060   2.05786
    A9        2.06410   0.00001   0.00000  -0.00018  -0.00018   2.06393
   A10        1.98935  -0.00005   0.00000  -0.00060  -0.00060   1.98875
   A11        2.07016  -0.00005   0.00000  -0.00018  -0.00018   2.06998
   A12        2.05761   0.00009   0.00000   0.00078   0.00078   2.05839
   A13        2.06415   0.00001   0.00000  -0.00022  -0.00022   2.06393
   A14        2.05726   0.00003   0.00000   0.00060   0.00060   2.05786
   A15        1.98933  -0.00004   0.00000  -0.00058  -0.00058   1.98875
   A16        1.93792   0.00000   0.00000   0.00013   0.00013   1.93804
   A17        1.94019  -0.00007   0.00000  -0.00055  -0.00055   1.93964
   A18        1.94018  -0.00007   0.00000  -0.00054  -0.00054   1.93964
   A19        1.87964   0.00004   0.00000   0.00032   0.00032   1.87996
   A20        1.87963   0.00004   0.00000   0.00032   0.00032   1.87996
   A21        1.88365   0.00007   0.00000   0.00039   0.00039   1.88404
    D1       -0.03854  -0.00001   0.00000   0.00027   0.00027  -0.03827
    D2        2.48080  -0.00004   0.00000   0.00004   0.00004   2.48085
    D3       -2.55235   0.00005   0.00000   0.00105   0.00105  -2.55130
    D4       -0.03301   0.00002   0.00000   0.00082   0.00082  -0.03219
    D5       -2.48073   0.00003   0.00000  -0.00011  -0.00011  -2.48085
    D6        0.03853   0.00001   0.00000  -0.00026  -0.00026   0.03827
    D7        0.03304  -0.00002   0.00000  -0.00085  -0.00085   0.03219
    D8        2.55231  -0.00004   0.00000  -0.00100  -0.00100   2.55130
    D9        0.62066   0.00001   0.00000   0.00009   0.00009   0.62075
   D10        2.71286   0.00001   0.00000   0.00021   0.00021   2.71307
   D11       -1.47153  -0.00000   0.00000  -0.00004  -0.00004  -1.47157
   D12       -0.62064  -0.00000   0.00000  -0.00011  -0.00011  -0.62075
   D13        1.47155   0.00000   0.00000   0.00001   0.00001   1.47157
   D14       -2.71283  -0.00001   0.00000  -0.00024  -0.00024  -2.71307
   D15       -3.14157  -0.00000   0.00000  -0.00003  -0.00003   3.14159
   D16       -1.04937   0.00000   0.00000   0.00009   0.00009  -1.04927
   D17        1.04943  -0.00001   0.00000  -0.00016  -0.00016   1.04927
   D18        2.50866  -0.00003   0.00000  -0.00041  -0.00041   2.50825
   D19       -0.00012   0.00000   0.00000   0.00011   0.00011  -0.00000
   D20       -0.00009   0.00000   0.00000   0.00009   0.00009   0.00000
   D21       -2.50887   0.00003   0.00000   0.00062   0.00062  -2.50825
         Item               Value     Threshold  Converged?
 Maximum Force            0.000088     0.000450     YES
 RMS     Force            0.000038     0.000300     YES
 Maximum Displacement     0.001855     0.001800     NO 
 RMS     Displacement     0.000469     0.001200     YES
 Predicted change in Energy=-3.779965D-07
 GradGradGradGradGradGradGradGradGradGradGradGradGradGradGradGradGradGrad

 1\1\GINC-GTX1080DELTA\Freq\RHF\6-31G(d)\C4H8\MVEROT\16-Apr-2022\0\\#N 
 Geom=AllCheck Guess=TCheck SCRF=Check GenChk RHF/6-31G(d) Freq\\Optimi
 sation de geometrie\\0,1\C,1.9614842623,1.4787089538,1.7090384525\C,3.
 1064476056,2.1245757159,0.9916872951\C,3.064066255,0.6330427798,1.1506
 499791\C,0.5833270588,1.4516154326,1.0877625169\H,1.9619371448,1.59293
 57543,2.7809779134\H,2.9219701352,2.5318511044,0.0121716967\H,3.828301
 1181,2.6779567546,1.5665722724\H,3.7571744776,0.1734462069,1.833410686
 4\H,2.851047077,0.0396417774,0.2778030207\H,0.6439484967,1.3349793424,
 0.0097385048\H,-0.0059993527,0.6260688547,1.4765654632\H,0.0435957215,
 2.3722773233,1.2904221989\\Version=AM64L-G09RevD.01\State=1-A\HF=-156.
 0959297\RMSD=7.324e-10\RMSF=8.126e-05\ZeroPoint=0.1174339\Thermal=0.12
 1841\Dipole=-0.0259715,0.0040538,0.0312275\DipoleDeriv=-0.0382958,0.01
 68234,0.0863482,0.0188371,0.2274266,-0.0166179,0.1050998,-0.0171515,0.
 0968297,0.0449405,-0.1150004,0.0607766,-0.1328143,-0.0593469,0.0832657
 ,0.0339196,0.0917201,0.1055594,0.059023,0.1172746,0.0323451,0.1289524,
 -0.102353,-0.0426195,0.0018884,-0.0494471,0.134492,0.1641296,-0.003482
 5,-0.042033,0.002934,0.1983514,-0.0083217,0.0182119,-0.0100302,0.11006
 56,-0.0561005,0.0023642,-0.0082582,0.0058039,0.0555122,-0.0239994,0.02
 4063,-0.0249209,-0.1691512,0.0398508,-0.0090579,-0.0548272,-0.0372064,
 -0.0197658,0.0572431,-0.0150813,0.0908538,-0.09498,-0.0518211,-0.10576
 66,-0.0498974,-0.0865966,-0.0356538,-0.006169,-0.0685286,-0.0406043,-0
 .005032,-0.0416892,0.0935718,-0.07054,0.0711248,-0.0338865,0.0148098,-
 0.0827458,0.0501138,-0.0169389,0.0417863,-0.0074843,-0.0585418,0.02821
 83,-0.0550702,-0.0627764,-0.0275534,-0.0983873,-0.0616243,0.0146609,0.
 0062613,0.0503319,-0.0018992,0.0436048,-0.0249457,-0.0262089,-0.02277,
 -0.1743863,-0.0944553,-0.0851651,0.0379633,-0.1295038,-0.091931,0.0659
 471,0.0339688,0.0682558,0.0263163,-0.0820291,0.0896614,0.0163327,0.132
 1498,-0.1268879,-0.0358161,0.0029666,-0.0376322,0.0488497\Polar=41.825
 3281,-0.1063913,38.5861879,-0.1428134,-0.211413,36.5833183\PolarDeriv=
 -4.6429226,0.3018184,-0.7999883,3.3234167,-0.002502,-0.6477168,0.23349
 89,-5.6388805,0.9487561,0.473113,2.5096809,-1.0802993,3.9840774,0.3937
 96,0.3657596,-1.0659092,-0.8411493,-5.0151616,3.5067585,1.8960316,-2.3
 255296,-3.4034787,-2.3169146,1.3115004,-1.8625254,0.182823,6.3097837,-
 0.6026344,-0.9910242,-1.8867791,-3.7911726,-2.8004495,0.2044973,1.0273
 713,-1.2268107,1.8551199,3.3151196,-2.8223812,-1.258379,-2.7027288,3.0
 497675,0.2779969,0.9109694,0.6723705,-6.0655263,0.831685,0.8727,2.1519
 544,-3.7471427,3.1290789,1.7628158,0.3154116,1.2781044,0.8459755,-0.05
 3031,0.0723098,3.8230995,-1.9820324,-0.5402253,-1.1719072,0.0693095,5.
 9654679,-1.1203374,-0.5758511,-1.8227362,1.0592112,-2.5821031,-0.57217
 96,-2.289687,0.6396173,1.0576019,5.640757,-0.9252387,0.2317085,0.33153
 46,1.6979172,-0.0870165,-0.3695711,0.1170239,0.500648,0.2736468,-0.142
 2076,1.3898329,0.7171724,0.5750625,-0.1409878,0.3102509,-0.7123344,0.8
 421387,9.2525988,-0.4811912,1.0185422,0.1774844,-1.0051115,0.3936391,-
 0.4478632,0.4587759,0.571127,2.2760267,0.0853506,-2.4555788,1.8138178,
 -0.247421,-0.0289373,-1.9149393,0.196206,2.9905967,-6.1202928,4.551123
 3,2.8577481,2.2213316,1.8785217,0.8439467,0.5604312,1.9384613,3.081352
 3,3.3562091,0.7597758,1.1303925,0.9037726,1.9970273,1.1941478,1.183847
 8,1.6677377,1.953307,1.5400043,4.1599747,-2.3745365,1.9027768,2.325671
 7,-1.1790715,0.9392177,-1.4101205,2.6650975,-3.0372151,-1.03302,1.2774
 368,-1.0202811,2.200498,-1.46932,1.1444885,2.0296018,-2.1239809,2.6184
 784,-0.6291999,-1.1477258,-0.0856053,-0.8126474,-0.590939,-0.3415499,-
 0.4120182,0.4307072,-3.9487188,-0.2669046,-2.8055999,-1.7804106,-0.162
 2681,-0.1703539,-2.5585376,0.0725744,-3.0712687,-4.4220669,0.4876921,-
 0.2485306,-0.383961,-1.8671209,0.0483368,-0.0120414,-0.1249171,-0.8611
 204,-0.2893156,-0.0171075,-1.6393733,-0.4548497,-0.581914,-0.0097566,-
 0.0947979,-1.0970725,-0.5885093,-7.4518392,-4.893135,-2.98143,-1.70266
 6,1.6239815,0.510113,-0.1320408,-2.5217273,-3.6986798,-4.5014082,0.633
 3906,1.5542753,-0.6907749,1.4669776,0.506823,1.0942989,-1.6592559,-1.9
 346299,1.06095,-4.3959498,3.1964455,-1.9000977,0.9236108,-0.1291343,0.
 0335442,2.6032695,-3.8709127,5.7980989,-0.1455898,0.9799939,0.2674662,
 0.8883788,-0.0318609,0.7920028,-1.4139481,1.6646002,0.1954764\HyperPol
 ar=-7.5983419,3.0914244,2.5757481,-0.8539787,25.5242032,-0.9480657,-1.
 9994084,1.2047963,-1.2751434,-15.4974158\PG=C01 [X(C4H8)]\NImag=0\\0.6
 8078923,-0.01381590,0.32112633,-0.03234451,0.04556208,0.73468495,-0.17
 732984,-0.05577680,0.05578868,0.48975912,-0.09990366,-0.06734598,0.057
 25333,0.19029909,0.57676411,0.06190094,0.03350167,-0.12948906,0.135920
 12,-0.09356564,0.67696972,-0.16759419,0.07096265,0.03864511,-0.0378919
 9,0.01494913,-0.03115546,0.47043631,0.11553130,-0.09902880,-0.06763767
 ,-0.03357465,-0.25474742,0.03284780,-0.14964777,0.63705263,0.03665145,
 -0.04400210,-0.10756175,-0.02669736,0.00772474,-0.07455606,0.17770370,
 0.09511174,0.63602750,-0.22428002,-0.00230949,-0.05837416,-0.01845731,
 0.00091919,-0.00495728,-0.01694762,-0.00093589,-0.00371522,0.57755699,
 -0.00275634,-0.08672337,-0.00307161,-0.02603133,-0.00298782,-0.0172877
 5,0.02912629,-0.00037138,0.01920089,-0.00165656,0.63869220,-0.06256153
 ,-0.00295185,-0.13084219,0.01316460,-0.00044080,0.00815142,0.00734989,
 0.00152567,0.00402231,-0.03179285,0.00055752,0.63534584,-0.06301308,-0
 .00023739,-0.00609979,-0.00189477,0.00351964,0.01960680,-0.00218962,0.
 00058790,0.01813782,0.00388328,-0.00378513,-0.03467705,0.06880728,0.00
 015492,-0.05203097,-0.03332020,0.00386144,0.00233760,0.02983032,-0.003
 77792,-0.00369612,-0.03229919,0.00007039,0.00072416,-0.00020877,-0.000
 46271,0.05067460,-0.00241728,-0.03342566,-0.36275327,-0.00045184,-0.00
 238945,-0.01026070,0.00044046,0.00099320,-0.00393236,0.00149404,-0.001
 23583,-0.01044792,0.00150808,0.03583413,0.38347016,0.00913841,-0.01088
 580,0.03023954,-0.06481989,0.01354118,-0.05928236,-0.00656538,0.001504
 31,-0.01127608,0.00234246,0.00285832,0.00006205,-0.00274004,-0.0049253
 8,0.00193776,0.06258793,-0.00077991,-0.00433369,-0.00300914,0.01187527
 ,-0.09704161,0.10394007,0.00543471,-0.00975582,0.03198454,-0.00059468,
 0.00092857,0.00174280,0.00118683,0.00036895,-0.00061017,-0.01400633,0.
 10196353,-0.00492654,0.00430329,-0.01487282,-0.05650952,0.10769728,-0.
 31862593,0.00352353,-0.00284090,0.00788113,-0.00198490,-0.00185562,0.0
 0099127,0.00152302,0.00305219,-0.00027710,0.05844323,-0.11602693,0.334
 87648,-0.01627392,-0.01173746,-0.02072693,-0.19305139,-0.11262928,-0.1
 1863409,0.00935506,0.00584538,0.01272595,-0.00124257,-0.00543700,0.003
 21540,0.00200811,0.00279720,-0.00022317,-0.00186180,-0.00103551,-0.001
 32483,0.20161360,0.00240344,-0.00359994,0.00389458,-0.11031175,-0.1343
 0674,-0.08054600,-0.02334923,-0.01382570,-0.01872492,0.00124750,0.0006
 5279,-0.00039218,-0.00148917,0.00041831,0.00045631,0.01109899,0.009965
 78,0.00618301,0.12077586,0.14205345,0.01334094,0.01077780,0.01276930,-
 0.12121682,-0.08336023,-0.15645921,0.00013648,0.00129196,-0.00374625,0
 .00053364,0.00307480,-0.00159450,-0.00006640,-0.00218574,0.00153243,-0
 .02005520,-0.01765059,-0.01276452,0.12596467,0.08797981,0.15702125,-0.
 01575582,0.00770218,-0.02287603,0.01034563,-0.00416617,0.01488342,-0.1
 8176363,0.08921534,-0.13559576,-0.00098040,0.00606746,0.00199517,0.001
 92878,-0.00285731,0.00035890,0.00125802,-0.00365210,-0.00026998,-0.000
 07092,0.00244515,-0.00000541,0.18934635,0.00101267,-0.00635455,0.00141
 490,0.02160157,-0.01083420,0.01935531,0.08642432,-0.11118016,0.0769474
 5,-0.00105231,-0.00027778,-0.00007024,0.00138124,0.00090347,-0.0003156
 3,0.00276714,-0.00449084,-0.00172656,-0.00223467,0.00282623,0.00104345
 ,-0.09575046,0.11700997,0.01296263,-0.00745432,0.01500966,-0.00467447,
 0.00025403,-0.00772842,-0.13746957,0.07988613,-0.19087957,0.00059141,-
 0.00342135,-0.00092606,-0.00024295,0.00233937,0.00112692,-0.00044164,0
 .00204867,0.00086120,0.00042646,-0.00131274,0.00163707,0.14402163,-0.0
 8586637,0.19433410,0.00989807,0.01620930,0.02741535,-0.00702078,-0.004
 33914,-0.01232737,-0.06713002,-0.02956308,-0.06171445,0.00219917,-0.00
 286166,0.00057316,-0.00250097,0.00537257,0.00087058,0.00080378,0.00233
 673,0.00064614,0.00128507,-0.00313033,0.00010339,-0.00251466,-0.014226
 96,-0.01646831,0.06508505,-0.00112192,-0.00596300,-0.00064824,-0.00485
 793,-0.01447924,-0.02643684,-0.02737017,-0.14750067,-0.13705089,0.0001
 0354,0.00110574,-0.00176910,-0.00071106,-0.00041765,0.00053232,-0.0020
 4621,0.00274064,0.00119512,0.00320390,-0.00434212,-0.00091850,0.001438
 19,0.01208212,0.01341360,0.03043583,0.15694144,-0.00518944,-0.00603649
 ,-0.01400942,0.00490096,0.00747836,0.01306255,-0.05956733,-0.14094721,
 -0.26584784,-0.00195116,0.00196032,0.00095705,0.00154757,-0.00313795,0
 .00026953,0.00103037,-0.00172428,0.00051583,-0.00086946,0.00287994,0.0
 0068490,-0.00208210,-0.01136100,-0.01422903,0.06147336,0.15061554,0.27
 739840,0.00239485,-0.00407491,-0.03736737,0.00195298,-0.00027622,-0.00
 091410,0.00196592,-0.00000949,-0.00089485,-0.06042342,0.00233694,0.021
 47569,-0.00681461,-0.00006842,-0.00266360,-0.00028486,-0.00026641,0.00
 066043,0.00028366,-0.00017171,0.00025307,0.00029002,0.00019972,0.00020
 692,-0.00024863,0.00040263,0.00059226,0.06337647,0.00011602,-0.0009005
 3,-0.00050790,-0.00002495,0.00023655,-0.00082633,0.00016794,0.00041910
 ,0.00085158,0.00193649,-0.06202020,-0.03026722,-0.00013007,0.00078084,
 0.00004474,-0.00035978,-0.00023148,0.00005313,0.00006898,-0.00009266,0
 .00015599,-0.00007659,-0.00006588,-0.00007981,0.00024717,-0.00018641,0
 .00015845,-0.00235336,0.05883932,0.00195066,-0.00162426,-0.01556183,0.
 00111254,-0.00011285,0.00030317,0.00109673,0.00002357,0.00010761,0.017
 71920,-0.03016037,-0.33695643,-0.00324174,0.00006098,0.00048260,-0.000
 51796,-0.00018730,0.00097776,0.00004749,-0.00022915,0.00035176,0.00007
 857,0.00031487,0.00031868,-0.00056380,0.00046525,0.00089681,-0.0198909
 4,0.03374168,0.36640905,-0.01977312,-0.02735652,0.01594878,-0.00418575
 ,-0.00139515,-0.00605303,0.00254677,0.00064087,0.00089148,-0.13838293,
 -0.11345491,0.05463974,0.00126042,0.00035726,-0.00048922,0.00066526,-0
 .00005717,-0.00032302,-0.00205196,0.00051706,0.00112088,-0.00000727,0.
 00001913,-0.00010497,-0.00051012,0.00057560,0.00043105,-0.00123167,-0.
 00095238,0.00124163,0.14970809,0.00119878,0.00168278,-0.00088167,0.001
 44852,0.00132926,-0.00064065,-0.00132690,0.00119424,-0.00008378,-0.114
 66225,-0.22475289,0.07856529,-0.00045758,-0.00010283,-0.00047674,0.000
 16441,-0.00011216,-0.00008617,0.00010007,0.00017216,-0.00002030,-0.000
 27442,0.00013369,0.00016086,-0.00024494,0.00003536,-0.00006073,0.00390
 535,0.00503941,-0.00102797,0.12739963,0.23932927,-0.01027788,-0.014082
 22,0.00799419,-0.00232871,-0.00012034,-0.00160824,0.00130872,0.0001513
 4,0.00016913,0.05539967,0.07866527,-0.09790095,0.00105410,-0.00013176,
 0.00046859,-0.00016785,-0.00022201,0.00030396,-0.00058064,-0.00015710,
 0.00059780,0.00003950,-0.00000262,-0.00007092,0.00010194,0.00030107,0.
 00008181,0.01999706,0.03015527,-0.01210779,-0.05897103,-0.08813867,0.0
 9883836,-0.01820056,0.03132014,0.00975131,0.00259399,-0.00051860,0.001
 01243,-0.00422160,0.00040579,-0.00621667,-0.12526762,0.11559393,0.0265
 5573,0.00126523,-0.00052203,-0.00036470,-0.00052388,-0.00044143,0.0005
 4246,0.00000706,-0.00003580,-0.00010925,-0.00207609,-0.00014140,0.0011
 9287,0.00065404,-0.00005241,-0.00031608,-0.00126070,0.00136051,0.00096
 762,0.01196228,-0.01725068,-0.00557489,0.13506786,-0.00203940,0.003471
 72,0.00095153,0.00149152,0.00107550,-0.00017197,-0.00159303,0.00144010
 ,0.00033993,0.11693407,-0.26497002,-0.04629110,0.00059752,0.00003965,0
 .00059278,0.00028914,-0.00000187,0.00005216,0.00028253,0.00007843,-0.0
 0018845,-0.00009127,0.00024793,0.00003193,-0.00023551,-0.00001621,0.00
 017507,0.00037587,-0.00181804,-0.00126445,0.01370657,-0.02394828,-0.00
 641822,-0.12971802,0.28440109,-0.00908945,0.01543206,0.00463225,0.0009
 9181,-0.00041842,0.00024075,-0.00201225,-0.00040564,-0.00168384,0.0270
 3761,-0.04642625,-0.07079985,0.00095054,0.00016661,0.00032113,0.000028
 14,-0.00028568,0.00013274,-0.00002084,-0.00003156,-0.00003002,-0.00054
 792,0.00026645,0.00054636,-0.00010998,0.00030068,0.00021941,0.01854545
 ,-0.03347957,-0.00522139,-0.00833229,0.01269053,0.00323406,-0.02744083
 ,0.05219079,0.06840839\\-0.00030234,0.00000640,-0.00001113,0.00013830,
 0.00011901,0.00000951,0.00013343,-0.00011056,0.00004478,0.00017578,-0.
 00000628,0.00000457,0.00013503,-0.00001124,-0.00004790,-0.00006291,-0.
 00006466,0.00001068,-0.00000686,-0.00002604,0.00001062,-0.00000425,0.0
 0002561,-0.00000104,-0.00006643,0.00006572,-0.00000145,-0.00002317,0.0
 0000478,0.00003875,-0.00005868,0.00000619,-0.00002961,-0.00005790,-0.0
 0000894,-0.00002778\\\@


 ADAM SMITH SAID, "THE REAL PRICE OF ANYTHING IS THE TOIL AND TROUBLE
 OF ACQUIRING IT."  BUT IN ALL UNDERTAKINGS WITH NATURE WE SHOULD FIRST
 READ CAREFULLY THE SMALL PRINT IN THE CONTRACT. THIS MIGHT DISCLOSE
 THAT THE REAL PRICE IS TO BE PAID BY THOSE WHO INHERIT THE DEPLETION
 AND DESPOILATION THAT FOLLOWS.
                               -- E. R. HARRISON IN "COSMOLOGY" (1980)
 Job cpu time:       0 days  0 hours  0 minutes  6.8 seconds.
 File lengths (MBytes):  RWF=    132 Int=      0 D2E=      0 Chk=      3 Scr=      2
 Normal termination of Gaussian 09 at Sat Apr 16 11:54:26 2022.
