 Entering Gaussian System, Link 0=g09
 Input=/scratch/mverot/1-3-propanediol-opt/1-3-propanediol-opt.com
 Output=/scratch/mverot/1-3-propanediol-opt/1-3-propanediol-opt.log
 Initial command:
 /opt/g09/l1.exe "/scratch/mverot/1-3-propanediol-opt/Gau-1469102.inp" -scrdir="/scratch/mverot/1-3-propanediol-opt/"
 Entering Link 1 = /opt/g09/l1.exe PID=   1469104.
  
 Copyright (c) 1988,1990,1992,1993,1995,1998,2003,2009,2013,
            Gaussian, Inc.  All Rights Reserved.
  
 This is part of the Gaussian(R) 09 program.  It is based on
 the Gaussian(R) 03 system (copyright 2003, Gaussian, Inc.),
 the Gaussian(R) 98 system (copyright 1998, Gaussian, Inc.),
 the Gaussian(R) 94 system (copyright 1995, Gaussian, Inc.),
 the Gaussian 92(TM) system (copyright 1992, Gaussian, Inc.),
 the Gaussian 90(TM) system (copyright 1990, Gaussian, Inc.),
 the Gaussian 88(TM) system (copyright 1988, Gaussian, Inc.),
 the Gaussian 86(TM) system (copyright 1986, Carnegie Mellon
 University), and the Gaussian 82(TM) system (copyright 1983,
 Carnegie Mellon University). Gaussian is a federally registered
 trademark of Gaussian, Inc.
  
 This software contains proprietary and confidential information,
 including trade secrets, belonging to Gaussian, Inc.
  
 This software is provided under written license and may be
 used, copied, transmitted, or stored only in accord with that
 written license.
  
 The following legend is applicable only to US Government
 contracts under FAR:
  
                    RESTRICTED RIGHTS LEGEND
  
 Use, reproduction and disclosure by the US Government is
 subject to restrictions as set forth in subparagraphs (a)
 and (c) of the Commercial Computer Software - Restricted
 Rights clause in FAR 52.227-19.
  
 Gaussian, Inc.
 340 Quinnipiac St., Bldg. 40, Wallingford CT 06492
  
  
 ---------------------------------------------------------------
 Warning -- This program may not be used in any manner that
 competes with the business of Gaussian, Inc. or will provide
 assistance to any competitor of Gaussian, Inc.  The licensee
 of this program is prohibited from giving any competitor of
 Gaussian, Inc. access to this program.  By using this program,
 the user acknowledges that Gaussian, Inc. is engaged in the
 business of creating and licensing software in the field of
 computational chemistry and represents and warrants to the
 licensee that it is not a competitor of Gaussian, Inc. and that
 it will not use this program in any manner prohibited above.
 ---------------------------------------------------------------
  

 Cite this work as:
 Gaussian 09, Revision D.01,
 M. J. Frisch, G. W. Trucks, H. B. Schlegel, G. E. Scuseria, 
 M. A. Robb, J. R. Cheeseman, G. Scalmani, V. Barone, B. Mennucci, 
 G. A. Petersson, H. Nakatsuji, M. Caricato, X. Li, H. P. Hratchian, 
 A. F. Izmaylov, J. Bloino, G. Zheng, J. L. Sonnenberg, M. Hada, 
 M. Ehara, K. Toyota, R. Fukuda, J. Hasegawa, M. Ishida, T. Nakajima, 
 Y. Honda, O. Kitao, H. Nakai, T. Vreven, J. A. Montgomery, Jr., 
 J. E. Peralta, F. Ogliaro, M. Bearpark, J. J. Heyd, E. Brothers, 
 K. N. Kudin, V. N. Staroverov, T. Keith, R. Kobayashi, J. Normand, 
 K. Raghavachari, A. Rendell, J. C. Burant, S. S. Iyengar, J. Tomasi, 
 M. Cossi, N. Rega, J. M. Millam, M. Klene, J. E. Knox, J. B. Cross, 
 V. Bakken, C. Adamo, J. Jaramillo, R. Gomperts, R. E. Stratmann, 
 O. Yazyev, A. J. Austin, R. Cammi, C. Pomelli, J. W. Ochterski, 
 R. L. Martin, K. Morokuma, V. G. Zakrzewski, G. A. Voth, 
 P. Salvador, J. J. Dannenberg, S. Dapprich, A. D. Daniels, 
 O. Farkas, J. B. Foresman, J. V. Ortiz, J. Cioslowski, 
 and D. J. Fox, Gaussian, Inc., Wallingford CT, 2013.
 
 ******************************************
 Gaussian 09:  AM64L-G09RevD.01 24-Apr-2013
                17-Apr-2022 
 ******************************************
 %chk=1-3-propanediol-opt
 ----------
 #n AM1 Opt
 ----------
 1/14=-1,18=20,19=15,26=1,38=1/1,3;
 2/9=110,12=2,17=6,18=5,40=1/2;
 3/5=2,16=1,25=1,41=700000,71=1/1,2,3;
 4/35=1/1;
 5/5=2,35=1,38=5/2;
 6/7=2,8=2,9=2,10=2,28=1/1;
 7//1,2,3,16;
 1/14=-1,18=20,19=15,26=1/3(2);
 2/9=110/2;
 99//99;
 2/9=110/2;
 3/5=2,16=1,25=1,41=700000,71=1,135=20/1,2,3;
 4/5=5,16=3,35=1/1;
 5/5=2,35=1,38=5/2;
 7//1,2,3,16;
 1/14=-1,18=20,19=15,26=1/3(-5);
 2/9=110/2;
 6/7=2,8=2,9=2,10=2,19=2,28=1/1;
 99/9=1/99;
 -------------------------
 Optimisation de geometrie
 -------------------------
 Symbolic Z-matrix:
 Charge =  0 Multiplicity = 1
 C                     1.0003    2.0505    1.2298 
 O                     1.6167    3.2158    0.6619 
 C                     1.9842    0.8895    1.1354 
 C                     3.2981    1.1469    1.8851 
 O                     4.1136    2.1208    1.2591 
 H                     0.0703    1.8109    0.6924 
 H                     0.7421    2.2317    2.2855 
 H                     1.0489    3.9812    0.8361 
 H                     2.2102    0.6867    0.0812 
 H                     1.4929   -0.0037    1.5453 
 H                     3.8898    0.225     1.9226 
 H                     3.0683    1.4232    2.9315 
 H                     3.5208    2.8609    1.0374 
 

 GradGradGradGradGradGradGradGradGradGradGradGradGradGradGradGradGradGrad
 Berny optimization.
 Initialization pass.
                           ----------------------------
                           !    Initial Parameters    !
                           ! (Angstroms and Degrees)  !
 --------------------------                            --------------------------
 ! Name  Definition              Value          Derivative Info.                !
 --------------------------------------------------------------------------------
 ! R1    R(1,2)                  1.4354         estimate D2E/DX2                !
 ! R2    R(1,3)                  1.5248         estimate D2E/DX2                !
 ! R3    R(1,6)                  1.1005         estimate D2E/DX2                !
 ! R4    R(1,7)                  1.1018         estimate D2E/DX2                !
 ! R5    R(2,8)                  0.9688         estimate D2E/DX2                !
 ! R6    R(3,4)                  1.5345         estimate D2E/DX2                !
 ! R7    R(3,9)                  1.0971         estimate D2E/DX2                !
 ! R8    R(3,10)                 1.0987         estimate D2E/DX2                !
 ! R9    R(4,5)                  1.4161         estimate D2E/DX2                !
 ! R10   R(4,11)                 1.0961         estimate D2E/DX2                !
 ! R11   R(4,12)                 1.1064         estimate D2E/DX2                !
 ! R12   R(5,13)                 0.9738         estimate D2E/DX2                !
 ! A1    A(2,1,3)              108.4547         estimate D2E/DX2                !
 ! A2    A(2,1,6)              110.2701         estimate D2E/DX2                !
 ! A3    A(2,1,7)              110.2551         estimate D2E/DX2                !
 ! A4    A(3,1,6)              110.4443         estimate D2E/DX2                !
 ! A5    A(3,1,7)              109.6186         estimate D2E/DX2                !
 ! A6    A(6,1,7)              107.7975         estimate D2E/DX2                !
 ! A7    A(1,2,8)              108.576          estimate D2E/DX2                !
 ! A8    A(1,3,4)              113.2378         estimate D2E/DX2                !
 ! A9    A(1,3,9)              109.4619         estimate D2E/DX2                !
 ! A10   A(1,3,10)             107.9003         estimate D2E/DX2                !
 ! A11   A(4,3,9)              108.9109         estimate D2E/DX2                !
 ! A12   A(4,3,10)             109.6925         estimate D2E/DX2                !
 ! A13   A(9,3,10)             107.4775         estimate D2E/DX2                !
 ! A14   A(3,4,5)              113.1086         estimate D2E/DX2                !
 ! A15   A(3,4,11)             109.7463         estimate D2E/DX2                !
 ! A16   A(3,4,12)             109.0336         estimate D2E/DX2                !
 ! A17   A(5,4,11)             106.4205         estimate D2E/DX2                !
 ! A18   A(5,4,12)             111.4659         estimate D2E/DX2                !
 ! A19   A(11,4,12)            106.8466         estimate D2E/DX2                !
 ! A20   A(4,5,13)             105.8283         estimate D2E/DX2                !
 ! D1    D(3,1,2,8)           -171.8373         estimate D2E/DX2                !
 ! D2    D(6,1,2,8)             67.1123         estimate D2E/DX2                !
 ! D3    D(7,1,2,8)            -51.8083         estimate D2E/DX2                !
 ! D4    D(2,1,3,4)             60.0254         estimate D2E/DX2                !
 ! D5    D(2,1,3,9)            -61.6978         estimate D2E/DX2                !
 ! D6    D(2,1,3,10)          -178.3692         estimate D2E/DX2                !
 ! D7    D(6,1,3,4)           -179.0318         estimate D2E/DX2                !
 ! D8    D(6,1,3,9)             59.2449         estimate D2E/DX2                !
 ! D9    D(6,1,3,10)           -57.4264         estimate D2E/DX2                !
 ! D10   D(7,1,3,4)            -60.3999         estimate D2E/DX2                !
 ! D11   D(7,1,3,9)            177.8768         estimate D2E/DX2                !
 ! D12   D(7,1,3,10)            61.2055         estimate D2E/DX2                !
 ! D13   D(1,3,4,5)            -70.6852         estimate D2E/DX2                !
 ! D14   D(1,3,4,11)           170.6476         estimate D2E/DX2                !
 ! D15   D(1,3,4,12)            53.9321         estimate D2E/DX2                !
 ! D16   D(9,3,4,5)             51.3464         estimate D2E/DX2                !
 ! D17   D(9,3,4,11)           -67.3209         estimate D2E/DX2                !
 ! D18   D(9,3,4,12)           175.9636         estimate D2E/DX2                !
 ! D19   D(10,3,4,5)           168.7207         estimate D2E/DX2                !
 ! D20   D(10,3,4,11)           50.0534         estimate D2E/DX2                !
 ! D21   D(10,3,4,12)          -66.6621         estimate D2E/DX2                !
 ! D22   D(3,4,5,13)            46.2397         estimate D2E/DX2                !
 ! D23   D(11,4,5,13)          166.8172         estimate D2E/DX2                !
 ! D24   D(12,4,5,13)          -77.0447         estimate D2E/DX2                !
 --------------------------------------------------------------------------------
 Trust Radius=3.00D-01 FncErr=1.00D-07 GrdErr=1.00D-07
 Number of steps in this run=     66 maximum allowed number of steps=    100.
 GradGradGradGradGradGradGradGradGradGradGradGradGradGradGradGradGradGrad

                          Input orientation:                          
 ---------------------------------------------------------------------
 Center     Atomic      Atomic             Coordinates (Angstroms)
 Number     Number       Type             X           Y           Z
 ---------------------------------------------------------------------
      1          6           0        1.000300    2.050500    1.229800
      2          8           0        1.616700    3.215800    0.661900
      3          6           0        1.984200    0.889500    1.135400
      4          6           0        3.298100    1.146900    1.885100
      5          8           0        4.113600    2.120800    1.259100
      6          1           0        0.070300    1.810900    0.692400
      7          1           0        0.742100    2.231700    2.285500
      8          1           0        1.048900    3.981200    0.836100
      9          1           0        2.210200    0.686700    0.081200
     10          1           0        1.492900   -0.003700    1.545300
     11          1           0        3.889800    0.225000    1.922600
     12          1           0        3.068300    1.423200    2.931500
     13          1           0        3.520800    2.860900    1.037400
 ---------------------------------------------------------------------
                    Distance matrix (angstroms):
                    1          2          3          4          5
     1  C    0.000000
     2  O    1.435404   0.000000
     3  C    1.524760   2.402276   0.000000
     4  C    2.554564   2.933202   1.534483   0.000000
     5  O    3.114231   2.791090   2.462873   1.416121   0.000000
     6  H    1.100503   2.089504   2.169848   3.504586   4.094565
     7  H    1.101818   2.090324   2.160334   2.805396   3.526019
     8  H    1.971031   0.968803   3.243914   3.767301   3.610042
     9  H    2.154783   2.661917   1.097060   2.156239   2.658387
    10  H    2.135868   3.340794   1.098727   2.167508   3.385776
    11  H    3.487353   3.962478   2.166231   1.096091   2.020984
    12  H    2.750620   3.235992   2.164736   1.106392   2.091942
    13  H    2.654560   1.972955   2.501432   1.925094   0.973812
                    6          7          8          9         10
     6  H    0.000000
     7  H    1.779426   0.000000
     8  H    2.385060   2.292518   0.000000
     9  H    2.493304   3.066151   3.573825   0.000000
    10  H    2.458455   2.471560   4.071797   1.770525   0.000000
    11  H    4.314748   3.750541   4.833243   2.534754   2.437168
    12  H    3.761899   2.546015   3.874538   3.066428   2.537613
    13  H    3.623186   3.110437   2.721375   2.712773   3.546304
                   11         12         13
    11  H    0.000000
    12  H    1.768735   0.000000
    13  H    2.804944   2.420610   0.000000
 Stoichiometry    C3H8O2
 Framework group  C1[X(C3H8O2)]
 Deg. of freedom    33
 Full point group                 C1      NOp   1
 Largest Abelian subgroup         C1      NOp   1
 Largest concise Abelian subgroup C1      NOp   1
                         Standard orientation:                         
 ---------------------------------------------------------------------
 Center     Atomic      Atomic             Coordinates (Angstroms)
 Number     Number       Type             X           Y           Z
 ---------------------------------------------------------------------
      1          6           0        1.279122    0.476932    0.183540
      2          8           0        1.313242   -0.929184   -0.102915
      3          6           0       -0.033396    1.045416   -0.344677
      4          6           0       -1.272035    0.399497    0.290304
      5          8           0       -1.477722   -0.937696   -0.128032
      6          1           0        2.134825    0.983046   -0.288400
      7          1           0        1.345017    0.646545    1.270229
      8          1           0        2.081408   -1.316380    0.342709
      9          1           0       -0.079373    0.909092   -1.432263
     10          1           0       -0.037080    2.126234   -0.147141
     11          1           0       -2.170198    0.956633   -0.000073
     12          1           0       -1.192079    0.471487    1.391452
     13          1           0       -0.608824   -1.372689   -0.063945
 ---------------------------------------------------------------------
 Rotational constants (GHZ):      7.6403067      3.9465992      2.8720686
 Standard basis: VSTO-6G (5D, 7F)
 There are    28 symmetry adapted cartesian basis functions of A   symmetry.
 There are    28 symmetry adapted basis functions of A   symmetry.
    28 basis functions,   168 primitive gaussians,    28 cartesian basis functions
    16 alpha electrons       16 beta electrons
       nuclear repulsion energy       140.5615088079 Hartrees.
 Integral buffers will be    131072 words long.
 Regular integral format.
 Two-electron integral symmetry is turned off.
 Do NDO integrals.
 One-electron integrals computed using PRISM.
 NBasis=    28 RedAO= F EigKep=  0.00D+00  NBF=    28
 NBsUse=    28 1.00D-04 EigRej=  0.00D+00 NBFU=    28
 Simple Huckel Guess.
 Overlap will be assumed to be unity.
 Keep J ints in memory in canonical form, NReq=891302.
 Requested convergence on RMS density matrix=1.00D-08 within 128 cycles.
 Requested convergence on MAX density matrix=1.00D-06.
 Requested convergence on             energy=1.00D-06.
 No special actions if energy rises.
 SCF Done:  E(RAM1) = -0.182111719359     A.U. after   13 cycles
            NFock= 12  Conv=0.38D-08     -V/T= 0.9913

 **********************************************************************

            Population analysis using the SCF density.

 **********************************************************************

 Orbital symmetries:
       Occupied  (A) (A) (A) (A) (A) (A) (A) (A) (A) (A) (A) (A)
                 (A) (A) (A) (A)
       Virtual   (A) (A) (A) (A) (A) (A) (A) (A) (A) (A) (A) (A)
 The electronic state is 1-A.
 Alpha  occ. eigenvalues --   -1.43618  -1.35983  -1.19643  -0.97662  -0.82155
 Alpha  occ. eigenvalues --   -0.69327  -0.65897  -0.58056  -0.57642  -0.56701
 Alpha  occ. eigenvalues --   -0.52259  -0.48525  -0.47739  -0.43686  -0.41242
 Alpha  occ. eigenvalues --   -0.39416
 Alpha virt. eigenvalues --    0.10974   0.13053   0.13651   0.14479   0.15504
 Alpha virt. eigenvalues --    0.15782   0.16085   0.16916   0.18030   0.18476
 Alpha virt. eigenvalues --    0.21696   0.24853
          Condensed to atoms (all electrons):
               1          2          3          4          5          6
     1  C    4.016435   0.000000   0.000000   0.000000   0.000000   0.000000
     2  O    0.000000   6.347495   0.000000   0.000000   0.000000   0.000000
     3  C    0.000000   0.000000   4.203134   0.000000   0.000000   0.000000
     4  C    0.000000   0.000000   0.000000   4.007751   0.000000   0.000000
     5  O    0.000000   0.000000   0.000000   0.000000   6.331545   0.000000
     6  H    0.000000   0.000000   0.000000   0.000000   0.000000   0.931558
     7  H    0.000000   0.000000   0.000000   0.000000   0.000000   0.000000
     8  H    0.000000   0.000000   0.000000   0.000000   0.000000   0.000000
     9  H    0.000000   0.000000   0.000000   0.000000   0.000000   0.000000
    10  H    0.000000   0.000000   0.000000   0.000000   0.000000   0.000000
    11  H    0.000000   0.000000   0.000000   0.000000   0.000000   0.000000
    12  H    0.000000   0.000000   0.000000   0.000000   0.000000   0.000000
    13  H    0.000000   0.000000   0.000000   0.000000   0.000000   0.000000
               7          8          9         10         11         12
     1  C    0.000000   0.000000   0.000000   0.000000   0.000000   0.000000
     2  O    0.000000   0.000000   0.000000   0.000000   0.000000   0.000000
     3  C    0.000000   0.000000   0.000000   0.000000   0.000000   0.000000
     4  C    0.000000   0.000000   0.000000   0.000000   0.000000   0.000000
     5  O    0.000000   0.000000   0.000000   0.000000   0.000000   0.000000
     6  H    0.000000   0.000000   0.000000   0.000000   0.000000   0.000000
     7  H    0.938951   0.000000   0.000000   0.000000   0.000000   0.000000
     8  H    0.000000   0.791830   0.000000   0.000000   0.000000   0.000000
     9  H    0.000000   0.000000   0.895201   0.000000   0.000000   0.000000
    10  H    0.000000   0.000000   0.000000   0.907889   0.000000   0.000000
    11  H    0.000000   0.000000   0.000000   0.000000   0.906072   0.000000
    12  H    0.000000   0.000000   0.000000   0.000000   0.000000   0.945719
    13  H    0.000000   0.000000   0.000000   0.000000   0.000000   0.000000
              13
     1  C    0.000000
     2  O    0.000000
     3  C    0.000000
     4  C    0.000000
     5  O    0.000000
     6  H    0.000000
     7  H    0.000000
     8  H    0.000000
     9  H    0.000000
    10  H    0.000000
    11  H    0.000000
    12  H    0.000000
    13  H    0.776419
 Mulliken charges:
               1
     1  C   -0.016435
     2  O   -0.347495
     3  C   -0.203134
     4  C   -0.007751
     5  O   -0.331545
     6  H    0.068442
     7  H    0.061049
     8  H    0.208170
     9  H    0.104799
    10  H    0.092111
    11  H    0.093928
    12  H    0.054281
    13  H    0.223581
 Sum of Mulliken charges =  -0.00000
 Mulliken charges with hydrogens summed into heavy atoms:
               1
     1  C    0.113056
     2  O   -0.139325
     3  C   -0.006224
     4  C    0.140458
     5  O   -0.107964
 Charge=             -0.0000 electrons
 Dipole moment (field-independent basis, Debye):
    X=              2.4977    Y=              1.7051    Z=              1.2843  Tot=              3.2857
 N-N= 1.405615088079D+02 E-N=-2.374109646595D+02  KE=-2.088525046707D+01
 Calling FoFJK, ICntrl=      2127 FMM=F ISym2X=0 I1Cent= 0 IOpClX= 0 NMat=1 NMatS=1 NMatT=0.
 ***** Axes restored to original set *****
 -------------------------------------------------------------------
 Center     Atomic                   Forces (Hartrees/Bohr)
 Number     Number              X              Y              Z
 -------------------------------------------------------------------
      1        6           0.018905703    0.008703528   -0.004245968
      2        8          -0.009793329   -0.008063448    0.002016436
      3        6           0.008530762    0.018105490    0.006133982
      4        6          -0.014737198    0.007474746   -0.011504996
      5        8          -0.010204436   -0.002308567    0.003270147
      6        1          -0.010734489   -0.001882120   -0.010133437
      7        1          -0.001793304    0.004861154    0.014065596
      8        1           0.000263351   -0.007073252    0.001034910
      9        1           0.004272777   -0.000967954   -0.016006226
     10        1          -0.005912513   -0.011322615    0.007565922
     11        1           0.012093626   -0.014397421   -0.003047670
     12        1          -0.001697331    0.008504964    0.010080309
     13        1           0.010806381   -0.001634506    0.000770995
 -------------------------------------------------------------------
 Cartesian Forces:  Max     0.018905703 RMS     0.009104519

 GradGradGradGradGradGradGradGradGradGradGradGradGradGradGradGradGradGrad
 Berny optimization.
 FormGI is forming the generalized inverse of G from B-inverse, IUseBI=4.
 Internal  Forces:  Max     0.018533588 RMS     0.006905733
 Search for a local minimum.
 Step number   1 out of a maximum of   66
 All quantities printed in internal units (Hartrees-Bohrs-Radians)
 Mixed Optimization -- RFO/linear search
 Second derivative matrix not updated -- first step.
 ITU=  0
     Eigenvalues ---    0.00310   0.00438   0.01223   0.01479   0.03522
     Eigenvalues ---    0.04700   0.04853   0.05263   0.05833   0.05912
     Eigenvalues ---    0.08401   0.11134   0.11726   0.12250   0.13653
     Eigenvalues ---    0.14030   0.16000   0.16000   0.21957   0.21979
     Eigenvalues ---    0.22027   0.29013   0.29913   0.32985   0.33482
     Eigenvalues ---    0.33627   0.33823   0.34009   0.34118   0.40223
     Eigenvalues ---    0.43050   0.52605   0.53622
 RFO step:  Lambda=-1.18699983D-02 EMin= 3.09803529D-03
 Linear search not attempted -- first point.
 Iteration  1 RMS(Cart)=  0.11960442 RMS(Int)=  0.00654063
 Iteration  2 RMS(Cart)=  0.00747125 RMS(Int)=  0.00039976
 Iteration  3 RMS(Cart)=  0.00002279 RMS(Int)=  0.00039955
 Iteration  4 RMS(Cart)=  0.00000000 RMS(Int)=  0.00039955
 Variable       Old X    -DE/DX   Delta X   Delta X   Delta X     New X
                                 (Linear)    (Quad)   (Total)
    R1        2.71252  -0.01759   0.00000  -0.04247  -0.04247   2.67005
    R2        2.88138  -0.00043   0.00000  -0.00137  -0.00137   2.88001
    R3        2.07965   0.01443   0.00000   0.04145   0.04145   2.12110
    R4        2.08213   0.01470   0.00000   0.04239   0.04239   2.12453
    R5        1.83077  -0.00556   0.00000  -0.01014  -0.01014   1.82063
    R6        2.89975  -0.00381   0.00000  -0.01261  -0.01261   2.88714
    R7        2.07314   0.01644   0.00000   0.04671   0.04671   2.11985
    R8        2.07629   0.01467   0.00000   0.04190   0.04190   2.11820
    R9        2.67608  -0.00415   0.00000  -0.00938  -0.00938   2.66670
   R10        2.07131   0.01853   0.00000   0.05250   0.05250   2.12381
   R11        2.09078   0.01201   0.00000   0.03515   0.03515   2.12592
   R12        1.84024  -0.00800   0.00000  -0.01486  -0.01486   1.82537
    A1        1.89289   0.00553   0.00000   0.02040   0.02019   1.91308
    A2        1.92458  -0.00451   0.00000  -0.04355  -0.04356   1.88101
    A3        1.92431  -0.00183   0.00000  -0.00029  -0.00074   1.92358
    A4        1.92762  -0.00176   0.00000  -0.01384  -0.01381   1.91381
    A5        1.91321   0.00053   0.00000   0.01833   0.01813   1.93134
    A6        1.88142   0.00197   0.00000   0.01887   0.01885   1.90027
    A7        1.89501  -0.00824   0.00000  -0.04797  -0.04797   1.84704
    A8        1.97637   0.01054   0.00000   0.04548   0.04486   2.02123
    A9        1.91047  -0.00205   0.00000   0.01447   0.01327   1.92374
   A10        1.88322  -0.00428   0.00000  -0.03873  -0.03810   1.84511
   A11        1.90085  -0.00217   0.00000   0.01172   0.01043   1.91128
   A12        1.91450  -0.00513   0.00000  -0.04716  -0.04661   1.86789
   A13        1.87584   0.00277   0.00000   0.01253   0.01281   1.88865
   A14        1.97412   0.01247   0.00000   0.04980   0.04968   2.02380
   A15        1.91543  -0.00328   0.00000  -0.02034  -0.01968   1.89576
   A16        1.90300  -0.00055   0.00000   0.01740   0.01713   1.92013
   A17        1.85739  -0.00700   0.00000  -0.05682  -0.05651   1.80088
   A18        1.94545  -0.00565   0.00000  -0.02061  -0.02166   1.92378
   A19        1.86482   0.00340   0.00000   0.02762   0.02733   1.89215
   A20        1.84705   0.01327   0.00000   0.07723   0.07723   1.92428
    D1       -2.99913  -0.00155   0.00000  -0.02516  -0.02516  -3.02429
    D2        1.17133  -0.00011   0.00000   0.00560   0.00565   1.17699
    D3       -0.90422   0.00142   0.00000   0.00971   0.00965  -0.89457
    D4        1.04764   0.00438   0.00000   0.12211   0.12252   1.17016
    D5       -1.07683   0.00147   0.00000   0.06563   0.06548  -1.01135
    D6       -3.11313   0.00167   0.00000   0.06452   0.06461  -3.04852
    D7       -3.12469   0.00125   0.00000   0.07299   0.07330  -3.05140
    D8        1.03402  -0.00166   0.00000   0.01652   0.01626   1.05028
    D9       -1.00228  -0.00146   0.00000   0.01541   0.01538  -0.98690
   D10       -1.05418   0.00292   0.00000   0.09910   0.09927  -0.95491
   D11        3.10454   0.00001   0.00000   0.04262   0.04223  -3.13641
   D12        1.06824   0.00021   0.00000   0.04151   0.04136   1.10960
   D13       -1.23369  -0.00434   0.00000  -0.14797  -0.14859  -1.38228
   D14        2.97836  -0.00128   0.00000  -0.09432  -0.09456   2.88380
   D15        0.94129  -0.00320   0.00000  -0.12607  -0.12604   0.81526
   D16        0.89616  -0.00144   0.00000  -0.09042  -0.09055   0.80561
   D17       -1.17497   0.00162   0.00000  -0.03676  -0.03652  -1.21149
   D18        3.07115  -0.00030   0.00000  -0.06851  -0.06800   3.00315
   D19        2.94473  -0.00229   0.00000  -0.09543  -0.09571   2.84902
   D20        0.87360   0.00077   0.00000  -0.04178  -0.04168   0.83192
   D21       -1.16347  -0.00115   0.00000  -0.07353  -0.07315  -1.23662
   D22        0.80703   0.00307   0.00000   0.07081   0.07091   0.87794
   D23        2.91151   0.00173   0.00000   0.03715   0.03641   2.94792
   D24       -1.34468  -0.00122   0.00000   0.02629   0.02694  -1.31774
         Item               Value     Threshold  Converged?
 Maximum Force            0.018534     0.000450     NO 
 RMS     Force            0.006906     0.000300     NO 
 Maximum Displacement     0.583861     0.001800     NO 
 RMS     Displacement     0.121586     0.001200     NO 
 Predicted change in Energy=-6.947874D-03
 GradGradGradGradGradGradGradGradGradGradGradGradGradGradGradGradGradGrad

                          Input orientation:                          
 ---------------------------------------------------------------------
 Center     Atomic      Atomic             Coordinates (Angstroms)
 Number     Number       Type             X           Y           Z
 ---------------------------------------------------------------------
      1          6           0        0.972028    2.066291    1.239299
      2          8           0        1.468687    3.236676    0.622943
      3          6           0        1.997972    0.946482    1.112237
      4          6           0        3.298362    1.144437    1.889414
      5          8           0        4.246608    2.005749    1.297528
      6          1           0        0.026909    1.774358    0.708838
      7          1           0        0.735556    2.266804    2.319954
      8          1           0        0.832779    3.931128    0.826832
      9          1           0        2.232487    0.756203    0.031875
     10          1           0        1.502324    0.031793    1.529487
     11          1           0        3.840480    0.161170    1.938162
     12          1           0        3.072242    1.477984    2.939756
     13          1           0        3.829766    2.840325    1.046975
 ---------------------------------------------------------------------
                    Distance matrix (angstroms):
                    1          2          3          4          5
     1  C    0.000000
     2  O    1.412928   0.000000
     3  C    1.524034   2.400945   0.000000
     4  C    2.585400   3.054361   1.527810   0.000000
     5  O    3.275658   3.112410   2.492538   1.411154   0.000000
     6  H    1.122436   2.055353   2.175592   3.534539   4.266845
     7  H    1.124251   2.087577   2.189868   2.830732   3.666196
     8  H    1.914977   0.963438   3.216713   3.869603   3.947515
     9  H    2.182421   2.661860   1.121778   2.176526   2.686992
    10  H    2.122406   3.330800   1.120902   2.143193   3.388422
    11  H    3.513676   4.100480   2.166496   1.123870   1.994448
    12  H    2.765603   3.321446   2.185492   1.124990   2.086764
    13  H    2.966949   2.431376   2.635597   1.966756   0.965946
                    6          7          8          9         10
     6  H    0.000000
     7  H    1.827670   0.000000
     8  H    2.305430   2.238044   0.000000
     9  H    2.521804   3.123783   3.559675   0.000000
    10  H    2.426283   2.491595   4.018312   1.816797   0.000000
    11  H    4.319368   3.770943   4.949132   2.563910   2.377126
    12  H    3.786672   2.542930   3.936694   3.111580   2.558314
    13  H    3.963880   3.394634   3.196912   2.815190   3.679356
                   11         12         13
    11  H    0.000000
    12  H    1.824111   0.000000
    13  H    2.823509   2.452027   0.000000
 Stoichiometry    C3H8O2
 Framework group  C1[X(C3H8O2)]
 Deg. of freedom    33
 Full point group                 C1      NOp   1
 Largest Abelian subgroup         C1      NOp   1
 Largest concise Abelian subgroup C1      NOp   1
                         Standard orientation:                         
 ---------------------------------------------------------------------
 Center     Atomic      Atomic             Coordinates (Angstroms)
 Number     Number       Type             X           Y           Z
 ---------------------------------------------------------------------
      1          6           0        1.315952    0.449969    0.190569
      2          8           0        1.445077   -0.925164   -0.107259
      3          6           0       -0.004260    0.971690   -0.363979
      4          6           0       -1.267133    0.420388    0.295886
      5          8           0       -1.666808   -0.868754   -0.116097
      6          1           0        2.170309    0.988367   -0.299396
      7          1           0        1.371913    0.613750    1.301417
      8          1           0        2.236559   -1.221078    0.355564
      9          1           0       -0.054647    0.799811   -1.471366
     10          1           0        0.005461    2.077546   -0.181199
     11          1           0       -2.138035    1.065798   -0.000862
     12          1           0       -1.163564    0.456183    1.415527
     13          1           0       -0.921506   -1.481317   -0.067691
 ---------------------------------------------------------------------
 Rotational constants (GHZ):      8.0811174      3.4614112      2.6694856
 Standard basis: VSTO-6G (5D, 7F)
 There are    28 symmetry adapted cartesian basis functions of A   symmetry.
 There are    28 symmetry adapted basis functions of A   symmetry.
    28 basis functions,   168 primitive gaussians,    28 cartesian basis functions
    16 alpha electrons       16 beta electrons
       nuclear repulsion energy       138.9850344779 Hartrees.
 Integral buffers will be    131072 words long.
 Regular integral format.
 Two-electron integral symmetry is turned off.
 Do NDO integrals.
 One-electron integrals computed using PRISM.
 NBasis=    28 RedAO= F EigKep=  0.00D+00  NBF=    28
 NBsUse=    28 1.00D-04 EigRej=  0.00D+00 NBFU=    28
 Initial guess from the checkpoint file:  "1-3-propanediol-opt.chk"
 B after Tr=     0.000000   -0.000000   -0.000000
         Rot=    0.999924    0.005738   -0.001971    0.010768 Ang=   1.42 deg.
 Overlap will be assumed to be unity.
 Keep J ints in memory in canonical form, NReq=891302.
 Requested convergence on RMS density matrix=1.00D-08 within 128 cycles.
 Requested convergence on MAX density matrix=1.00D-06.
 Requested convergence on             energy=1.00D-06.
 No special actions if energy rises.
 SCF Done:  E(RAM1) = -0.184001828555     A.U. after   12 cycles
            NFock= 11  Conv=0.29D-08     -V/T= 0.9912
 Calling FoFJK, ICntrl=      2127 FMM=F ISym2X=0 I1Cent= 0 IOpClX= 0 NMat=1 NMatS=1 NMatT=0.
 ***** Axes restored to original set *****
 -------------------------------------------------------------------
 Center     Atomic                   Forces (Hartrees/Bohr)
 Number     Number              X              Y              Z
 -------------------------------------------------------------------
      1        6           0.003944263   -0.005810721    0.001538023
      2        8           0.007061528    0.003224932   -0.000189864
      3        6           0.003565622    0.004892275    0.002073240
      4        6          -0.006816585    0.002272797   -0.001590099
      5        8          -0.001185735   -0.000424875   -0.002594470
      6        1          -0.002396025   -0.003387392    0.000678700
      7        1           0.001128329   -0.000537995   -0.000086869
      8        1           0.000342186    0.002185096   -0.001154319
      9        1           0.000106514    0.002824423    0.001370289
     10        1          -0.000074885   -0.002446646   -0.000801141
     11        1           0.000751478   -0.002007647    0.000590302
     12        1          -0.000250193    0.002197948   -0.001758577
     13        1          -0.006176497   -0.002982195    0.001924786
 -------------------------------------------------------------------
 Cartesian Forces:  Max     0.007061528 RMS     0.002869201

 GradGradGradGradGradGradGradGradGradGradGradGradGradGradGradGradGradGrad
 Berny optimization.
 Using GEDIIS/GDIIS optimizer.
 FormGI is forming the generalized inverse of G from B-inverse, IUseBI=4.
 GSVD:  received Info=                   1 from GESDD.
 Internal  Forces:  Max     0.014854893 RMS     0.004897282
 Search for a local minimum.
 Step number   2 out of a maximum of   66
 All quantities printed in internal units (Hartrees-Bohrs-Radians)
 Mixed Optimization -- RFO/linear search
 Update second derivatives using D2CorX and points    1    2
 DE= -1.89D-03 DEPred=-6.95D-03 R= 2.72D-01
 Trust test= 2.72D-01 RLast= 4.08D-01 DXMaxT set to 3.00D-01
 ITU=  0  0
 Use linear search instead of GDIIS.
     Eigenvalues ---    0.00337   0.00467   0.01223   0.01493   0.03533
     Eigenvalues ---    0.04599   0.04823   0.05342   0.05564   0.05879
     Eigenvalues ---    0.08783   0.11367   0.12079   0.12548   0.13708
     Eigenvalues ---    0.14210   0.15903   0.16956   0.21988   0.22069
     Eigenvalues ---    0.24642   0.27265   0.29642   0.33053   0.33465
     Eigenvalues ---    0.33689   0.33818   0.34020   0.36493   0.41936
     Eigenvalues ---    0.46430   0.52467   0.53718
 RFO step:  Lambda=-3.40533529D-03 EMin= 3.36756163D-03
 Quartic linear search produced a step of -0.43062.
 Iteration  1 RMS(Cart)=  0.11874044 RMS(Int)=  0.00502753
 Iteration  2 RMS(Cart)=  0.00640642 RMS(Int)=  0.00013647
 Iteration  3 RMS(Cart)=  0.00001378 RMS(Int)=  0.00013615
 Iteration  4 RMS(Cart)=  0.00000000 RMS(Int)=  0.00013615
 Variable       Old X    -DE/DX   Delta X   Delta X   Delta X     New X
                                 (Linear)    (Quad)   (Total)
    R1        2.67005   0.00767   0.01829  -0.01966  -0.00137   2.66867
    R2        2.88001  -0.00990   0.00059  -0.02029  -0.01970   2.86031
    R3        2.12110   0.00258  -0.01785   0.03432   0.01647   2.13757
    R4        2.12453  -0.00042  -0.01825   0.02979   0.01153   2.13606
    R5        1.82063   0.00110   0.00437  -0.00622  -0.00186   1.81878
    R6        2.88714  -0.01351   0.00543  -0.03616  -0.03073   2.85641
    R7        2.11985  -0.00178  -0.02011   0.03060   0.01048   2.13034
    R8        2.11820   0.00173  -0.01804   0.03317   0.01513   2.13332
    R9        2.66670  -0.00675   0.00404  -0.01600  -0.01196   2.65474
   R10        2.12381   0.00214  -0.02261   0.04150   0.01889   2.14270
   R11        2.12592  -0.00094  -0.01513   0.02362   0.00848   2.13441
   R12        1.82537  -0.00041   0.00640  -0.01135  -0.00494   1.82043
    A1        1.91308  -0.00902  -0.00869  -0.00977  -0.01844   1.89464
    A2        1.88101   0.00587   0.01876   0.00270   0.02148   1.90249
    A3        1.92358   0.00244   0.00032  -0.00378  -0.00345   1.92013
    A4        1.91381   0.00033   0.00595  -0.00658  -0.00057   1.91324
    A5        1.93134   0.00107  -0.00781   0.00393  -0.00391   1.92743
    A6        1.90027  -0.00051  -0.00812   0.01357   0.00544   1.90572
    A7        1.84704   0.00404   0.02066  -0.01817   0.00249   1.84953
    A8        2.02123  -0.01317  -0.01932  -0.00725  -0.02672   1.99452
    A9        1.92374   0.00251  -0.00571  -0.00982  -0.01571   1.90803
   A10        1.84511   0.00529   0.01641   0.00982   0.02621   1.87132
   A11        1.91128   0.00362  -0.00449  -0.00619  -0.01090   1.90038
   A12        1.86789   0.00407   0.02007  -0.00105   0.01904   1.88692
   A13        1.88865  -0.00174  -0.00552   0.01749   0.01202   1.90067
   A14        2.02380  -0.01485  -0.02139  -0.00784  -0.02944   1.99435
   A15        1.89576   0.00399   0.00847   0.00938   0.01764   1.91340
   A16        1.92013   0.00293  -0.00738   0.00654  -0.00133   1.91880
   A17        1.80088   0.00561   0.02433  -0.01007   0.01437   1.81525
   A18        1.92378   0.00376   0.00933  -0.02491  -0.01562   1.90816
   A19        1.89215  -0.00063  -0.01177   0.02997   0.01826   1.91041
   A20        1.92428  -0.01291  -0.03326   0.00609  -0.02717   1.89711
    D1       -3.02429   0.00040   0.01083  -0.00926   0.00148  -3.02281
    D2        1.17699   0.00167  -0.00243   0.00261   0.00024   1.17722
    D3       -0.89457  -0.00260  -0.00416  -0.01323  -0.01735  -0.91193
    D4        1.17016  -0.00309  -0.05276  -0.06837  -0.12109   1.04907
    D5       -1.01135   0.00023  -0.02820  -0.04589  -0.07416  -1.08551
    D6       -3.04852  -0.00191  -0.02782  -0.06701  -0.09485   3.13982
    D7       -3.05140  -0.00111  -0.03156  -0.07480  -0.10631   3.12548
    D8        1.05028   0.00221  -0.00700  -0.05233  -0.05938   0.99089
    D9       -0.98690   0.00007  -0.00662  -0.07344  -0.08007  -1.06696
   D10       -0.95491  -0.00085  -0.04275  -0.05971  -0.10239  -1.05730
   D11       -3.13641   0.00247  -0.01819  -0.03723  -0.05546   3.09131
   D12        1.10960   0.00033  -0.01781  -0.05835  -0.07615   1.03345
   D13       -1.38228   0.00372   0.06399   0.12738   0.19138  -1.19090
   D14        2.88380   0.00282   0.04072   0.13833   0.17911   3.06291
   D15        0.81526  -0.00050   0.05427   0.09258   0.14676   0.96201
   D16        0.80561  -0.00006   0.03899   0.10320   0.14223   0.94785
   D17       -1.21149  -0.00096   0.01573   0.11415   0.12997  -1.08152
   D18        3.00315  -0.00428   0.02928   0.06840   0.09762   3.10077
   D19        2.84902   0.00204   0.04121   0.12007   0.16128   3.01030
   D20        0.83192   0.00114   0.01795   0.13102   0.14902   0.98094
   D21       -1.23662  -0.00218   0.03150   0.08527   0.11666  -1.11996
   D22        0.87794  -0.00226  -0.03053  -0.01547  -0.04577   0.83217
   D23        2.94792  -0.00142  -0.01568  -0.01495  -0.03028   2.91764
   D24       -1.31774   0.00241  -0.01160   0.00345  -0.00873  -1.32648
         Item               Value     Threshold  Converged?
 Maximum Force            0.014855     0.000450     NO 
 RMS     Force            0.004897     0.000300     NO 
 Maximum Displacement     0.498139     0.001800     NO 
 RMS     Displacement     0.118321     0.001200     NO 
 Predicted change in Energy=-9.957241D-04
 GradGradGradGradGradGradGradGradGradGradGradGradGradGradGradGradGradGrad

                          Input orientation:                          
 ---------------------------------------------------------------------
 Center     Atomic      Atomic             Coordinates (Angstroms)
 Number     Number       Type             X           Y           Z
 ---------------------------------------------------------------------
      1          6           0        1.008418    2.062712    1.227261
      2          8           0        1.615093    3.198970    0.648318
      3          6           0        1.979878    0.904735    1.147451
      4          6           0        3.286529    1.138750    1.870414
      5          8           0        4.103229    2.119875    1.283959
      6          1           0        0.069507    1.811393    0.648649
      7          1           0        0.735849    2.275707    2.303383
      8          1           0        1.015520    3.933163    0.815040
      9          1           0        2.197631    0.674416    0.065601
     10          1           0        1.474138    0.011284    1.616920
     11          1           0        3.917357    0.197376    1.831384
     12          1           0        3.086888    1.413503    2.947622
     13          1           0        3.566162    2.897514    1.097298
 ---------------------------------------------------------------------
                    Distance matrix (angstroms):
                    1          2          3          4          5
     1  C    0.000000
     2  O    1.412201   0.000000
     3  C    1.513610   2.376072   0.000000
     4  C    2.541090   2.920911   1.511547   0.000000
     5  O    3.095857   2.785553   2.450269   1.404825   0.000000
     6  H    1.131153   2.077067   2.172636   3.506335   4.095081
     7  H    1.130354   2.089193   2.182510   2.825969   3.521754
     8  H    1.915349   0.962456   3.195599   3.752337   3.611349
     9  H    2.165883   2.655614   1.127326   2.158391   2.684223
    10  H    2.139413   3.334577   1.128906   2.149465   3.386611
    11  H    3.508043   3.963537   2.173003   1.133866   2.007542
    12  H    2.775095   3.262035   2.173691   1.129479   2.073568
    13  H    2.693666   2.024630   2.547544   1.941431   0.963330
                    6          7          8          9         10
     6  H    0.000000
     7  H    1.843297   0.000000
     8  H    2.329063   2.245115   0.000000
     9  H    2.482252   3.115864   3.546614   0.000000
    10  H    2.480107   2.478692   4.029202   1.835695   0.000000
    11  H    4.337033   3.829391   4.838358   2.510580   2.459662
    12  H    3.814208   2.585696   3.897070   3.105330   2.517529
    13  H    3.688840   3.138783   2.767311   2.807034   3.602345
                   11         12         13
    11  H    0.000000
    12  H    1.847872   0.000000
    13  H    2.820100   2.419854   0.000000
 Stoichiometry    C3H8O2
 Framework group  C1[X(C3H8O2)]
 Deg. of freedom    33
 Full point group                 C1      NOp   1
 Largest Abelian subgroup         C1      NOp   1
 Largest concise Abelian subgroup C1      NOp   1
                         Standard orientation:                         
 ---------------------------------------------------------------------
 Center     Atomic      Atomic             Coordinates (Angstroms)
 Number     Number       Type             X           Y           Z
 ---------------------------------------------------------------------
      1          6           0        1.274396    0.459070    0.189996
      2          8           0        1.309193   -0.919144   -0.115992
      3          6           0       -0.025943    1.034841   -0.328288
      4          6           0       -1.264969    0.406828    0.267689
      5          8           0       -1.476343   -0.928420   -0.114368
      6          1           0        2.145738    0.971266   -0.317868
      7          1           0        1.354964    0.609444    1.307403
      8          1           0        2.092544   -1.267771    0.321207
      9          1           0       -0.063080    0.922388   -1.449376
     10          1           0       -0.030955    2.133945   -0.070655
     11          1           0       -2.186247    0.949409   -0.109808
     12          1           0       -1.225576    0.471483    1.394629
     13          1           0       -0.651092   -1.414087   -0.009040
 ---------------------------------------------------------------------
 Rotational constants (GHZ):      7.7703798      3.9588200      2.8930118
 Standard basis: VSTO-6G (5D, 7F)
 There are    28 symmetry adapted cartesian basis functions of A   symmetry.
 There are    28 symmetry adapted basis functions of A   symmetry.
    28 basis functions,   168 primitive gaussians,    28 cartesian basis functions
    16 alpha electrons       16 beta electrons
       nuclear repulsion energy       140.6825317395 Hartrees.
 Integral buffers will be    131072 words long.
 Regular integral format.
 Two-electron integral symmetry is turned off.
 Do NDO integrals.
 One-electron integrals computed using PRISM.
 NBasis=    28 RedAO= F EigKep=  0.00D+00  NBF=    28
 NBsUse=    28 1.00D-04 EigRej=  0.00D+00 NBFU=    28
 Initial guess from the checkpoint file:  "1-3-propanediol-opt.chk"
 B after Tr=    -0.000000   -0.000000    0.000000
         Rot=    0.999929   -0.006669    0.002424   -0.009617 Ang=  -1.37 deg.
 Overlap will be assumed to be unity.
 Keep J ints in memory in canonical form, NReq=891302.
 Requested convergence on RMS density matrix=1.00D-08 within 128 cycles.
 Requested convergence on MAX density matrix=1.00D-06.
 Requested convergence on             energy=1.00D-06.
 No special actions if energy rises.
 SCF Done:  E(RAM1) = -0.185057756599     A.U. after   12 cycles
            NFock= 11  Conv=0.26D-08     -V/T= 0.9911
 Calling FoFJK, ICntrl=      2127 FMM=F ISym2X=0 I1Cent= 0 IOpClX= 0 NMat=1 NMatS=1 NMatT=0.
 ***** Axes restored to original set *****
 -------------------------------------------------------------------
 Center     Atomic                   Forces (Hartrees/Bohr)
 Number     Number              X              Y              Z
 -------------------------------------------------------------------
      1        6          -0.006639928   -0.004764065    0.004297436
      2        8          -0.001198966    0.005373577   -0.002426470
      3        6          -0.002490660   -0.007679190   -0.003942893
      4        6           0.001874271   -0.004329542    0.007293988
      5        8           0.006566711    0.000885246   -0.003335505
      6        1           0.002385676    0.000631026    0.003226280
      7        1           0.000660740   -0.000760416   -0.003770432
      8        1           0.000349635    0.002947143   -0.001134035
      9        1          -0.001206422    0.000912285    0.003629119
     10        1           0.001875828    0.002358237   -0.003596578
     11        1          -0.002978297    0.003960113    0.001611000
     12        1           0.000444213   -0.001140624   -0.002370166
     13        1           0.000357200    0.001606209    0.000518258
 -------------------------------------------------------------------
 Cartesian Forces:  Max     0.007679190 RMS     0.003393816

 GradGradGradGradGradGradGradGradGradGradGradGradGradGradGradGradGradGrad
 Berny optimization.
 Using GEDIIS/GDIIS optimizer.
 FormGI is forming the generalized inverse of G from B-inverse, IUseBI=4.
 GSVD:  received Info=                   1 from GESDD.
 Internal  Forces:  Max     0.007789646 RMS     0.002884447
 Search for a local minimum.
 Step number   3 out of a maximum of   66
 All quantities printed in internal units (Hartrees-Bohrs-Radians)
 Mixed Optimization -- RFO/linear search
 Update second derivatives using D2CorX and points    1    2    3
 DE= -1.06D-03 DEPred=-9.96D-04 R= 1.06D+00
 TightC=F SS=  1.41D+00  RLast= 5.30D-01 DXNew= 5.0454D-01 1.5886D+00
 Trust test= 1.06D+00 RLast= 5.30D-01 DXMaxT set to 5.05D-01
 ITU=  1  0  0
 Use linear search instead of GDIIS.
     Eigenvalues ---    0.00335   0.00461   0.01222   0.01491   0.03682
     Eigenvalues ---    0.04806   0.05030   0.05475   0.05766   0.06124
     Eigenvalues ---    0.08521   0.11228   0.11930   0.12316   0.13627
     Eigenvalues ---    0.14090   0.16258   0.16997   0.22038   0.22112
     Eigenvalues ---    0.25918   0.29604   0.32042   0.33044   0.33559
     Eigenvalues ---    0.33756   0.33975   0.34120   0.39667   0.43597
     Eigenvalues ---    0.52355   0.52696   0.54039
 RFO step:  Lambda=-4.43419775D-04 EMin= 3.34742767D-03
 Quartic linear search produced a step of -0.31302.
 Iteration  1 RMS(Cart)=  0.03525844 RMS(Int)=  0.00042327
 Iteration  2 RMS(Cart)=  0.00068239 RMS(Int)=  0.00005309
 Iteration  3 RMS(Cart)=  0.00000024 RMS(Int)=  0.00005309
 Variable       Old X    -DE/DX   Delta X   Delta X   Delta X     New X
                                 (Linear)    (Quad)   (Total)
    R1        2.66867   0.00779   0.00043   0.01531   0.01574   2.68441
    R2        2.86031   0.00548   0.00617   0.00132   0.00748   2.86779
    R3        2.13757  -0.00377  -0.00516  -0.00409  -0.00924   2.12833
    R4        2.13606  -0.00389  -0.00361  -0.00657  -0.01019   2.12587
    R5        1.81878   0.00183   0.00058   0.00241   0.00299   1.82177
    R6        2.85641   0.00735   0.00962   0.00158   0.01120   2.86761
    R7        2.13034  -0.00390  -0.00328  -0.00752  -0.01080   2.11953
    R8        2.13332  -0.00420  -0.00473  -0.00539  -0.01012   2.12320
    R9        2.65474   0.00694   0.00374   0.00468   0.00842   2.66316
   R10        2.14270  -0.00500  -0.00591  -0.00630  -0.01221   2.13048
   R11        2.13441  -0.00262  -0.00266  -0.00500  -0.00765   2.12675
   R12        1.82043   0.00100   0.00155   0.00091   0.00245   1.82288
    A1        1.89464   0.00523   0.00577   0.00357   0.00935   1.90400
    A2        1.90249  -0.00190  -0.00672   0.00721   0.00048   1.90298
    A3        1.92013  -0.00104   0.00108   0.00170   0.00283   1.92296
    A4        1.91324  -0.00106   0.00018  -0.00354  -0.00340   1.90984
    A5        1.92743  -0.00110   0.00122  -0.00362  -0.00240   1.92503
    A6        1.90572  -0.00014  -0.00170  -0.00514  -0.00686   1.89886
    A7        1.84953   0.00470  -0.00078   0.02170   0.02093   1.87046
    A8        1.99452   0.00492   0.00836  -0.00284   0.00561   2.00013
    A9        1.90803  -0.00103   0.00492  -0.00143   0.00363   1.91166
   A10        1.87132  -0.00196  -0.00821   0.00243  -0.00584   1.86548
   A11        1.90038  -0.00062   0.00341   0.00321   0.00681   1.90720
   A12        1.88692  -0.00159  -0.00596   0.00189  -0.00413   1.88280
   A13        1.90067   0.00012  -0.00376  -0.00339  -0.00719   1.89348
   A14        1.99435   0.00572   0.00922  -0.00378   0.00549   1.99985
   A15        1.91340  -0.00134  -0.00552   0.00185  -0.00370   1.90970
   A16        1.91880  -0.00115   0.00042   0.00071   0.00126   1.92006
   A17        1.81525  -0.00251  -0.00450  -0.00106  -0.00562   1.80963
   A18        1.90816  -0.00078   0.00489   0.00220   0.00720   1.91537
   A19        1.91041  -0.00013  -0.00572   0.00011  -0.00558   1.90483
   A20        1.89711   0.00152   0.00850  -0.01528  -0.00677   1.89034
    D1       -3.02281  -0.00035  -0.00046  -0.01151  -0.01195  -3.03476
    D2        1.17722  -0.00103  -0.00008  -0.01350  -0.01362   1.16361
    D3       -0.91193   0.00093   0.00543  -0.01268  -0.00723  -0.91916
    D4        1.04907   0.00184   0.03790   0.01421   0.05206   1.10113
    D5       -1.08551  -0.00002   0.02321   0.01311   0.03636  -1.04915
    D6        3.13982   0.00149   0.02969   0.01654   0.04623  -3.09714
    D7        3.12548   0.00203   0.03328   0.02300   0.05622  -3.10149
    D8        0.99089   0.00017   0.01859   0.02190   0.04052   1.03142
    D9       -1.06696   0.00169   0.02506   0.02533   0.05038  -1.01658
   D10       -1.05730   0.00048   0.03205   0.01207   0.04409  -1.01321
   D11        3.09131  -0.00137   0.01736   0.01097   0.02840   3.11970
   D12        1.03345   0.00014   0.02384   0.01440   0.03826   1.07171
   D13       -1.19090  -0.00257  -0.05991   0.00825  -0.05159  -1.24250
   D14        3.06291  -0.00204  -0.05607   0.01067  -0.04539   3.01752
   D15        0.96201  -0.00032  -0.04594   0.00894  -0.03698   0.92503
   D16        0.94785  -0.00097  -0.04452   0.00684  -0.03767   0.91018
   D17       -1.08152  -0.00044  -0.04068   0.00926  -0.03147  -1.11299
   D18        3.10077   0.00128  -0.03056   0.00752  -0.02306   3.07770
   D19        3.01030  -0.00207  -0.05048   0.00563  -0.04482   2.96548
   D20        0.98094  -0.00154  -0.04665   0.00805  -0.03862   0.94231
   D21       -1.11996   0.00019  -0.03652   0.00632  -0.03022  -1.15018
   D22        0.83217   0.00139   0.01433   0.01487   0.02913   0.86130
   D23        2.91764   0.00119   0.00948   0.01439   0.02386   2.94150
   D24       -1.32648  -0.00063   0.00273   0.01496   0.01776  -1.30872
         Item               Value     Threshold  Converged?
 Maximum Force            0.007790     0.000450     NO 
 RMS     Force            0.002884     0.000300     NO 
 Maximum Displacement     0.119069     0.001800     NO 
 RMS     Displacement     0.035513     0.001200     NO 
 Predicted change in Energy=-1.018357D-03
 GradGradGradGradGradGradGradGradGradGradGradGradGradGradGradGradGradGrad

                          Input orientation:                          
 ---------------------------------------------------------------------
 Center     Atomic      Atomic             Coordinates (Angstroms)
 Number     Number       Type             X           Y           Z
 ---------------------------------------------------------------------
      1          6           0        1.000200    2.063956    1.233290
      2          8           0        1.568152    3.215485    0.625576
      3          6           0        1.985591    0.913983    1.135403
      4          6           0        3.290433    1.135303    1.877781
      5          8           0        4.144190    2.090597    1.290761
      6          1           0        0.051874    1.791905    0.690030
      7          1           0        0.753080    2.275494    2.310197
      8          1           0        0.965052    3.949794    0.788142
      9          1           0        2.205192    0.699163    0.056684
     10          1           0        1.482648    0.014319    1.582636
     11          1           0        3.898564    0.186188    1.857987
     12          1           0        3.082053    1.417777    2.947069
     13          1           0        3.629171    2.885435    1.107744
 ---------------------------------------------------------------------
                    Distance matrix (angstroms):
                    1          2          3          4          5
     1  C    0.000000
     2  O    1.420530   0.000000
     3  C    1.517569   2.393969   0.000000
     4  C    2.554004   2.976814   1.517472   0.000000
     5  O    3.144628   2.888566   2.463353   1.409283   0.000000
     6  H    1.126261   2.080825   2.169877   3.511430   4.146944
     7  H    1.124964   2.094247   2.180122   2.815169   3.545851
     8  H    1.937982   0.964037   3.221527   3.809996   3.717009
     9  H    2.167733   2.657317   1.121608   2.164339   2.686773
    10  H    2.134435   3.342265   1.123550   2.147511   3.388204
    11  H    3.509527   4.015756   2.170549   1.127402   2.002212
    12  H    2.772850   3.303479   2.176735   1.125429   2.079467
    13  H    2.757187   2.142245   2.566855   1.941819   0.964628
                    6          7          8          9         10
     6  H    0.000000
     7  H    1.830434   0.000000
     8  H    2.345209   2.272633   0.000000
     9  H    2.496395   3.109946   3.555218   0.000000
    10  H    2.450239   2.484860   4.048097   1.821979   0.000000
    11  H    4.328912   3.803125   4.890275   2.524945   2.437623
    12  H    3.796865   2.562303   3.943826   3.104773   2.527740
    13  H    3.763954   3.176447   2.886613   2.812869   3.616129
                   11         12         13
    11  H    0.000000
    12  H    1.835649   0.000000
    13  H    2.814494   2.415880   0.000000
 Stoichiometry    C3H8O2
 Framework group  C1[X(C3H8O2)]
 Deg. of freedom    33
 Full point group                 C1      NOp   1
 Largest Abelian subgroup         C1      NOp   1
 Largest concise Abelian subgroup C1      NOp   1
                         Standard orientation:                         
 ---------------------------------------------------------------------
 Center     Atomic      Atomic             Coordinates (Angstroms)
 Number     Number       Type             X           Y           Z
 ---------------------------------------------------------------------
      1          6           0        1.279244    0.464829    0.197704
      2          8           0        1.363263   -0.917604   -0.118089
      3          6           0       -0.026689    1.018677   -0.341562
      4          6           0       -1.273044    0.408571    0.272515
      5          8           0       -1.525295   -0.923069   -0.113729
      6          1           0        2.142378    1.004714   -0.283948
      7          1           0        1.335415    0.612538    1.311513
      8          1           0        2.150947   -1.261835    0.318288
      9          1           0       -0.059206    0.885510   -1.454763
     10          1           0       -0.033244    2.118922   -0.114006
     11          1           0       -2.182041    0.968222   -0.090184
     12          1           0       -1.221876    0.475693    1.394775
     13          1           0       -0.713184   -1.430847    0.000927
 ---------------------------------------------------------------------
 Rotational constants (GHZ):      7.8082635      3.7959210      2.8158320
 Standard basis: VSTO-6G (5D, 7F)
 There are    28 symmetry adapted cartesian basis functions of A   symmetry.
 There are    28 symmetry adapted basis functions of A   symmetry.
    28 basis functions,   168 primitive gaussians,    28 cartesian basis functions
    16 alpha electrons       16 beta electrons
       nuclear repulsion energy       140.0595548772 Hartrees.
 Integral buffers will be    131072 words long.
 Regular integral format.
 Two-electron integral symmetry is turned off.
 Do NDO integrals.
 One-electron integrals computed using PRISM.
 NBasis=    28 RedAO= F EigKep=  0.00D+00  NBF=    28
 NBsUse=    28 1.00D-04 EigRej=  0.00D+00 NBFU=    28
 Initial guess from the checkpoint file:  "1-3-propanediol-opt.chk"
 B after Tr=     0.000000    0.000000   -0.000000
         Rot=    0.999997    0.002199    0.000237   -0.000408 Ang=   0.26 deg.
 Overlap will be assumed to be unity.
 Keep J ints in memory in canonical form, NReq=891302.
 Requested convergence on RMS density matrix=1.00D-08 within 128 cycles.
 Requested convergence on MAX density matrix=1.00D-06.
 Requested convergence on             energy=1.00D-06.
 No special actions if energy rises.
 SCF Done:  E(RAM1) = -0.185803618700     A.U. after   11 cycles
            NFock= 10  Conv=0.51D-08     -V/T= 0.9911
 Calling FoFJK, ICntrl=      2127 FMM=F ISym2X=0 I1Cent= 0 IOpClX= 0 NMat=1 NMatS=1 NMatT=0.
 ***** Axes restored to original set *****
 -------------------------------------------------------------------
 Center     Atomic                   Forces (Hartrees/Bohr)
 Number     Number              X              Y              Z
 -------------------------------------------------------------------
      1        6          -0.001007656    0.000953040    0.000810345
      2        8           0.001570317   -0.002113280    0.000713347
      3        6           0.000219691   -0.000127223   -0.001225015
      4        6          -0.000183494   -0.001259597    0.002068512
      5        8           0.000630546   -0.000002845   -0.001711853
      6        1           0.000551789    0.000440933    0.000938052
      7        1           0.000684671    0.000647621   -0.000985451
      8        1          -0.000482653   -0.000993620    0.000203063
      9        1           0.000126476    0.001168998    0.000506917
     10        1           0.000383550   -0.000235538   -0.001531796
     11        1          -0.000904852    0.000330360    0.001162124
     12        1          -0.000053447    0.000511970   -0.000855903
     13        1          -0.001534939    0.000679182   -0.000092343
 -------------------------------------------------------------------
 Cartesian Forces:  Max     0.002113280 RMS     0.000955458

 GradGradGradGradGradGradGradGradGradGradGradGradGradGradGradGradGradGrad
 Berny optimization.
 Using GEDIIS/GDIIS optimizer.
 FormGI is forming the generalized inverse of G from B-inverse, IUseBI=4.
 GSVD:  received Info=                   1 from GESDD.
 Internal  Forces:  Max     0.004701066 RMS     0.001382065
 Search for a local minimum.
 Step number   4 out of a maximum of   66
 All quantities printed in internal units (Hartrees-Bohrs-Radians)
 Mixed Optimization -- RFO/linear search
 Update second derivatives using D2CorX and points    1    2    3    4
 DE= -7.46D-04 DEPred=-1.02D-03 R= 7.32D-01
 TightC=F SS=  1.41D+00  RLast= 1.88D-01 DXNew= 8.4853D-01 5.6455D-01
 Trust test= 7.32D-01 RLast= 1.88D-01 DXMaxT set to 5.65D-01
 ITU=  1  1  0  0
 Use linear search instead of GDIIS.
     Eigenvalues ---    0.00335   0.00494   0.01189   0.01490   0.03666
     Eigenvalues ---    0.04783   0.05010   0.05458   0.05870   0.06212
     Eigenvalues ---    0.08568   0.11358   0.11954   0.12396   0.13678
     Eigenvalues ---    0.14088   0.16424   0.17453   0.21821   0.22058
     Eigenvalues ---    0.23791   0.29594   0.29963   0.33057   0.33518
     Eigenvalues ---    0.33746   0.33951   0.34080   0.39720   0.46494
     Eigenvalues ---    0.52537   0.53822   0.66450
 RFO step:  Lambda=-9.13586577D-04 EMin= 3.34618001D-03
 Quartic linear search produced a step of -0.01788.
 Iteration  1 RMS(Cart)=  0.05719211 RMS(Int)=  0.00165105
 Iteration  2 RMS(Cart)=  0.00233272 RMS(Int)=  0.00003939
 Iteration  3 RMS(Cart)=  0.00000285 RMS(Int)=  0.00003937
 Iteration  4 RMS(Cart)=  0.00000000 RMS(Int)=  0.00003937
 Variable       Old X    -DE/DX   Delta X   Delta X   Delta X     New X
                                 (Linear)    (Quad)   (Total)
    R1        2.68441  -0.00248  -0.00028  -0.00185  -0.00213   2.68228
    R2        2.86779  -0.00155  -0.00013  -0.00181  -0.00195   2.86584
    R3        2.12833  -0.00102   0.00017  -0.00787  -0.00770   2.12062
    R4        2.12587  -0.00097   0.00018  -0.00722  -0.00704   2.11883
    R5        1.82177  -0.00042  -0.00005   0.00033   0.00028   1.82205
    R6        2.86761  -0.00144  -0.00020   0.00063   0.00043   2.86804
    R7        2.11953  -0.00069   0.00019  -0.00663  -0.00643   2.11310
    R8        2.12320  -0.00059   0.00018  -0.00662  -0.00644   2.11677
    R9        2.66316   0.00066  -0.00015   0.00377   0.00362   2.66678
   R10        2.13048  -0.00079   0.00022  -0.00836  -0.00815   2.12234
   R11        2.12675  -0.00067   0.00014  -0.00551  -0.00537   2.12138
   R12        1.82288   0.00140  -0.00004   0.00408   0.00403   1.82691
    A1        1.90400  -0.00345  -0.00017  -0.01411  -0.01428   1.88972
    A2        1.90298   0.00113  -0.00001   0.00495   0.00499   1.90796
    A3        1.92296   0.00047  -0.00005  -0.00374  -0.00381   1.91915
    A4        1.90984   0.00116   0.00006   0.00859   0.00865   1.91848
    A5        1.92503   0.00117   0.00004   0.00367   0.00365   1.92868
    A6        1.89886  -0.00043   0.00012   0.00085   0.00093   1.89979
    A7        1.87046  -0.00183  -0.00037  -0.00662  -0.00699   1.86346
    A8        2.00013  -0.00470  -0.00010  -0.01976  -0.01988   1.98025
    A9        1.91166   0.00121  -0.00006   0.00018   0.00001   1.91167
   A10        1.86548   0.00153   0.00010   0.00916   0.00934   1.87482
   A11        1.90720   0.00123  -0.00012   0.00043   0.00020   1.90740
   A12        1.88280   0.00167   0.00007   0.01213   0.01227   1.89507
   A13        1.89348  -0.00081   0.00013  -0.00104  -0.00093   1.89255
   A14        1.99985  -0.00458  -0.00010  -0.01890  -0.01902   1.98083
   A15        1.90970   0.00124   0.00007   0.00767   0.00780   1.91750
   A16        1.92006   0.00077  -0.00002  -0.00180  -0.00187   1.91819
   A17        1.80963   0.00183   0.00010   0.01319   0.01334   1.82297
   A18        1.91537   0.00144  -0.00013   0.00377   0.00354   1.91890
   A19        1.90483  -0.00055   0.00010  -0.00267  -0.00259   1.90224
   A20        1.89034  -0.00167   0.00012  -0.01108  -0.01096   1.87937
    D1       -3.03476   0.00001   0.00021  -0.00622  -0.00604  -3.04080
    D2        1.16361  -0.00002   0.00024  -0.01122  -0.01098   1.15263
    D3       -0.91916  -0.00046   0.00013  -0.01305  -0.01289  -0.93204
    D4        1.10113  -0.00053  -0.00093   0.03126   0.03037   1.13150
    D5       -1.04915   0.00031  -0.00065   0.04485   0.04419  -1.00495
    D6       -3.09714  -0.00022  -0.00083   0.04089   0.04006  -3.05708
    D7       -3.10149  -0.00054  -0.00101   0.03394   0.03294  -3.06855
    D8        1.03142   0.00030  -0.00072   0.04753   0.04677   1.07819
    D9       -1.01658  -0.00022  -0.00090   0.04357   0.04264  -0.97394
   D10       -1.01321   0.00037  -0.00079   0.04263   0.04187  -0.97133
   D11        3.11970   0.00121  -0.00051   0.05622   0.05570  -3.10778
   D12        1.07171   0.00069  -0.00068   0.05226   0.05157   1.12328
   D13       -1.24250   0.00038   0.00092  -0.10121  -0.10036  -1.34286
   D14        3.01752   0.00005   0.00081  -0.11143  -0.11064   2.90688
   D15        0.92503  -0.00052   0.00066  -0.11182  -0.11117   0.81386
   D16        0.91018  -0.00045   0.00067  -0.11487  -0.11422   0.79596
   D17       -1.11299  -0.00078   0.00056  -0.12508  -0.12450  -1.23749
   D18        3.07770  -0.00135   0.00041  -0.12547  -0.12502   2.95268
   D19        2.96548   0.00020   0.00080  -0.10901  -0.10822   2.85726
   D20        0.94231  -0.00013   0.00069  -0.11923  -0.11851   0.82381
   D21       -1.15018  -0.00071   0.00054  -0.11962  -0.11903  -1.26921
   D22        0.86130  -0.00062  -0.00052  -0.00962  -0.01011   0.85120
   D23        2.94150  -0.00034  -0.00043  -0.00164  -0.00212   2.93939
   D24       -1.30872   0.00063  -0.00032   0.00387   0.00358  -1.30514
         Item               Value     Threshold  Converged?
 Maximum Force            0.004701     0.000450     NO 
 RMS     Force            0.001382     0.000300     NO 
 Maximum Displacement     0.188447     0.001800     NO 
 RMS     Displacement     0.057163     0.001200     NO 
 Predicted change in Energy=-5.278042D-04
 GradGradGradGradGradGradGradGradGradGradGradGradGradGradGradGradGradGrad

                          Input orientation:                          
 ---------------------------------------------------------------------
 Center     Atomic      Atomic             Coordinates (Angstroms)
 Number     Number       Type             X           Y           Z
 ---------------------------------------------------------------------
      1          6           0        0.998534    2.053946    1.248241
      2          8           0        1.563736    3.212772    0.654630
      3          6           0        1.994403    0.917913    1.115719
      4          6           0        3.278251    1.146187    1.892278
      5          8           0        4.160854    2.052080    1.266292
      6          1           0        0.045950    1.791366    0.716323
      7          1           0        0.768279    2.250480    2.327839
      8          1           0        0.956177    3.940316    0.831285
      9          1           0        2.238995    0.759215    0.036197
     10          1           0        1.500565   -0.008276    1.506897
     11          1           0        3.860211    0.187868    1.957709
     12          1           0        3.039170    1.499996    2.930479
     13          1           0        3.651077    2.835537    1.019410
 ---------------------------------------------------------------------
                    Distance matrix (angstroms):
                    1          2          3          4          5
     1  C    0.000000
     2  O    1.419403   0.000000
     3  C    1.516538   2.380011   0.000000
     4  C    2.536911   2.956706   1.517702   0.000000
     5  O    3.162372   2.909701   2.450003   1.411201   0.000000
     6  H    1.122186   2.080354   2.172304   3.499557   4.159672
     7  H    1.121237   2.087675   2.179070   2.776532   3.560310
     8  H    1.932365   0.964186   3.208385   3.784823   3.744946
     9  H    2.164284   2.618850   1.118203   2.162138   2.622628
    10  H    2.138153   3.332492   1.120144   2.154407   3.373439
    11  H    3.489239   4.015204   2.173282   1.123092   2.010902
    12  H    2.702033   3.207803   2.173411   1.122587   2.081464
    13  H    2.774749   2.152293   2.535967   1.937731   0.966762
                    6          7          8          9         10
     6  H    0.000000
     7  H    1.824699   0.000000
     8  H    2.336603   2.265066   0.000000
     9  H    2.517410   3.104593   3.520965   0.000000
    10  H    2.445327   2.512402   4.042794   1.815842   0.000000
    11  H    4.319819   3.735158   4.876793   2.578175   2.410319
    12  H    3.734535   2.466444   3.834141   3.092881   2.582397
    13  H    3.765514   3.219441   2.918632   2.696628   3.598558
                   11         12         13
    11  H    0.000000
    12  H    1.828134   0.000000
    13  H    2.816788   2.410453   0.000000
 Stoichiometry    C3H8O2
 Framework group  C1[X(C3H8O2)]
 Deg. of freedom    33
 Full point group                 C1      NOp   1
 Largest Abelian subgroup         C1      NOp   1
 Largest concise Abelian subgroup C1      NOp   1
                         Standard orientation:                         
 ---------------------------------------------------------------------
 Center     Atomic      Atomic             Coordinates (Angstroms)
 Number     Number       Type             X           Y           Z
 ---------------------------------------------------------------------
      1          6           0        1.283624    0.463702    0.190417
      2          8           0        1.355587   -0.923187   -0.102951
      3          6           0       -0.021481    1.000176   -0.365265
      4          6           0       -1.250201    0.413112    0.304825
      5          8           0       -1.553905   -0.896264   -0.125044
      6          1           0        2.149540    0.990461   -0.291262
      7          1           0        1.333657    0.623489    1.299082
      8          1           0        2.144560   -1.260041    0.337170
      9          1           0       -0.069670    0.801075   -1.464545
     10          1           0       -0.023341    2.108892   -0.205677
     11          1           0       -2.158097    1.015286    0.031976
     12          1           0       -1.122215    0.430040    1.419964
     13          1           0       -0.739539   -1.415528   -0.082608
 ---------------------------------------------------------------------
 Rotational constants (GHZ):      7.8964813      3.7759629      2.8318544
 Standard basis: VSTO-6G (5D, 7F)
 There are    28 symmetry adapted cartesian basis functions of A   symmetry.
 There are    28 symmetry adapted basis functions of A   symmetry.
    28 basis functions,   168 primitive gaussians,    28 cartesian basis functions
    16 alpha electrons       16 beta electrons
       nuclear repulsion energy       140.2079066796 Hartrees.
 Integral buffers will be    131072 words long.
 Regular integral format.
 Two-electron integral symmetry is turned off.
 Do NDO integrals.
 One-electron integrals computed using PRISM.
 NBasis=    28 RedAO= F EigKep=  0.00D+00  NBF=    28
 NBsUse=    28 1.00D-04 EigRej=  0.00D+00 NBFU=    28
 Initial guess from the checkpoint file:  "1-3-propanediol-opt.chk"
 B after Tr=    -0.000000   -0.000000    0.000000
         Rot=    0.999982    0.002511   -0.002748    0.004785 Ang=   0.69 deg.
 Overlap will be assumed to be unity.
 Keep J ints in memory in canonical form, NReq=891302.
 Requested convergence on RMS density matrix=1.00D-08 within 128 cycles.
 Requested convergence on MAX density matrix=1.00D-06.
 Requested convergence on             energy=1.00D-06.
 No special actions if energy rises.
 SCF Done:  E(RAM1) = -0.186415844113     A.U. after   12 cycles
            NFock= 11  Conv=0.16D-08     -V/T= 0.9911
 Calling FoFJK, ICntrl=      2127 FMM=F ISym2X=0 I1Cent= 0 IOpClX= 0 NMat=1 NMatS=1 NMatT=0.
 ***** Axes restored to original set *****
 -------------------------------------------------------------------
 Center     Atomic                   Forces (Hartrees/Bohr)
 Number     Number              X              Y              Z
 -------------------------------------------------------------------
      1        6           0.000517187    0.000550204    0.000098006
      2        8           0.000315281    0.000533234   -0.000080614
      3        6          -0.000061689   -0.000861701    0.000228474
      4        6          -0.000639947   -0.000036882    0.000419846
      5        8          -0.000473737   -0.000001418   -0.000586885
      6        1          -0.001211344   -0.000244599   -0.000457392
      7        1          -0.000189234    0.000511559    0.001602340
      8        1           0.000226439   -0.000158035   -0.000371635
      9        1           0.000607332    0.000412333   -0.001761861
     10        1          -0.000312325   -0.001245486   -0.000330443
     11        1           0.000885250   -0.000711455    0.000260112
     12        1           0.000187071    0.001150527    0.000850967
     13        1           0.000149715    0.000101720    0.000129084
 -------------------------------------------------------------------
 Cartesian Forces:  Max     0.001761861 RMS     0.000653023

 GradGradGradGradGradGradGradGradGradGradGradGradGradGradGradGradGradGrad
 Berny optimization.
 Using GEDIIS/GDIIS optimizer.
 FormGI is forming the generalized inverse of G from B-inverse, IUseBI=4.
 Internal  Forces:  Max     0.001990501 RMS     0.000679715
 Search for a local minimum.
 Step number   5 out of a maximum of   66
 All quantities printed in internal units (Hartrees-Bohrs-Radians)
 Mixed Optimization -- En-DIIS/RFO-DIIS
 Update second derivatives using D2CorX and points    1    2    3    4    5
 DE= -6.12D-04 DEPred=-5.28D-04 R= 1.16D+00
 TightC=F SS=  1.41D+00  RLast= 3.72D-01 DXNew= 9.4945D-01 1.1160D+00
 Trust test= 1.16D+00 RLast= 3.72D-01 DXMaxT set to 9.49D-01
 ITU=  1  1  1  0  0
 Use linear search instead of GDIIS.
     Eigenvalues ---    0.00270   0.00413   0.01135   0.01455   0.03773
     Eigenvalues ---    0.04832   0.05067   0.05483   0.05840   0.06201
     Eigenvalues ---    0.08396   0.11326   0.11871   0.12259   0.13597
     Eigenvalues ---    0.14048   0.16434   0.18081   0.21718   0.22159
     Eigenvalues ---    0.24808   0.29578   0.33031   0.33266   0.33738
     Eigenvalues ---    0.33829   0.33964   0.36214   0.39277   0.48585
     Eigenvalues ---    0.52953   0.54850   0.62562
 RFO step:  Lambda=-2.59554768D-04 EMin= 2.70020759D-03
 Quartic linear search produced a step of  0.44110.
 Iteration  1 RMS(Cart)=  0.04053405 RMS(Int)=  0.00088581
 Iteration  2 RMS(Cart)=  0.00126006 RMS(Int)=  0.00006305
 Iteration  3 RMS(Cart)=  0.00000085 RMS(Int)=  0.00006305
 Variable       Old X    -DE/DX   Delta X   Delta X   Delta X     New X
                                 (Linear)    (Quad)   (Total)
    R1        2.68228   0.00071  -0.00094   0.00549   0.00455   2.68683
    R2        2.86584   0.00119  -0.00086   0.00771   0.00685   2.87269
    R3        2.12062   0.00130  -0.00340   0.00561   0.00222   2.12284
    R4        2.11883   0.00167  -0.00311   0.00684   0.00373   2.12256
    R5        1.82205  -0.00033   0.00012  -0.00057  -0.00045   1.82160
    R6        2.86804   0.00072   0.00019   0.00571   0.00590   2.87394
    R7        2.11310   0.00178  -0.00284   0.00719   0.00435   2.11745
    R8        2.11677   0.00105  -0.00284   0.00415   0.00132   2.11808
    R9        2.66678   0.00006   0.00160   0.00214   0.00374   2.67052
   R10        2.12234   0.00108  -0.00359   0.00428   0.00068   2.12302
   R11        2.12138   0.00111  -0.00237   0.00474   0.00238   2.12376
   R12        1.82691  -0.00003   0.00178  -0.00031   0.00147   1.82838
    A1        1.88972  -0.00104  -0.00630  -0.00396  -0.01025   1.87947
    A2        1.90796   0.00026   0.00220  -0.00041   0.00182   1.90978
    A3        1.91915   0.00025  -0.00168   0.00096  -0.00072   1.91843
    A4        1.91848   0.00029   0.00381   0.00069   0.00449   1.92298
    A5        1.92868   0.00038   0.00161   0.00293   0.00449   1.93317
    A6        1.89979  -0.00014   0.00041  -0.00022   0.00015   1.89994
    A7        1.86346   0.00040  -0.00309   0.00853   0.00544   1.86890
    A8        1.98025  -0.00199  -0.00877  -0.01139  -0.02022   1.96003
    A9        1.91167   0.00043   0.00001  -0.00355  -0.00375   1.90792
   A10        1.87482   0.00079   0.00412   0.00914   0.01339   1.88822
   A11        1.90740   0.00046   0.00009  -0.00195  -0.00209   1.90531
   A12        1.89507   0.00069   0.00541   0.00791   0.01344   1.90851
   A13        1.89255  -0.00033  -0.00041   0.00058   0.00015   1.89270
   A14        1.98083  -0.00132  -0.00839  -0.00725  -0.01564   1.96519
   A15        1.91750   0.00069   0.00344   0.00737   0.01080   1.92830
   A16        1.91819   0.00078  -0.00083   0.00789   0.00694   1.92514
   A17        1.82297   0.00011   0.00589  -0.00582   0.00015   1.82312
   A18        1.91890  -0.00009   0.00156  -0.00679  -0.00528   1.91362
   A19        1.90224  -0.00017  -0.00114   0.00444   0.00319   1.90544
   A20        1.87937   0.00021  -0.00483   0.00274  -0.00210   1.87728
    D1       -3.04080  -0.00016  -0.00267  -0.02083  -0.02351  -3.06431
    D2        1.15263  -0.00005  -0.00484  -0.01907  -0.02392   1.12871
    D3       -0.93204  -0.00020  -0.00568  -0.01913  -0.02478  -0.95683
    D4        1.13150  -0.00009   0.01339   0.02158   0.03504   1.16654
    D5       -1.00495   0.00037   0.01949   0.03465   0.05410  -0.95085
    D6       -3.05708   0.00009   0.01767   0.03072   0.04838  -3.00870
    D7       -3.06855  -0.00023   0.01453   0.01909   0.03367  -3.03488
    D8        1.07819   0.00023   0.02063   0.03216   0.05273   1.13092
    D9       -0.97394  -0.00005   0.01881   0.02824   0.04701  -0.92693
   D10       -0.97133   0.00003   0.01847   0.02112   0.03967  -0.93166
   D11       -3.10778   0.00049   0.02457   0.03419   0.05873  -3.04905
   D12        1.12328   0.00021   0.02275   0.03027   0.05301   1.17629
   D13       -1.34286   0.00014  -0.04427  -0.02773  -0.07208  -1.41494
   D14        2.90688   0.00037  -0.04881  -0.02084  -0.06965   2.83723
   D15        0.81386  -0.00033  -0.04904  -0.03585  -0.08497   0.72890
   D16        0.79596  -0.00034  -0.05038  -0.04163  -0.09202   0.70394
   D17       -1.23749  -0.00011  -0.05492  -0.03474  -0.08958  -1.32707
[...]
     Eigenvalues ---    0.34608   0.35390   0.36848   0.42001   0.51469
     Eigenvalues ---    0.53280   0.55424   0.63709
 En-DIIS/RFO-DIIS IScMMF=        0 using points:    12   11   10    9    8
 RFO step:  Lambda=-5.97140057D-09.
 DidBck=F Rises=F RFO-DIIS coefs:    0.91433    0.15767   -0.12233    0.02797    0.02236
 Iteration  1 RMS(Cart)=  0.00023245 RMS(Int)=  0.00000003
 Iteration  2 RMS(Cart)=  0.00000004 RMS(Int)=  0.00000001
 Variable       Old X    -DE/DX   Delta X   Delta X   Delta X     New X
                                 (Linear)    (Quad)   (Total)
    R1        2.68396  -0.00001  -0.00000  -0.00001  -0.00002   2.68394
    R2        2.86961  -0.00001  -0.00002  -0.00000  -0.00002   2.86959
    R3        2.12299   0.00001   0.00000   0.00003   0.00003   2.12301
    R4        2.12339  -0.00000  -0.00001  -0.00000  -0.00001   2.12338
    R5        1.82108  -0.00001   0.00000  -0.00002  -0.00001   1.82106
    R6        2.87107   0.00002   0.00004  -0.00001   0.00004   2.87111
    R7        2.11908   0.00002  -0.00004   0.00008   0.00004   2.11913
    R8        2.11657  -0.00001   0.00002  -0.00002  -0.00001   2.11656
    R9        2.66904   0.00003   0.00001   0.00004   0.00005   2.66910
   R10        2.12379   0.00002  -0.00000   0.00004   0.00004   2.12383
   R11        2.12399   0.00000   0.00000  -0.00001  -0.00000   2.12399
   R12        1.82729  -0.00001   0.00001  -0.00003  -0.00002   1.82727
    A1        1.87897  -0.00001  -0.00002  -0.00002  -0.00003   1.87893
    A2        1.91344   0.00000  -0.00001   0.00004   0.00003   1.91347
    A3        1.91512   0.00000   0.00002  -0.00003  -0.00001   1.91511
    A4        1.92299   0.00000  -0.00000   0.00002   0.00001   1.92301
    A5        1.93314   0.00000  -0.00001  -0.00000  -0.00002   1.93312
    A6        1.90014  -0.00000   0.00002  -0.00000   0.00002   1.90016
    A7        1.86556  -0.00001  -0.00001  -0.00002  -0.00003   1.86554
    A8        1.96288   0.00001  -0.00001   0.00004   0.00003   1.96291
    A9        1.90706  -0.00001   0.00001  -0.00006  -0.00005   1.90700
   A10        1.88776  -0.00000  -0.00003   0.00002  -0.00001   1.88775
   A11        1.90308   0.00000   0.00004  -0.00003   0.00001   1.90309
   A12        1.90850   0.00000  -0.00001   0.00006   0.00005   1.90855
   A13        1.89338  -0.00000  -0.00000  -0.00004  -0.00004   1.89334
   A14        1.96523   0.00001   0.00004   0.00002   0.00006   1.96529
   A15        1.92733  -0.00000  -0.00001   0.00002   0.00000   1.92733
   A16        1.92502   0.00000  -0.00001   0.00002   0.00002   1.92503
   A17        1.82275  -0.00000  -0.00000   0.00003   0.00003   1.82278
   A18        1.91529  -0.00001  -0.00002  -0.00008  -0.00010   1.91519
   A19        1.90517  -0.00000   0.00000  -0.00000  -0.00000   1.90517
   A20        1.87650   0.00001  -0.00000   0.00002   0.00002   1.87652
    D1       -3.12976   0.00000   0.00034  -0.00018   0.00016  -3.12960
    D2        1.06145   0.00000   0.00036  -0.00021   0.00015   1.06160
    D3       -1.02456  -0.00000   0.00033  -0.00021   0.00012  -1.02444
    D4        1.16942  -0.00000  -0.00014  -0.00019  -0.00033   1.16909
    D5       -0.94642  -0.00000  -0.00018  -0.00015  -0.00033  -0.94676
    D6       -3.00434   0.00000  -0.00017  -0.00008  -0.00025  -3.00459
    D7       -3.02786  -0.00000  -0.00016  -0.00015  -0.00031  -3.02816
    D8        1.13949  -0.00000  -0.00021  -0.00010  -0.00031   1.13918
    D9       -0.91843   0.00000  -0.00019  -0.00004  -0.00023  -0.91866
   D10       -0.92441  -0.00000  -0.00014  -0.00014  -0.00029  -0.92470
   D11       -3.04025  -0.00000  -0.00019  -0.00009  -0.00029  -3.04054
   D12        1.18501   0.00001  -0.00018  -0.00003  -0.00021   1.18481
   D13       -1.40955   0.00000  -0.00011   0.00000  -0.00011  -1.40966
   D14        2.84368  -0.00000  -0.00012  -0.00005  -0.00018   2.84351
   D15        0.73640   0.00000  -0.00011  -0.00007  -0.00019   0.73621
   D16        0.70857   0.00000  -0.00008  -0.00007  -0.00014   0.70842
   D17       -1.32138  -0.00000  -0.00009  -0.00012  -0.00022  -1.32160
   D18        2.85452  -0.00000  -0.00008  -0.00014  -0.00022   2.85429
   D19        2.77616   0.00000  -0.00006  -0.00009  -0.00015   2.77601
   D20        0.74621  -0.00000  -0.00008  -0.00015  -0.00023   0.74598
   D21       -1.36108  -0.00000  -0.00007  -0.00016  -0.00023  -1.36131
   D22        0.89319  -0.00000  -0.00027  -0.00004  -0.00032   0.89287
   D23        2.98474   0.00000  -0.00027   0.00000  -0.00027   2.98448
   D24       -1.25819  -0.00001  -0.00028  -0.00003  -0.00030  -1.25850
         Item               Value     Threshold  Converged?
 Maximum Force            0.000030     0.000450     YES
 RMS     Force            0.000008     0.000300     YES
 Maximum Displacement     0.000803     0.001800     YES
 RMS     Displacement     0.000232     0.001200     YES
 Predicted change in Energy=-7.808872D-09
 Optimization completed.
    -- Stationary point found.
                           ----------------------------
                           !   Optimized Parameters   !
                           ! (Angstroms and Degrees)  !
 --------------------------                            --------------------------
 ! Name  Definition              Value          Derivative Info.                !
 --------------------------------------------------------------------------------
 ! R1    R(1,2)                  1.4203         -DE/DX =    0.0                 !
 ! R2    R(1,3)                  1.5185         -DE/DX =    0.0                 !
 ! R3    R(1,6)                  1.1234         -DE/DX =    0.0                 !
 ! R4    R(1,7)                  1.1236         -DE/DX =    0.0                 !
 ! R5    R(2,8)                  0.9637         -DE/DX =    0.0                 !
 ! R6    R(3,4)                  1.5193         -DE/DX =    0.0                 !
 ! R7    R(3,9)                  1.1214         -DE/DX =    0.0                 !
 ! R8    R(3,10)                 1.12           -DE/DX =    0.0                 !
 ! R9    R(4,5)                  1.4124         -DE/DX =    0.0                 !
 ! R10   R(4,11)                 1.1239         -DE/DX =    0.0                 !
 ! R11   R(4,12)                 1.124          -DE/DX =    0.0                 !
 ! R12   R(5,13)                 0.967          -DE/DX =    0.0                 !
 ! A1    A(2,1,3)              107.6568         -DE/DX =    0.0                 !
 ! A2    A(2,1,6)              109.6322         -DE/DX =    0.0                 !
 ! A3    A(2,1,7)              109.7282         -DE/DX =    0.0                 !
 ! A4    A(3,1,6)              110.1793         -DE/DX =    0.0                 !
 ! A5    A(3,1,7)              110.7608         -DE/DX =    0.0                 !
 ! A6    A(6,1,7)              108.8699         -DE/DX =    0.0                 !
 ! A7    A(1,2,8)              106.8889         -DE/DX =    0.0                 !
 ! A8    A(1,3,4)              112.4646         -DE/DX =    0.0                 !
 ! A9    A(1,3,9)              109.2664         -DE/DX =    0.0                 !
 ! A10   A(1,3,10)             108.1605         -DE/DX =    0.0                 !
 ! A11   A(4,3,9)              109.0383         -DE/DX =    0.0                 !
 ! A12   A(4,3,10)             109.3491         -DE/DX =    0.0                 !
 ! A13   A(9,3,10)             108.4826         -DE/DX =    0.0                 !
 ! A14   A(3,4,5)              112.5996         -DE/DX =    0.0                 !
 ! A15   A(3,4,11)             110.4279         -DE/DX =    0.0                 !
 ! A16   A(3,4,12)             110.2952         -DE/DX =    0.0                 !
 ! A17   A(5,4,11)             104.436          -DE/DX =    0.0                 !
 ! A18   A(5,4,12)             109.7382         -DE/DX =    0.0                 !
 ! A19   A(11,4,12)            109.1583         -DE/DX =    0.0                 !
 ! A20   A(4,5,13)             107.5157         -DE/DX =    0.0                 !
 ! D1    D(3,1,2,8)           -179.3223         -DE/DX =    0.0                 !
 ! D2    D(6,1,2,8)             60.8164         -DE/DX =    0.0                 !
 ! D3    D(7,1,2,8)            -58.7028         -DE/DX =    0.0                 !
 ! D4    D(2,1,3,4)             67.0028         -DE/DX =    0.0                 !
 ! D5    D(2,1,3,9)            -54.2261         -DE/DX =    0.0                 !
 ! D6    D(2,1,3,10)          -172.1361         -DE/DX =    0.0                 !
 ! D7    D(6,1,3,4)           -173.4834         -DE/DX =    0.0                 !
 ! D8    D(6,1,3,9)             65.2878         -DE/DX =    0.0                 !
 ! D9    D(6,1,3,10)           -52.6222         -DE/DX =    0.0                 !
 ! D10   D(7,1,3,4)            -52.9648         -DE/DX =    0.0                 !
 ! D11   D(7,1,3,9)           -174.1937         -DE/DX =    0.0                 !
 ! D12   D(7,1,3,10)            67.8963         -DE/DX =    0.0                 !
 ! D13   D(1,3,4,5)            -80.7613         -DE/DX =    0.0                 !
 ! D14   D(1,3,4,11)           162.9311         -DE/DX =    0.0                 !
 ! D15   D(1,3,4,12)            42.1925         -DE/DX =    0.0                 !
 ! D16   D(9,3,4,5)             40.5978         -DE/DX =    0.0                 !
 ! D17   D(9,3,4,11)           -75.7097         -DE/DX =    0.0                 !
 ! D18   D(9,3,4,12)           163.5517         -DE/DX =    0.0                 !
 ! D19   D(10,3,4,5)           159.0622         -DE/DX =    0.0                 !
 ! D20   D(10,3,4,11)           42.7547         -DE/DX =    0.0                 !
 ! D21   D(10,3,4,12)          -77.9839         -DE/DX =    0.0                 !
 ! D22   D(3,4,5,13)            51.1758         -DE/DX =    0.0                 !
 ! D23   D(11,4,5,13)          171.0131         -DE/DX =    0.0                 !
 ! D24   D(12,4,5,13)          -72.0892         -DE/DX =    0.0                 !
 --------------------------------------------------------------------------------
 GradGradGradGradGradGradGradGradGradGradGradGradGradGradGradGradGradGrad

                          Input orientation:                          
 ---------------------------------------------------------------------
 Center     Atomic      Atomic             Coordinates (Angstroms)
 Number     Number       Type             X           Y           Z
 ---------------------------------------------------------------------
      1          6           0        0.998970    2.051977    1.269158
      2          8           0        1.558105    3.211670    0.669404
      3          6           0        1.997288    0.920027    1.101847
      4          6           0        3.269313    1.144853    1.901657
      5          8           0        4.171098    2.017318    1.253233
      6          1           0        0.031106    1.793414    0.760736
      7          1           0        0.797079    2.247436    2.357102
      8          1           0        0.921269    3.924595    0.791234
      9          1           0        2.260905    0.816524    0.016828
     10          1           0        1.508781   -0.029207    1.440676
     11          1           0        3.839612    0.182552    2.010280
     12          1           0        3.022309    1.544516    2.922718
     13          1           0        3.680366    2.813726    1.008427
 ---------------------------------------------------------------------
                    Distance matrix (angstroms):
                    1          2          3          4          5
     1  C    0.000000
     2  O    1.420289   0.000000
     3  C    1.518533   2.373081   0.000000
     4  C    2.525349   2.952696   1.519306   0.000000
     5  O    3.172357   2.931734   2.439758   1.412397   0.000000
     6  H    1.123436   2.086029   2.178309   3.494040   4.175191
     7  H    1.123649   2.087398   2.185906   2.745007   3.557456
     8  H    1.934204   0.963673   3.206513   3.804381   3.796385
     9  H    2.164984   2.580021   1.121371   2.162698   2.572827
    10  H    2.149571   3.331752   1.120039   2.165732   3.363233
    11  H    3.480411   4.022285   2.182494   1.123860   2.012304
    12  H    2.661894   3.162391   2.180877   1.123970   2.080971
    13  H    2.799665   2.185701   2.535266   1.936998   0.966961
                    6          7          8          9         10
     6  H    0.000000
     7  H    1.827904   0.000000
     8  H    2.309816   2.297875   0.000000
     9  H    2.545529   3.109209   3.471950   0.000000
    10  H    2.442906   2.555281   4.049629   1.818871   0.000000
    11  H    4.319833   3.693378   4.899560   2.620703   2.408748
    12  H    3.699109   2.401180   3.823921   3.090939   2.638905
    13  H    3.797299   3.233103   2.982251   2.643284   3.603455
                   11         12         13
    11  H    0.000000
    12  H    1.831795   0.000000
    13  H    2.819954   2.389235   0.000000
 Stoichiometry    C3H8O2
 Framework group  C1[X(C3H8O2)]
 Deg. of freedom    33
 Full point group                 C1      NOp   1
 Largest Abelian subgroup         C1      NOp   1
 Largest concise Abelian subgroup C1      NOp   1
                         Standard orientation:                         
 ---------------------------------------------------------------------
 Center     Atomic      Atomic             Coordinates (Angstroms)
 Number     Number       Type             X           Y           Z
 ---------------------------------------------------------------------
      1          6           0        1.282245    0.465966    0.196298
      2          8           0        1.359794   -0.922165   -0.094050
      3          6           0       -0.020921    0.985914   -0.384523
      4          6           0       -1.239509    0.415591    0.321215
      5          8           0       -1.571415   -0.880656   -0.130943
      6          1           0        2.154365    0.998522   -0.270498
      7          1           0        1.313395    0.623165    1.308461
      8          1           0        2.184370   -1.242504    0.288210
      9          1           0       -0.072013    0.722280   -1.473266
     10          1           0       -0.025111    2.101851   -0.288834
     11          1           0       -2.150006    1.033623    0.092971
     12          1           0       -1.074070    0.399084    1.432819
     13          1           0       -0.768848   -1.418284   -0.087857
 ---------------------------------------------------------------------
 Rotational constants (GHZ):      7.9583372      3.7437422      2.8347324

 **********************************************************************

            Population analysis using the SCF density.

 **********************************************************************

 Orbital symmetries:
       Occupied  (A) (A) (A) (A) (A) (A) (A) (A) (A) (A) (A) (A)
                 (A) (A) (A) (A)
       Virtual   (A) (A) (A) (A) (A) (A) (A) (A) (A) (A) (A) (A)
 The electronic state is 1-A.
 Alpha  occ. eigenvalues --   -1.43867  -1.36812  -1.19235  -0.96757  -0.81570
 Alpha  occ. eigenvalues --   -0.69247  -0.66137  -0.58042  -0.57564  -0.57114
 Alpha  occ. eigenvalues --   -0.51837  -0.48523  -0.46976  -0.43373  -0.41089
 Alpha  occ. eigenvalues --   -0.39558
 Alpha virt. eigenvalues --    0.11573   0.13073   0.13614   0.14139   0.15283
 Alpha virt. eigenvalues --    0.15670   0.15959   0.16841   0.17644   0.18065
 Alpha virt. eigenvalues --    0.21917   0.24852
          Condensed to atoms (all electrons):
               1          2          3          4          5          6
     1  C    4.021844   0.000000   0.000000   0.000000   0.000000   0.000000
     2  O    0.000000   6.341171   0.000000   0.000000   0.000000   0.000000
     3  C    0.000000   0.000000   4.205077   0.000000   0.000000   0.000000
     4  C    0.000000   0.000000   0.000000   4.010289   0.000000   0.000000
     5  O    0.000000   0.000000   0.000000   0.000000   6.334093   0.000000
     6  H    0.000000   0.000000   0.000000   0.000000   0.000000   0.934963
     7  H    0.000000   0.000000   0.000000   0.000000   0.000000   0.000000
     8  H    0.000000   0.000000   0.000000   0.000000   0.000000   0.000000
     9  H    0.000000   0.000000   0.000000   0.000000   0.000000   0.000000
    10  H    0.000000   0.000000   0.000000   0.000000   0.000000   0.000000
    11  H    0.000000   0.000000   0.000000   0.000000   0.000000   0.000000
    12  H    0.000000   0.000000   0.000000   0.000000   0.000000   0.000000
    13  H    0.000000   0.000000   0.000000   0.000000   0.000000   0.000000
               7          8          9         10         11         12
     1  C    0.000000   0.000000   0.000000   0.000000   0.000000   0.000000
     2  O    0.000000   0.000000   0.000000   0.000000   0.000000   0.000000
     3  C    0.000000   0.000000   0.000000   0.000000   0.000000   0.000000
     4  C    0.000000   0.000000   0.000000   0.000000   0.000000   0.000000
     5  O    0.000000   0.000000   0.000000   0.000000   0.000000   0.000000
     6  H    0.000000   0.000000   0.000000   0.000000   0.000000   0.000000
     7  H    0.937116   0.000000   0.000000   0.000000   0.000000   0.000000
     8  H    0.000000   0.795453   0.000000   0.000000   0.000000   0.000000
     9  H    0.000000   0.000000   0.888063   0.000000   0.000000   0.000000
    10  H    0.000000   0.000000   0.000000   0.906476   0.000000   0.000000
    11  H    0.000000   0.000000   0.000000   0.000000   0.901136   0.000000
    12  H    0.000000   0.000000   0.000000   0.000000   0.000000   0.942022
    13  H    0.000000   0.000000   0.000000   0.000000   0.000000   0.000000
              13
     1  C    0.000000
     2  O    0.000000
     3  C    0.000000
     4  C    0.000000
     5  O    0.000000
     6  H    0.000000
     7  H    0.000000
     8  H    0.000000
     9  H    0.000000
    10  H    0.000000
    11  H    0.000000
    12  H    0.000000
    13  H    0.782297
 Mulliken charges:
               1
     1  C   -0.021844
     2  O   -0.341171
     3  C   -0.205077
     4  C   -0.010289
     5  O   -0.334093
     6  H    0.065037
     7  H    0.062884
     8  H    0.204547
     9  H    0.111937
    10  H    0.093524
    11  H    0.098864
    12  H    0.057978
    13  H    0.217703
 Sum of Mulliken charges =  -0.00000
 Mulliken charges with hydrogens summed into heavy atoms:
               1
     1  C    0.106076
     2  O   -0.136624
     3  C    0.000384
     4  C    0.146553
     5  O   -0.116390
 Charge=              0.0000 electrons
 Dipole moment (field-independent basis, Debye):
    X=              2.4943    Y=              1.5912    Z=              1.1458  Tot=              3.1727
 N-N= 1.401789845709D+02 E-N=-2.367169441134D+02  KE=-2.086026118668D+01
 1\1\GINC-GTX1080DELTA\FOpt\RAM1\ZDO\C3H8O2\MVEROT\17-Apr-2022\0\\#n AM
 1 Opt\\Optimisation de geometrie\\0,1\C,0.9989701386,2.051977429,1.269
 1576378\O,1.5581046184,3.2116695589,0.6694041056\C,1.9972876813,0.9200
 268626,1.1018472013\C,3.2693132725,1.1448526804,1.9016565924\O,4.17109
 81895,2.0173181643,1.2532329124\H,0.0311059532,1.7934139948,0.76073647
 58\H,0.7970786827,2.2474361861,2.3571024434\H,0.9212685918,3.924594840
 3,0.7912343211\H,2.2609052677,0.8165238271,0.0168282269\H,1.5087809876
 ,-0.0292070179,1.4406755235\H,3.8396122541,0.1825522969,2.0102801034\H
 ,3.0223088311,1.5445155151,2.9227178804\H,3.6803655316,2.8137256626,1.
 008426576\\Version=AM64L-G09RevD.01\State=1-A\HF=-0.1866233\RMSD=5.720
 e-09\RMSF=1.028e-05\Dipole=-1.1935926,-0.0329467,0.3638007\PG=C01 [X(C
 3H8O2)]\\@


 THE PROMISED LAND ALWAYS LIES ON THE OTHER SIDE OF A WILDERNESS.

                         -- HAVELOCK ELLIS
 Job cpu time:       0 days  0 hours  0 minutes  6.8 seconds.
 File lengths (MBytes):  RWF=     72 Int=      0 D2E=      0 Chk=      2 Scr=      2
 Normal termination of Gaussian 09 at Sun Apr 17 23:11:06 2022.
