 Entering Gaussian System, Link 0=g09
 Input=/scratch/mverot/1-4-butanediol-redundant-opt/1-4-butanediol-redundant-opt.com
 Output=/scratch/mverot/1-4-butanediol-redundant-opt/1-4-butanediol-redundant-opt.log
 Initial command:
 /opt/g09/l1.exe "/scratch/mverot/1-4-butanediol-redundant-opt/Gau-1498209.inp" -scrdir="/scratch/mverot/1-4-butanediol-redundant-opt/"
 Entering Link 1 = /opt/g09/l1.exe PID=   1498211.
  
 Copyright (c) 1988,1990,1992,1993,1995,1998,2003,2009,2013,
            Gaussian, Inc.  All Rights Reserved.
  
 This is part of the Gaussian(R) 09 program.  It is based on
 the Gaussian(R) 03 system (copyright 2003, Gaussian, Inc.),
 the Gaussian(R) 98 system (copyright 1998, Gaussian, Inc.),
 the Gaussian(R) 94 system (copyright 1995, Gaussian, Inc.),
 the Gaussian 92(TM) system (copyright 1992, Gaussian, Inc.),
 the Gaussian 90(TM) system (copyright 1990, Gaussian, Inc.),
 the Gaussian 88(TM) system (copyright 1988, Gaussian, Inc.),
 the Gaussian 86(TM) system (copyright 1986, Carnegie Mellon
 University), and the Gaussian 82(TM) system (copyright 1983,
 Carnegie Mellon University). Gaussian is a federally registered
 trademark of Gaussian, Inc.
  
 This software contains proprietary and confidential information,
 including trade secrets, belonging to Gaussian, Inc.
  
 This software is provided under written license and may be
 used, copied, transmitted, or stored only in accord with that
 written license.
  
 The following legend is applicable only to US Government
 contracts under FAR:
  
                    RESTRICTED RIGHTS LEGEND
  
 Use, reproduction and disclosure by the US Government is
 subject to restrictions as set forth in subparagraphs (a)
 and (c) of the Commercial Computer Software - Restricted
 Rights clause in FAR 52.227-19.
  
 Gaussian, Inc.
 340 Quinnipiac St., Bldg. 40, Wallingford CT 06492
  
  
 ---------------------------------------------------------------
 Warning -- This program may not be used in any manner that
 competes with the business of Gaussian, Inc. or will provide
 assistance to any competitor of Gaussian, Inc.  The licensee
 of this program is prohibited from giving any competitor of
 Gaussian, Inc. access to this program.  By using this program,
 the user acknowledges that Gaussian, Inc. is engaged in the
 business of creating and licensing software in the field of
 computational chemistry and represents and warrants to the
 licensee that it is not a competitor of Gaussian, Inc. and that
 it will not use this program in any manner prohibited above.
 ---------------------------------------------------------------
  

 Cite this work as:
 Gaussian 09, Revision D.01,
 M. J. Frisch, G. W. Trucks, H. B. Schlegel, G. E. Scuseria, 
 M. A. Robb, J. R. Cheeseman, G. Scalmani, V. Barone, B. Mennucci, 
 G. A. Petersson, H. Nakatsuji, M. Caricato, X. Li, H. P. Hratchian, 
 A. F. Izmaylov, J. Bloino, G. Zheng, J. L. Sonnenberg, M. Hada, 
 M. Ehara, K. Toyota, R. Fukuda, J. Hasegawa, M. Ishida, T. Nakajima, 
 Y. Honda, O. Kitao, H. Nakai, T. Vreven, J. A. Montgomery, Jr., 
 J. E. Peralta, F. Ogliaro, M. Bearpark, J. J. Heyd, E. Brothers, 
 K. N. Kudin, V. N. Staroverov, T. Keith, R. Kobayashi, J. Normand, 
 K. Raghavachari, A. Rendell, J. C. Burant, S. S. Iyengar, J. Tomasi, 
 M. Cossi, N. Rega, J. M. Millam, M. Klene, J. E. Knox, J. B. Cross, 
 V. Bakken, C. Adamo, J. Jaramillo, R. Gomperts, R. E. Stratmann, 
 O. Yazyev, A. J. Austin, R. Cammi, C. Pomelli, J. W. Ochterski, 
 R. L. Martin, K. Morokuma, V. G. Zakrzewski, G. A. Voth, 
 P. Salvador, J. J. Dannenberg, S. Dapprich, A. D. Daniels, 
 O. Farkas, J. B. Foresman, J. V. Ortiz, J. Cioslowski, 
 and D. J. Fox, Gaussian, Inc., Wallingford CT, 2013.
 
 ******************************************
 Gaussian 09:  AM64L-G09RevD.01 24-Apr-2013
                18-Apr-2022 
 ******************************************
 %chk=1-4-butanediol-opt
 ----------------------------
 # hf/6-31G* Opt=modredundant
 ----------------------------
 1/18=120,19=15,38=1/1,3;
 2/9=110,12=2,17=6,18=5,40=1/2;
 3/5=1,6=6,7=1,11=9,16=1,25=1,30=1,71=1/1,2,3;
 4//1;
 5/5=2,38=5/2;
 6/7=2,8=2,9=2,10=2,28=1/1;
 7//1,2,3,16;
 1/18=20,19=15/3(2);
 2/9=110/2;
 99//99;
 2/9=110/2;
 3/5=1,6=6,7=1,11=9,16=1,25=1,30=1,71=1/1,2,3;
 4/5=5,16=3,69=1/1;
 5/5=2,38=5/2;
 7//1,2,3,16;
 1/18=20,19=15/3(-5);
 2/9=110/2;
 6/7=2,8=2,9=2,10=2,19=2,28=1/1;
 99/9=1/99;
 -------------------------
 Optimisation de geometrie
 -------------------------
 Symbolic Z-matrix:
 Charge =  0 Multiplicity = 1
 C                     1.6107    1.2545    1.9562 
 C                     1.1287    2.3802    1.0303 
 O                     1.4973    3.6767    1.461 
 C                     3.1202    0.9463    1.9456 
 C                     4.0514    2.0104    2.5215 
 O                     4.1945    3.0862    1.5783 
 H                     1.0825    0.3332    1.6712 
 H                     1.2915    1.4946    2.98 
 H                     0.0328    2.3688    1.0055 
 H                     1.4756    2.182     0.0004 
 H                     2.4724    3.7128    1.402 
 H                     3.4548    0.7229    0.923 
 H                     3.2871    0.0321    2.5311 
 H                     5.0392    1.5667    2.7112 
 H                     3.6576    2.3857    3.4778 
 H                     4.7634    3.7635    1.976 
 
 The following ModRedundant input section has been read:
 D       2       1       4       5 S  36 10.000                                
 

 GradGradGradGradGradGradGradGradGradGradGradGradGradGradGradGradGradGrad
 Berny optimization.
 Initialization pass.
                           ----------------------------
                           !    Initial Parameters    !
                           ! (Angstroms and Degrees)  !
 --------------------------                            --------------------------
 ! Name  Definition              Value          Derivative Info.                !
 --------------------------------------------------------------------------------
 ! R1    R(1,2)                  1.5352         estimate D2E/DX2                !
 ! R2    R(1,4)                  1.5407         estimate D2E/DX2                !
 ! R3    R(1,7)                  1.0996         estimate D2E/DX2                !
 ! R4    R(1,8)                  1.099          estimate D2E/DX2                !
 ! R5    R(2,3)                  1.415          estimate D2E/DX2                !
 ! R6    R(2,9)                  1.0962         estimate D2E/DX2                !
 ! R7    R(2,10)                 1.1047         estimate D2E/DX2                !
 ! R8    R(3,11)                 0.9776         estimate D2E/DX2                !
 ! R9    R(4,5)                  1.5268         estimate D2E/DX2                !
 ! R10   R(4,12)                 1.0989         estimate D2E/DX2                !
 ! R11   R(4,13)                 1.0984         estimate D2E/DX2                !
 ! R12   R(5,6)                  1.4379         estimate D2E/DX2                !
 ! R13   R(5,14)                 1.0994         estimate D2E/DX2                !
 ! R14   R(5,15)                 1.1002         estimate D2E/DX2                !
 ! R15   R(6,16)                 0.9698         estimate D2E/DX2                !
 ! A1    A(2,1,4)              116.7531         estimate D2E/DX2                !
 ! A2    A(2,1,7)              107.8932         estimate D2E/DX2                !
 ! A3    A(2,1,8)              108.0877         estimate D2E/DX2                !
 ! A4    A(4,1,7)              107.5333         estimate D2E/DX2                !
 ! A5    A(4,1,8)              109.554          estimate D2E/DX2                !
 ! A6    A(7,1,8)              106.559          estimate D2E/DX2                !
 ! A7    A(1,2,3)              113.9843         estimate D2E/DX2                !
 ! A8    A(1,2,9)              108.6562         estimate D2E/DX2                !
 ! A9    A(1,2,10)             109.3984         estimate D2E/DX2                !
 ! A10   A(3,2,9)              106.0708         estimate D2E/DX2                !
 ! A11   A(3,2,10)             111.4914         estimate D2E/DX2                !
 ! A12   A(9,2,10)             106.9162         estimate D2E/DX2                !
 ! A13   A(2,3,11)             105.9801         estimate D2E/DX2                !
 ! A14   A(1,4,5)              117.1002         estimate D2E/DX2                !
 ! A15   A(1,4,12)             110.2059         estimate D2E/DX2                !
 ! A16   A(1,4,13)             108.1622         estimate D2E/DX2                !
 ! A17   A(5,4,12)             107.8776         estimate D2E/DX2                !
 ! A18   A(5,4,13)             106.6391         estimate D2E/DX2                !
 ! A19   A(12,4,13)            106.2946         estimate D2E/DX2                !
 ! A20   A(4,5,6)              109.5557         estimate D2E/DX2                !
 ! A21   A(4,5,14)             109.3787         estimate D2E/DX2                !
 ! A22   A(4,5,15)             110.3221         estimate D2E/DX2                !
 ! A23   A(6,5,14)             109.0102         estimate D2E/DX2                !
 ! A24   A(6,5,15)             110.5225         estimate D2E/DX2                !
 ! A25   A(14,5,15)            108.0171         estimate D2E/DX2                !
 ! A26   A(5,6,16)             108.174          estimate D2E/DX2                !
 ! D1    D(4,1,2,3)            -71.948          estimate D2E/DX2                !
 ! D2    D(4,1,2,9)            170.0178         estimate D2E/DX2                !
 ! D3    D(4,1,2,10)            53.6277         estimate D2E/DX2                !
 ! D4    D(7,1,2,3)            166.9021         estimate D2E/DX2                !
 ! D5    D(7,1,2,9)             48.8678         estimate D2E/DX2                !
 ! D6    D(7,1,2,10)           -67.5223         estimate D2E/DX2                !
 ! D7    D(8,1,2,3)             52.0354         estimate D2E/DX2                !
 ! D8    D(8,1,2,9)            -65.9989         estimate D2E/DX2                !
 ! D9    D(8,1,2,10)           177.611          estimate D2E/DX2                !
 ! D10   D(2,1,4,5)             68.0507         Scan                            !
 ! D11   D(2,1,4,12)           -55.715          estimate D2E/DX2                !
 ! D12   D(2,1,4,13)          -171.5252         estimate D2E/DX2                !
 ! D13   D(7,1,4,5)           -170.6099         estimate D2E/DX2                !
 ! D14   D(7,1,4,12)            65.6244         estimate D2E/DX2                !
 ! D15   D(7,1,4,13)           -50.1858         estimate D2E/DX2                !
 ! D16   D(8,1,4,5)            -55.1806         estimate D2E/DX2                !
 ! D17   D(8,1,4,12)          -178.9464         estimate D2E/DX2                !
 ! D18   D(8,1,4,13)            65.2435         estimate D2E/DX2                !
 ! D19   D(1,2,3,11)            65.689          estimate D2E/DX2                !
 ! D20   D(9,2,3,11)          -174.8043         estimate D2E/DX2                !
 ! D21   D(10,2,3,11)          -58.7729         estimate D2E/DX2                !
 ! D22   D(1,4,5,6)            -76.1976         estimate D2E/DX2                !
 ! D23   D(1,4,5,14)           164.3712         estimate D2E/DX2                !
 ! D24   D(1,4,5,15)            45.6919         estimate D2E/DX2                !
 ! D25   D(12,4,5,6)            48.744          estimate D2E/DX2                !
 ! D26   D(12,4,5,14)          -70.6872         estimate D2E/DX2                !
 ! D27   D(12,4,5,15)          170.6335         estimate D2E/DX2                !
 ! D28   D(13,4,5,6)           162.5783         estimate D2E/DX2                !
 ! D29   D(13,4,5,14)           43.1471         estimate D2E/DX2                !
 ! D30   D(13,4,5,15)          -75.5322         estimate D2E/DX2                !
 ! D31   D(4,5,6,16)           178.0428         estimate D2E/DX2                !
 ! D32   D(14,5,6,16)          -62.2996         estimate D2E/DX2                !
 ! D33   D(15,5,6,16)           56.2735         estimate D2E/DX2                !
 --------------------------------------------------------------------------------
 Trust Radius=3.00D-01 FncErr=1.00D-07 GrdErr=1.00D-07
 Number of optimizations in scan=  37
 Number of steps in this run=     84 maximum allowed number of steps=    100.
 GradGradGradGradGradGradGradGradGradGradGradGradGradGradGradGradGradGrad

                          Input orientation:                          
 ---------------------------------------------------------------------
 Center     Atomic      Atomic             Coordinates (Angstroms)
 Number     Number       Type             X           Y           Z
 ---------------------------------------------------------------------
      1          6           0        1.610700    1.254500    1.956200
      2          6           0        1.128700    2.380200    1.030300
      3          8           0        1.497300    3.676700    1.461000
      4          6           0        3.120200    0.946300    1.945600
      5          6           0        4.051400    2.010400    2.521500
      6          8           0        4.194500    3.086200    1.578300
      7          1           0        1.082500    0.333200    1.671200
      8          1           0        1.291500    1.494600    2.980000
      9          1           0        0.032800    2.368800    1.005500
     10          1           0        1.475600    2.182000    0.000400
     11          1           0        2.472400    3.712800    1.402000
     12          1           0        3.454800    0.722900    0.923000
     13          1           0        3.287100    0.032100    2.531100
     14          1           0        5.039200    1.566700    2.711200
     15          1           0        3.657600    2.385700    3.477800
     16          1           0        4.763400    3.763500    1.976000
 ---------------------------------------------------------------------
                    Distance matrix (angstroms):
                    1          2          3          4          5
     1  C    0.000000
     2  C    1.535192   0.000000
     3  O    2.474901   1.415020   0.000000
     4  C    1.540678   2.619144   3.213056   0.000000
     5  C    2.616862   3.301909   3.228722   1.526795   0.000000
     6  O    3.189664   3.193410   2.763573   2.422437   1.437863
     7  H    1.099552   2.145483   3.375683   2.145555   3.514310
     8  H    1.098955   2.147585   2.666697   2.171350   2.844876
     9  H    2.152966   1.096240   2.015650   3.526944   4.309971
    10  H    2.168793   1.104680   2.089964   2.831160   3.608343
    11  H    2.663251   1.928604   0.977550   2.892865   2.577729
    12  H    2.179634   2.858128   3.584157   1.098897   2.137473
    13  H    2.152926   3.524864   4.199001   1.098375   2.120829
    14  H    3.524501   4.333499   4.308150   2.157221   1.099366
    15  H    2.790104   3.519321   3.225067   2.169864   1.100199
    16  H    4.029267   4.002363   3.307593   3.261540   1.969232
                    6          7          8          9         10
     6  O    0.000000
     7  H    4.155982   0.000000
     8  H    3.595186   1.762240   0.000000
     9  H    4.261750   2.385098   2.499440   0.000000
    10  H    3.271049   2.522729   3.063401   1.768274   0.000000
    11  H    1.841015   3.664149   2.967325   2.813396   2.302486
    12  H    2.561593   2.517832   3.083283   3.798141   2.626289
    13  H    3.325467   2.385446   2.514525   4.286968   3.782598
    14  H    2.075057   4.273008   3.758019   5.349469   4.519544
    15  H    2.094531   3.756022   2.576877   4.387679   4.110344
    16  H    0.969818   5.040723   4.267319   5.026493   4.148948
                   11         12         13         14         15
    11  H    0.000000
    12  H    3.183403   0.000000
    13  H    3.935245   1.758213   0.000000
    14  H    3.592800   2.533768   2.336084   0.000000
    15  H    2.734015   3.055002   2.563775   1.779678   0.000000
    16  H    2.362356   3.473686   4.051042   2.332920   2.318735
                   16
    16  H    0.000000
 Stoichiometry    C4H10O2
 Framework group  C1[X(C4H10O2)]
 Deg. of freedom    42
 Full point group                 C1      NOp   1
 Largest Abelian subgroup         C1      NOp   1
 Largest concise Abelian subgroup C1      NOp   1
                         Standard orientation:                         
 ---------------------------------------------------------------------
 Center     Atomic      Atomic             Coordinates (Angstroms)
 Number     Number       Type             X           Y           Z
 ---------------------------------------------------------------------
      1          6           0        0.830011    1.152271    0.212354
      2          6           0        1.646795   -0.045249   -0.293241
      3          8           0        1.303057   -1.274744    0.317060
      4          6           0       -0.644568    1.221794   -0.228637
      5          6           0       -1.588870    0.160941    0.331710
      6          8           0       -1.371828   -1.085645   -0.351200
      7          1           0        1.324059    2.070107   -0.137655
      8          1           0        0.886718    1.165023    1.309771
      9          1           0        2.703422    0.126014   -0.056702
     10          1           0        1.569165   -0.103974   -1.393623
     11          1           0        0.386969   -1.467934    0.035876
     12          1           0       -0.714763    1.190762   -1.324851
     13          1           0       -1.048228    2.196018    0.078564
     14          1           0       -2.629383    0.479027    0.174364
     15          1           0       -1.429669    0.040813    1.413682
     16          1           0       -1.958328   -1.751287    0.040574
 ---------------------------------------------------------------------
 Rotational constants (GHZ):      4.5593886      2.8857863      1.9677595
 Standard basis: 6-31G(d) (6D, 7F)
 There are   110 symmetry adapted cartesian basis functions of A   symmetry.
 There are   110 symmetry adapted basis functions of A   symmetry.
   110 basis functions,   208 primitive gaussians,   110 cartesian basis functions
    25 alpha electrons       25 beta electrons
       nuclear repulsion energy       262.6789795019 Hartrees.
 NAtoms=   16 NActive=   16 NUniq=   16 SFac= 1.00D+00 NAtFMM=   60 NAOKFM=F Big=F
 Integral buffers will be    131072 words long.
 Raffenetti 1 integral format.
 Two-electron integral symmetry is turned on.
 One-electron integrals computed using PRISM.
 NBasis=   110 RedAO= T EigKep=  5.09D-03  NBF=   110
 NBsUse=   110 1.00D-06 EigRej= -1.00D+00 NBFU=   110
 ExpMin= 1.61D-01 ExpMax= 5.48D+03 ExpMxC= 8.25D+02 IAcc=1 IRadAn=         1 AccDes= 0.00D+00
 Harris functional with IExCor=  205 and IRadAn=       1 diagonalized for initial guess.
 HarFok:  IExCor=  205 AccDes= 0.00D+00 IRadAn=         1 IDoV= 1 UseB2=F ITyADJ=14
 ICtDFT=  3500011 ScaDFX=  1.000000  1.000000  1.000000  1.000000
 FoFCou: FMM=F IPFlag=           0 FMFlag=      100000 FMFlg1=           0
         NFxFlg=           0 DoJE=T BraDBF=F KetDBF=T FulRan=T
         wScrn=  0.000000 ICntrl=     500 IOpCl=  0 I1Cent=   200000004 NGrid=           0
         NMat0=    1 NMatS0=      1 NMatT0=    0 NMatD0=    1 NMtDS0=    0 NMtDT0=    0
 Petite list used in FoFCou.
 Keep R1 ints in memory in canonical form, NReq=19588404.
 Requested convergence on RMS density matrix=1.00D-08 within 128 cycles.
 Requested convergence on MAX density matrix=1.00D-06.
 Requested convergence on             energy=1.00D-06.
 No special actions if energy rises.
 SCF Done:  E(RHF) =  -306.992418846     A.U. after   12 cycles
            NFock= 12  Conv=0.61D-08     -V/T= 2.0024

 **********************************************************************

            Population analysis using the SCF density.

 **********************************************************************

 Orbital symmetries:
       Occupied  (A) (A) (A) (A) (A) (A) (A) (A) (A) (A) (A) (A)
                 (A) (A) (A) (A) (A) (A) (A) (A) (A) (A) (A) (A)
                 (A)
       Virtual   (A) (A) (A) (A) (A) (A) (A) (A) (A) (A) (A) (A)
                 (A) (A) (A) (A) (A) (A) (A) (A) (A) (A) (A) (A)
                 (A) (A) (A) (A) (A) (A) (A) (A) (A) (A) (A) (A)
                 (A) (A) (A) (A) (A) (A) (A) (A) (A) (A) (A) (A)
                 (A) (A) (A) (A) (A) (A) (A) (A) (A) (A) (A) (A)
                 (A) (A) (A) (A) (A) (A) (A) (A) (A) (A) (A) (A)
                 (A) (A) (A) (A) (A) (A) (A) (A) (A) (A) (A) (A)
                 (A)
 The electronic state is 1-A.
 Alpha  occ. eigenvalues --  -20.58619 -20.52630 -11.29104 -11.25933 -11.23133
 Alpha  occ. eigenvalues --  -11.22035  -1.37552  -1.32427  -1.06462  -0.96548
 Alpha  occ. eigenvalues --   -0.86252  -0.78371  -0.72006  -0.66942  -0.64841
 Alpha  occ. eigenvalues --   -0.60599  -0.60002  -0.57339  -0.53855  -0.52930
 Alpha  occ. eigenvalues --   -0.49886  -0.47655  -0.45501  -0.45142  -0.40959
 Alpha virt. eigenvalues --    0.20263   0.24179   0.27136   0.28737   0.29709
 Alpha virt. eigenvalues --    0.31423   0.32470   0.32665   0.33919   0.36455
 Alpha virt. eigenvalues --    0.38678   0.39182   0.42813   0.47448   0.48435
 Alpha virt. eigenvalues --    0.72713   0.73358   0.73877   0.77919   0.78761
 Alpha virt. eigenvalues --    0.83220   0.90405   0.90787   0.94499   0.99105
 Alpha virt. eigenvalues --    1.02438   1.08395   1.09510   1.10116   1.11346
 Alpha virt. eigenvalues --    1.13572   1.15631   1.16552   1.18879   1.19968
 Alpha virt. eigenvalues --    1.21620   1.22138   1.22945   1.26207   1.32446
 Alpha virt. eigenvalues --    1.34755   1.37674   1.46528   1.48743   1.57596
 Alpha virt. eigenvalues --    1.59734   1.70415   1.79468   1.81687   1.85721
 Alpha virt. eigenvalues --    1.90029   1.91619   1.98349   2.02491   2.04751
 Alpha virt. eigenvalues --    2.06984   2.14087   2.20077   2.23830   2.24350
 Alpha virt. eigenvalues --    2.32023   2.36164   2.40050   2.46104   2.55313
 Alpha virt. eigenvalues --    2.57041   2.61898   2.65814   2.69304   2.74481
 Alpha virt. eigenvalues --    2.75704   2.78113   2.83868   2.91459   2.98651
 Alpha virt. eigenvalues --    3.02539   3.05606   3.19236   3.23992   4.22838
 Alpha virt. eigenvalues --    4.28247   4.56019   4.70978   4.88361   4.96142
          Condensed to atoms (all electrons):
               1          2          3          4          5          6
     1  C    5.173176   0.338168  -0.054047   0.331929  -0.046717   0.002665
     2  C    0.338168   4.745678   0.234722  -0.044137  -0.003621   0.002723
     3  O   -0.054047   0.234722   8.447196  -0.001010   0.007427  -0.019627
     4  C    0.331929  -0.044137  -0.001010   5.137718   0.340440  -0.051955
     5  C   -0.046717  -0.003621   0.007427   0.340440   4.836515   0.182047
     6  O    0.002665   0.002723  -0.019627  -0.051955   0.182047   8.429558
     7  H    0.385837  -0.035599   0.003072  -0.041999   0.004780  -0.000077
     8  H    0.389528  -0.038396   0.002090  -0.044452  -0.003267  -0.000004
     9  H   -0.047679   0.410900  -0.038314   0.004394  -0.000074  -0.000020
    10  H   -0.056427   0.393437  -0.036800  -0.007013   0.000781   0.000097
    11  H   -0.000743  -0.025852   0.243664   0.000969  -0.005574   0.032617
    12  H   -0.039704  -0.002246  -0.000003   0.390239  -0.040747   0.001115
    13  H   -0.038905   0.003774  -0.000076   0.399531  -0.042703   0.002617
    14  H    0.004056  -0.000097   0.000001  -0.042645   0.404524  -0.035852
    15  H   -0.006027   0.000459   0.000399  -0.042502   0.394487  -0.036398
    16  H   -0.000171  -0.000135   0.000834   0.005317  -0.019460   0.255632
               7          8          9         10         11         12
     1  C    0.385837   0.389528  -0.047679  -0.056427  -0.000743  -0.039704
     2  C   -0.035599  -0.038396   0.410900   0.393437  -0.025852  -0.002246
     3  O    0.003072   0.002090  -0.038314  -0.036800   0.243664  -0.000003
     4  C   -0.041999  -0.044452   0.004394  -0.007013   0.000969   0.390239
     5  C    0.004780  -0.003267  -0.000074   0.000781  -0.005574  -0.040747
     6  O   -0.000077  -0.000004  -0.000020   0.000097   0.032617   0.001115
     7  H    0.561078  -0.025512  -0.001840   0.001764  -0.000203  -0.001910
     8  H   -0.025512   0.548766  -0.003781   0.005125  -0.000211   0.003997
     9  H   -0.001840  -0.003781   0.550530  -0.038047   0.004874  -0.000070
    10  H    0.001764   0.005125  -0.038047   0.606029  -0.004409   0.003062
    11  H   -0.000203  -0.000211   0.004874  -0.004409   0.265461   0.000007
    12  H   -0.001910   0.003997  -0.000070   0.003062   0.000007   0.532437
    13  H   -0.005320  -0.001758  -0.000088  -0.000103  -0.000007  -0.024760
    14  H   -0.000078  -0.000056   0.000002   0.000004   0.000592  -0.002971
    15  H   -0.000058   0.003157  -0.000009   0.000050  -0.000692   0.004685
    16  H    0.000005   0.000000   0.000000   0.000006  -0.001373  -0.000090
              13         14         15         16
     1  C   -0.038905   0.004056  -0.006027  -0.000171
     2  C    0.003774  -0.000097   0.000459  -0.000135
     3  O   -0.000076   0.000001   0.000399   0.000834
     4  C    0.399531  -0.042645  -0.042502   0.005317
     5  C   -0.042703   0.404524   0.394487  -0.019460
     6  O    0.002617  -0.035852  -0.036398   0.255632
     7  H   -0.005320  -0.000078  -0.000058   0.000005
     8  H   -0.001758  -0.000056   0.003157   0.000000
     9  H   -0.000088   0.000002  -0.000009   0.000000
    10  H   -0.000103   0.000004   0.000050   0.000006
    11  H   -0.000007   0.000592  -0.000692  -0.001373
    12  H   -0.024760  -0.002971   0.004685  -0.000090
    13  H    0.544925  -0.002898   0.000877  -0.000179
    14  H   -0.002898   0.561462  -0.041732  -0.002614
    15  H    0.000877  -0.041732   0.567646  -0.003233
    16  H   -0.000179  -0.002614  -0.003233   0.315015
 Mulliken charges:
               1
     1  C   -0.334938
     2  C    0.020221
     3  O   -0.789528
     4  C   -0.334825
     5  C   -0.008839
     6  O   -0.765138
     7  H    0.156059
     8  H    0.164774
     9  H    0.159221
    10  H    0.132445
    11  H    0.490880
    12  H    0.176959
    13  H    0.165073
    14  H    0.158300
    15  H    0.158891
    16  H    0.450445
 Sum of Mulliken charges =  -0.00000
 Mulliken charges with hydrogens summed into heavy atoms:
               1
     1  C   -0.014105
     2  C    0.311887
     3  O   -0.298648
     4  C    0.007207
     5  C    0.308352
     6  O   -0.314693
 Electronic spatial extent (au):  <R**2>=            660.5332
 Charge=             -0.0000 electrons
 Dipole moment (field-independent basis, Debye):
    X=             -2.9058    Y=              1.4582    Z=              0.3047  Tot=              3.2654
 Quadrupole moment (field-independent basis, Debye-Ang):
   XX=            -35.7328   YY=            -37.8933   ZZ=            -39.3231
   XY=              6.0175   XZ=             -3.6848   YZ=             -0.2417
 Traceless Quadrupole moment (field-independent basis, Debye-Ang):
   XX=              1.9170   YY=             -0.2436   ZZ=             -1.6734
   XY=              6.0175   XZ=             -3.6848   YZ=             -0.2417
 Octapole moment (field-independent basis, Debye-Ang**2):
  XXX=            -13.9857  YYY=            -14.4469  ZZZ=              0.2617  XYY=            -14.2399
  XXY=             -3.2898  XXZ=              1.6263  XZZ=             -0.7943  YZZ=             -1.8483
  YYZ=              0.1464  XYZ=              3.9092
 Hexadecapole moment (field-independent basis, Debye-Ang**3):
 XXXX=           -429.4473 YYYY=           -273.1908 ZZZZ=            -84.2622 XXXY=             28.0112
 XXXZ=             -3.5457 YYYX=             27.6924 YYYZ=             -0.5439 ZZZX=              0.8228
 ZZZY=             -0.3061 XXYY=           -118.1377 XXZZ=            -95.2355 YYZZ=            -65.1043
 XXYZ=             -1.3619 YYXZ=             -5.7843 ZZXY=              0.9270
 N-N= 2.626789795019D+02 E-N=-1.246272214267D+03  KE= 3.062639314591D+02
 Calling FoFJK, ICntrl=      2127 FMM=F ISym2X=0 I1Cent= 0 IOpClX= 0 NMat=1 NMatS=1 NMatT=0.
 ***** Axes restored to original set *****
 -------------------------------------------------------------------
 Center     Atomic                   Forces (Hartrees/Bohr)
 Number     Number              X              Y              Z
 -------------------------------------------------------------------
      1        6          -0.003753843    0.000066550    0.004430244
      2        6          -0.004648260    0.005035856   -0.003148692
      3        8           0.023834253   -0.015780347   -0.007009811
      4        6           0.003611756   -0.005394560   -0.003454867
      5        6           0.002754623    0.005265991   -0.001057246
      6        8           0.014575765    0.003918683    0.023395238
      7        1           0.003874468    0.006836696    0.001566915
      8        1           0.002298681   -0.001965618   -0.007117087
      9        1           0.009154291    0.000137025    0.000361388
     10        1          -0.002340472    0.003807639    0.009381273
     11        1          -0.027289644    0.002510126    0.001558761
     12        1          -0.002630033    0.001608204    0.007357853
     13        1          -0.001738147    0.006259699   -0.003844484
     14        1          -0.008385300    0.004663506   -0.002342484
     15        1           0.003782987   -0.001638322   -0.008982017
     16        1          -0.013101125   -0.015331129   -0.011094984
 -------------------------------------------------------------------
 Cartesian Forces:  Max     0.027289644 RMS     0.008824117

 GradGradGradGradGradGradGradGradGradGradGradGradGradGradGradGradGradGrad
 Berny optimization.
 FormGI is forming the generalized inverse of G from B-inverse, IUseBI=4.
 Internal  Forces:  Max     0.027222628 RMS     0.005998216
 Search for a local minimum.
 Step number   1 out of a maximum of   84 on scan point     1 out of    37
 All quantities printed in internal units (Hartrees-Bohrs-Radians)
 Mixed Optimization -- RFO/linear search
 Second derivative matrix not updated -- first step.
 ITU=  0
     Eigenvalues ---    0.00300   0.00412   0.01191   0.01282   0.01493
     Eigenvalues ---    0.03095   0.04594   0.04690   0.04708   0.05131
     Eigenvalues ---    0.05871   0.05894   0.08955   0.09054   0.11250
     Eigenvalues ---    0.11278   0.11807   0.12687   0.13729   0.14096
     Eigenvalues ---    0.16000   0.16000   0.21997   0.22001   0.22010
     Eigenvalues ---    0.22052   0.28459   0.28949   0.29721   0.33170
     Eigenvalues ---    0.33660   0.33732   0.33752   0.33798   0.33804
     Eigenvalues ---    0.33862   0.34101   0.39880   0.43219   0.51864
     Eigenvalues ---    0.534141000.000001000.000001000.000001000.00000
     Eigenvalues --- 1000.000001000.000001000.000001000.000001000.00000
     Eigenvalues --- 1000.000001000.000001000.000001000.000001000.00000
     Eigenvalues --- 1000.000001000.000001000.000001000.000001000.00000
     Eigenvalues --- 1000.000001000.000001000.000001000.000001000.00000
     Eigenvalues --- 1000.000001000.000001000.000001000.000001000.00000
     Eigenvalues --- 1000.000001000.000001000.000001000.00000
 RFO step:  Lambda=-7.42900083D-03 EMin= 3.00421198D-03
 Linear search not attempted -- first point.
 Iteration  1 RMS(Cart)=  0.09087653 RMS(Int)=  0.00301194
 Iteration  2 RMS(Cart)=  0.00388029 RMS(Int)=  0.00010832
 Iteration  3 RMS(Cart)=  0.00000851 RMS(Int)=  0.00010818
 Iteration  4 RMS(Cart)=  0.00000000 RMS(Int)=  0.00010818
 Iteration  1 RMS(Cart)=  0.00003357 RMS(Int)=  0.00001892
 Iteration  2 RMS(Cart)=  0.00002213 RMS(Int)=  0.00002093
 Iteration  3 RMS(Cart)=  0.00001459 RMS(Int)=  0.00002406
 Iteration  4 RMS(Cart)=  0.00000962 RMS(Int)=  0.00002665
 Iteration  5 RMS(Cart)=  0.00000634 RMS(Int)=  0.00002852
 Iteration  6 RMS(Cart)=  0.00000418 RMS(Int)=  0.00002980
 Iteration  7 RMS(Cart)=  0.00000275 RMS(Int)=  0.00003067
 Iteration  8 RMS(Cart)=  0.00000182 RMS(Int)=  0.00003126
 Iteration  9 RMS(Cart)=  0.00000120 RMS(Int)=  0.00003164
 Iteration 10 RMS(Cart)=  0.00000079 RMS(Int)=  0.00003190
 Variable       Old X    -DE/DX   Delta X   Delta X   Delta X     New X
                                 (Linear)    (Quad)   (Total)
    R1        2.90109  -0.00343   0.00000  -0.01155  -0.01155   2.88954
    R2        2.91146  -0.00098   0.00000  -0.00335  -0.00335   2.90812
    R3        2.07785  -0.00800   0.00000  -0.02319  -0.02319   2.05466
    R4        2.07672  -0.00773   0.00000  -0.02237  -0.02237   2.05435
    R5        2.67400  -0.01472   0.00000  -0.03348  -0.03348   2.64052
    R6        2.07159  -0.00916   0.00000  -0.02629  -0.02629   2.04530
    R7        2.08754  -0.01016   0.00000  -0.02997  -0.02997   2.05757
    R8        1.84730  -0.02722   0.00000  -0.05175  -0.05175   1.79555
    R9        2.88522  -0.00243   0.00000  -0.00799  -0.00799   2.87724
   R10        2.07662  -0.00797   0.00000  -0.02308  -0.02308   2.05353
   R11        2.07563  -0.00752   0.00000  -0.02174  -0.02174   2.05389
   R12        2.71717  -0.01646   0.00000  -0.04052  -0.04052   2.67665
   R13        2.07750  -0.00982   0.00000  -0.02847  -0.02847   2.04903
   R14        2.07908  -0.00972   0.00000  -0.02825  -0.02825   2.05082
   R15        1.83269  -0.02294   0.00000  -0.04236  -0.04236   1.79033
    A1        2.03773   0.00824   0.00000   0.03896   0.03886   2.07659
    A2        1.88309  -0.00308   0.00000  -0.01650  -0.01618   1.86691
    A3        1.88649  -0.00197   0.00000  -0.00263  -0.00313   1.88336
    A4        1.87681  -0.00300   0.00000  -0.02042  -0.02019   1.85662
    A5        1.91208  -0.00194   0.00000   0.00110   0.00073   1.91281
    A6        1.85981   0.00126   0.00000  -0.00428  -0.00439   1.85542
    A7        1.98940   0.00277   0.00000   0.01181   0.01176   2.00116
    A8        1.89641  -0.00138   0.00000  -0.01020  -0.01014   1.88627
    A9        1.90936   0.00130   0.00000   0.01527   0.01524   1.92460
   A10        1.85128  -0.00120   0.00000  -0.01292  -0.01291   1.83838
   A11        1.94589  -0.00210   0.00000  -0.00837  -0.00855   1.93735
   A12        1.86604   0.00038   0.00000   0.00271   0.00271   1.86875
   A13        1.84970   0.00607   0.00000   0.03627   0.03627   1.88597
   A14        2.04378   0.00616   0.00000   0.02903   0.02899   2.07277
   A15        1.92346  -0.00135   0.00000  -0.00002  -0.00022   1.92324
   A16        1.88779  -0.00275   0.00000  -0.01971  -0.01964   1.86814
   A17        1.88282  -0.00158   0.00000  -0.00338  -0.00365   1.87917
   A18        1.86120  -0.00185   0.00000  -0.00640  -0.00615   1.85505
   A19        1.85519   0.00100   0.00000  -0.00234  -0.00241   1.85278
   A20        1.91211   0.00318   0.00000   0.01353   0.01347   1.92558
   A21        1.90902  -0.00066   0.00000  -0.00458  -0.00452   1.90450
   A22        1.92548   0.00093   0.00000   0.01423   0.01417   1.93965
   A23        1.90259  -0.00217   0.00000  -0.02058  -0.02058   1.88201
   A24        1.92898  -0.00168   0.00000  -0.00540  -0.00561   1.92338
   A25        1.88525   0.00032   0.00000   0.00211   0.00205   1.88730
   A26        1.88799   0.00320   0.00000   0.01911   0.01911   1.90711
    D1       -1.25573  -0.00176   0.00000  -0.07554  -0.07562  -1.33135
    D2        2.96737  -0.00102   0.00000  -0.05963  -0.05966   2.90771
    D3        0.93598  -0.00143   0.00000  -0.06557  -0.06554   0.87044
    D4        2.91299  -0.00104   0.00000  -0.06239  -0.06242   2.85057
    D5        0.85290  -0.00030   0.00000  -0.04648  -0.04646   0.80645
    D6       -1.17849  -0.00070   0.00000  -0.05243  -0.05233  -1.23082
    D7        0.90819   0.00006   0.00000  -0.04765  -0.04770   0.86049
    D8       -1.15190   0.00080   0.00000  -0.03174  -0.03174  -1.18364
    D9        3.09990   0.00040   0.00000  -0.03768  -0.03762   3.06228
   D10        1.18771   0.00182   0.00000   0.00000   0.00000   1.18771
   D11       -0.97241   0.00032   0.00000  -0.01813  -0.01812  -0.99053
   D12       -2.99368   0.00142   0.00000  -0.00414  -0.00418  -2.99786
   D13       -2.97770   0.00102   0.00000  -0.01120  -0.01128  -2.98898
   D14        1.14536  -0.00048   0.00000  -0.02933  -0.02940   1.11596
   D15       -0.87591   0.00062   0.00000  -0.01534  -0.01547  -0.89137
   D16       -0.96308  -0.00013   0.00000  -0.02678  -0.02686  -0.98994
   D17       -3.12320  -0.00163   0.00000  -0.04491  -0.04498   3.11500
   D18        1.13871  -0.00053   0.00000  -0.03092  -0.03104   1.10767
   D19        1.14649   0.00179   0.00000   0.04576   0.04573   1.19222
   D20       -3.05091   0.00088   0.00000   0.03128   0.03122  -3.01969
   D21       -1.02578  -0.00043   0.00000   0.02274   0.02283  -1.00295
   D22       -1.32990  -0.00187   0.00000  -0.06322  -0.06325  -1.39315
   D23        2.86882  -0.00074   0.00000  -0.04349  -0.04346   2.82536
   D24        0.79747  -0.00128   0.00000  -0.05184  -0.05176   0.74571
   D25        0.85074  -0.00042   0.00000  -0.04433  -0.04439   0.80635
   D26       -1.23372   0.00071   0.00000  -0.02459  -0.02459  -1.25832
   D27        2.97812   0.00017   0.00000  -0.03295  -0.03290   2.94522
   D28        2.83753  -0.00091   0.00000  -0.05171  -0.05179   2.78574
   D29        0.75306   0.00022   0.00000  -0.03197  -0.03199   0.72107
   D30       -1.31829  -0.00032   0.00000  -0.04033  -0.04030  -1.35858
   D31        3.10743   0.00116   0.00000   0.03006   0.03006   3.13749
   D32       -1.08733   0.00095   0.00000   0.02013   0.02004  -1.06729
   D33        0.98216  -0.00100   0.00000   0.00685   0.00695   0.98911
         Item               Value     Threshold  Converged?
 Maximum Force            0.027223     0.000450     NO 
 RMS     Force            0.006028     0.000300     NO 
 Maximum Displacement     0.374497     0.001800     NO 
 RMS     Displacement     0.090272     0.001200     NO 
 Predicted change in Energy=-3.992406D-03
 GradGradGradGradGradGradGradGradGradGradGradGradGradGradGradGradGradGrad

                          Input orientation:                          
 ---------------------------------------------------------------------
 Center     Atomic      Atomic             Coordinates (Angstroms)
 Number     Number       Type             X           Y           Z
 ---------------------------------------------------------------------
      1          6           0        1.621105    1.270656    1.942207
      2          6           0        1.097334    2.376178    1.024836
      3          8           0        1.338302    3.674882    1.480642
      4          6           0        3.129110    0.964052    1.954495
      5          6           0        4.083393    2.003492    2.526440
      6          8           0        4.329905    3.022174    1.573674
      7          1           0        1.123572    0.350364    1.646071
      8          1           0        1.284946    1.487785    2.952987
      9          1           0        0.019999    2.286622    0.972289
     10          1           0        1.479049    2.240190    0.014228
     11          1           0        2.274225    3.833117    1.437916
     12          1           0        3.470293    0.719184    0.952241
     13          1           0        3.266340    0.064524    2.548890
     14          1           0        5.030258    1.527851    2.756481
     15          1           0        3.690316    2.433778    3.441922
     16          1           0        4.921553    3.661750    1.945781
 ---------------------------------------------------------------------
                    Distance matrix (angstroms):
                    1          2          3          4          5
     1  C    0.000000
     2  C    1.529080   0.000000
     3  O    2.464411   1.397303   0.000000
     4  C    1.538908   2.643195   3.283311   0.000000
     5  C    2.634623   3.363073   3.379758   1.522568   0.000000
     6  O    3.246726   3.341863   3.063392   2.413048   1.416420
     7  H    1.087278   2.119090   3.335550   2.119888   3.502631
     8  H    1.087117   2.131245   2.637051   2.161533   2.877360
     9  H    2.129898   1.082327   1.980810   3.518592   4.359669
    10  H    2.162702   1.088819   2.056337   2.848837   3.626272
    11  H    2.692041   1.917910   0.950166   3.037964   2.793834
    12  H    2.168790   2.895139   3.682491   1.086682   2.122131
    13  H    2.128290   3.517253   4.230032   1.086870   2.104204
    14  H    3.514472   4.380199   4.457359   2.139022   1.084300
    15  H    2.807780   3.545304   3.304380   2.165060   1.085248
    16  H    4.075574   4.138295   3.613339   3.238905   1.946664
                    6          7          8          9         10
     6  O    0.000000
     7  H    4.174252   0.000000
     8  H    3.678128   1.740057   0.000000
     9  H    4.413387   2.328293   2.482215   0.000000
    10  H    3.342267   2.522047   3.039752   1.746099   0.000000
    11  H    2.214019   3.673813   2.962211   2.773083   2.279607
    12  H    2.535522   2.474779   3.060959   3.789695   2.675516
    13  H    3.290883   2.342700   2.472830   4.238174   3.788462
    14  H    2.030402   4.228674   3.750678   5.372315   4.542958
    15  H    2.060494   3.762163   2.630544   4.426281   4.083659
    16  H    0.947401   5.047749   4.354940   5.183039   4.195541
                   11         12         13         14         15
    11  H    0.000000
    12  H    3.370911   0.000000
    13  H    4.052265   1.737660   0.000000
    14  H    3.827348   2.518474   2.301266   0.000000
    15  H    2.824802   3.030966   2.567221   1.756696   0.000000
    16  H    2.701045   3.428115   4.005434   2.285296   2.293970
                   16
    16  H    0.000000
 Stoichiometry    C4H10O2
 Framework group  C1[X(C4H10O2)]
 Deg. of freedom    42
 Full point group                 C1      NOp   1
 Largest Abelian subgroup         C1      NOp   1
 Largest concise Abelian subgroup C1      NOp   1
                         Standard orientation:                         
 ---------------------------------------------------------------------
 Center     Atomic      Atomic             Coordinates (Angstroms)
 Number     Number       Type             X           Y           Z
 ---------------------------------------------------------------------
      1          6           0        0.810252    1.137980    0.187840
      2          6           0        1.671787   -0.015520   -0.327211
      3          8           0        1.478177   -1.229494    0.337048
      4          6           0       -0.678295    1.187509   -0.199476
      5          6           0       -1.616886    0.127985    0.361478
      6          8           0       -1.497145   -1.075499   -0.375770
      7          1           0        1.254882    2.057310   -0.185405
      8          1           0        0.906613    1.169790    1.270210
      9          1           0        2.710082    0.239983   -0.159599
     10          1           0        1.541071   -0.133451   -1.401703
     11          1           0        0.607616   -1.545688    0.125012
     12          1           0       -0.784854    1.183313   -1.280913
     13          1           0       -1.063603    2.145883    0.138672
     14          1           0       -2.640079    0.474388    0.267725
     15          1           0       -1.417129   -0.054862    1.412395
     16          1           0       -2.084001   -1.724449   -0.012406
 ---------------------------------------------------------------------
 Rotational constants (GHZ):      4.6913909      2.6294632      1.8750240
 Standard basis: 6-31G(d) (6D, 7F)
 There are   110 symmetry adapted cartesian basis functions of A   symmetry.
 There are   110 symmetry adapted basis functions of A   symmetry.
   110 basis functions,   208 primitive gaussians,   110 cartesian basis functions
    25 alpha electrons       25 beta electrons
       nuclear repulsion energy       260.8626896810 Hartrees.
 NAtoms=   16 NActive=   16 NUniq=   16 SFac= 1.00D+00 NAtFMM=   60 NAOKFM=F Big=F
 Integral buffers will be    131072 words long.
 Raffenetti 1 integral format.
 Two-electron integral symmetry is turned on.
 One-electron integrals computed using PRISM.
 NBasis=   110 RedAO= T EigKep=  4.87D-03  NBF=   110
 NBsUse=   110 1.00D-06 EigRej= -1.00D+00 NBFU=   110
 Initial guess from the checkpoint file:  "1-4-butanediol-opt.chk"
 B after Tr=     0.000000   -0.000000    0.000000
         Rot=    0.999918   -0.001616   -0.008587   -0.009316 Ang=  -1.46 deg.
 ExpMin= 1.61D-01 ExpMax= 5.48D+03 ExpMxC= 8.25D+02 IAcc=1 IRadAn=         1 AccDes= 0.00D+00
 Harris functional with IExCor=  205 and IRadAn=       1 diagonalized for initial guess.
 HarFok:  IExCor=  205 AccDes= 0.00D+00 IRadAn=         1 IDoV= 1 UseB2=F ITyADJ=14
 ICtDFT=  3500011 ScaDFX=  1.000000  1.000000  1.000000  1.000000
 FoFCou: FMM=F IPFlag=           0 FMFlag=      100000 FMFlg1=           0
         NFxFlg=           0 DoJE=T BraDBF=F KetDBF=T FulRan=T
         wScrn=  0.000000 ICntrl=     500 IOpCl=  0 I1Cent=   200000004 NGrid=           0
         NMat0=    1 NMatS0=      1 NMatT0=    0 NMatD0=    1 NMtDS0=    0 NMtDT0=    0
 Petite list used in FoFCou.
 Keep R1 ints in memory in canonical form, NReq=19587925.
 Requested convergence on RMS density matrix=1.00D-08 within 128 cycles.
 Requested convergence on MAX density matrix=1.00D-06.
 Requested convergence on             energy=1.00D-06.
 No special actions if energy rises.
 SCF Done:  E(RHF) =  -306.993616470     A.U. after   11 cycles
            NFock= 11  Conv=0.60D-08     -V/T= 2.0013
 Calling FoFJK, ICntrl=      2127 FMM=F ISym2X=0 I1Cent= 0 IOpClX= 0 NMat=1 NMatS=1 NMatT=0.
 ***** Axes restored to original set *****
 -------------------------------------------------------------------
 Center     Atomic                   Forces (Hartrees/Bohr)
 Number     Number              X              Y              Z
 -------------------------------------------------------------------
      1        6           0.000701808    0.000848806    0.001816641
      2        6          -0.000976631   -0.001586373   -0.001120759
      3        8           0.006966293   -0.000091947    0.001471455
      4        6           0.000483264    0.000030203   -0.001452021
      5        6           0.002604549    0.004074666   -0.003861651
      6        8          -0.008332683    0.000804517    0.000838440
      7        1          -0.000546866   -0.000547453   -0.000098418
      8        1           0.000095784    0.000289505    0.000485465
      9        1          -0.000617393   -0.000772895   -0.000429716
     10        1           0.000850355    0.000052468   -0.000041810
     11        1           0.000348891    0.000344600   -0.000439319
     12        1          -0.000126321    0.000296791   -0.000542733
     13        1          -0.000456662   -0.000585617    0.000141417
     14        1           0.000070396   -0.002669727    0.002285475
     15        1          -0.001171538   -0.000293559    0.001392628
     16        1           0.000106754   -0.000193985   -0.000445094
 -------------------------------------------------------------------
 Cartesian Forces:  Max     0.008332683 RMS     0.001997919

 GradGradGradGradGradGradGradGradGradGradGradGradGradGradGradGradGradGrad
 Berny optimization.
 Using GEDIIS/GDIIS optimizer.
 FormGI is forming the generalized inverse of G from B-inverse, IUseBI=4.
 Internal  Forces:  Max     0.017728739 RMS     0.004114442
 Search for a local minimum.
 Step number   2 out of a maximum of   84 on scan point     1 out of    37
 All quantities printed in internal units (Hartrees-Bohrs-Radians)
 Mixed Optimization -- RFO/linear search
 Update second derivatives using D2CorX and points    1    2
 DE= -1.20D-03 DEPred=-3.99D-03 R= 3.00D-01
 Trust test= 3.00D-01 RLast= 2.73D-01 DXMaxT set to 3.00D-01
 ITU=  0  0
 Use linear search instead of GDIIS.
     Eigenvalues ---    0.00328   0.00477   0.01187   0.01296   0.01490
     Eigenvalues ---    0.02917   0.04541   0.04675   0.04760   0.05228
     Eigenvalues ---    0.05842   0.05896   0.09314   0.09329   0.11441
     Eigenvalues ---    0.11647   0.11937   0.12901   0.13604   0.14015
     Eigenvalues ---    0.15289   0.16001   0.21856   0.22025   0.22065
     Eigenvalues ---    0.22891   0.28046   0.28955   0.29677   0.33255
     Eigenvalues ---    0.33682   0.33737   0.33769   0.33801   0.33849
     Eigenvalues ---    0.34050   0.37454   0.40900   0.45205   0.52084
     Eigenvalues ---    0.529921000.000001000.000001000.000001000.00000
     Eigenvalues --- 1000.000001000.000001000.000001000.000001000.00000
     Eigenvalues --- 1000.000001000.000001000.000001000.000001000.00000
     Eigenvalues --- 1000.000001000.000001000.000001000.000001000.00000
     Eigenvalues --- 1000.000001000.000001000.000001000.000001000.00000
     Eigenvalues --- 1000.000001000.000001000.000001000.000001000.00000
     Eigenvalues --- 1000.000001000.000001000.000001000.00000
 RFO step:  Lambda=-5.82083973D-03 EMin= 3.28410524D-03
 Quartic linear search produced a step of -0.41677.
 Iteration  1 RMS(Cart)=  0.14843337 RMS(Int)=  0.00867676
 Iteration  2 RMS(Cart)=  0.01089536 RMS(Int)=  0.00012728
 Iteration  3 RMS(Cart)=  0.00002888 RMS(Int)=  0.00012472
 Iteration  4 RMS(Cart)=  0.00000001 RMS(Int)=  0.00012472
 Iteration  1 RMS(Cart)=  0.00002852 RMS(Int)=  0.00001555
 Iteration  2 RMS(Cart)=  0.00001879 RMS(Int)=  0.00001721
 Iteration  3 RMS(Cart)=  0.00001238 RMS(Int)=  0.00001979
 Iteration  4 RMS(Cart)=  0.00000815 RMS(Int)=  0.00002191
 Iteration  5 RMS(Cart)=  0.00000537 RMS(Int)=  0.00002345
 Iteration  6 RMS(Cart)=  0.00000354 RMS(Int)=  0.00002450
 Iteration  7 RMS(Cart)=  0.00000233 RMS(Int)=  0.00002522
 Iteration  8 RMS(Cart)=  0.00000154 RMS(Int)=  0.00002569
 Iteration  9 RMS(Cart)=  0.00000101 RMS(Int)=  0.00002601
 Iteration 10 RMS(Cart)=  0.00000067 RMS(Int)=  0.00002622
 Variable       Old X    -DE/DX   Delta X   Delta X   Delta X     New X
                                 (Linear)    (Quad)   (Total)
    R1        2.88954  -0.00340   0.00481  -0.02066  -0.01585   2.87369
    R2        2.90812  -0.00699   0.00139  -0.01901  -0.01762   2.89050
    R3        2.05466   0.00074   0.00967  -0.02577  -0.01610   2.03856
    R4        2.05435   0.00048   0.00932  -0.02529  -0.01596   2.03839
    R5        2.64052   0.00183   0.01395  -0.03685  -0.02290   2.61763
    R6        2.04530   0.00070   0.01096  -0.02949  -0.01853   2.02677
    R7        2.05757   0.00033   0.01249  -0.03441  -0.02192   2.03565
    R8        1.79555   0.00042   0.02157  -0.06082  -0.03925   1.75630
    R9        2.87724  -0.00296   0.00333  -0.01543  -0.01210   2.86513
   R10        2.05353   0.00039   0.00962  -0.02628  -0.01666   2.03688
   R11        2.05389   0.00050   0.00906  -0.02451  -0.01545   2.03844
   R12        2.67665  -0.00126   0.01689  -0.04962  -0.03273   2.64392
   R13        2.04903   0.00172   0.01187  -0.03015  -0.01828   2.03075
   R14        2.05082   0.00148   0.01178  -0.03032  -0.01854   2.03228
   R15        1.79033  -0.00024   0.01766  -0.05052  -0.03286   1.75747
    A1        2.07659  -0.01773  -0.01620  -0.00986  -0.02616   2.05043
    A2        1.86691   0.00474   0.00674   0.00507   0.01195   1.87886
    A3        1.88336   0.00599   0.00130  -0.00272  -0.00170   1.88166
    A4        1.85662   0.00675   0.00842   0.01047   0.01895   1.87557
    A5        1.91281   0.00387  -0.00030  -0.00695  -0.00743   1.90538
    A6        1.85542  -0.00243   0.00183   0.00642   0.00830   1.86372
    A7        2.00116  -0.00715  -0.00490  -0.00833  -0.01335   1.98781
    A8        1.88627   0.00168   0.00423   0.00361   0.00782   1.89409
    A9        1.92460   0.00130  -0.00635   0.00887   0.00224   1.92685
   A10        1.83838   0.00452   0.00538   0.01565   0.02111   1.85949
   A11        1.93735   0.00070   0.00356  -0.02525  -0.02177   1.91557
   A12        1.86875  -0.00047  -0.00113   0.00780   0.00671   1.87546
   A13        1.88597   0.00020  -0.01512   0.04142   0.02631   1.91228
   A14        2.07277  -0.01683  -0.01208  -0.01849  -0.03077   2.04200
   A15        1.92324   0.00339   0.00009  -0.00891  -0.00920   1.91404
   A16        1.86814   0.00598   0.00819   0.00844   0.01688   1.88502
   A17        1.87917   0.00578   0.00152  -0.00363  -0.00269   1.87648
   A18        1.85505   0.00510   0.00256   0.01830   0.02106   1.87611
   A19        1.85278  -0.00221   0.00100   0.00842   0.00946   1.86224
   A20        1.92558  -0.00755  -0.00561  -0.00598  -0.01171   1.91387
   A21        1.90450   0.00052   0.00188   0.00278   0.00465   1.90915
   A22        1.93965   0.00051  -0.00590   0.00234  -0.00375   1.93590
   A23        1.88201   0.00652   0.00858   0.01922   0.02784   1.90985
   A24        1.92338   0.00101   0.00234  -0.01956  -0.01731   1.90607
   A25        1.88730  -0.00067  -0.00085   0.00215   0.00140   1.88871
   A26        1.90711   0.00049  -0.00797   0.02328   0.01531   1.92242
    D1       -1.33135   0.00469   0.03152   0.14783   0.17935  -1.15200
    D2        2.90771   0.00217   0.02487   0.13075   0.15565   3.06336
    D3        0.87044   0.00105   0.02731   0.11442   0.14172   1.01216
    D4        2.85057   0.00386   0.02601   0.13644   0.16243   3.01301
    D5        0.80645   0.00134   0.01936   0.11936   0.13873   0.94518
    D6       -1.23082   0.00022   0.02181   0.10303   0.12480  -1.10602
    D7        0.86049   0.00147   0.01988   0.12785   0.14773   1.00822
    D8       -1.18364  -0.00105   0.01323   0.11077   0.12403  -1.05961
    D9        3.06228  -0.00217   0.01568   0.09444   0.11010  -3.11081
   D10        1.18771  -0.00161  -0.00000   0.00000  -0.00000   1.18771
   D11       -0.99053   0.00106   0.00755   0.02869   0.03610  -0.95443
   D12       -2.99786  -0.00133   0.00174   0.01865   0.02039  -2.97747
   D13       -2.98898  -0.00169   0.00470   0.00868   0.01340  -2.97559
   D14        1.11596   0.00098   0.01225   0.03737   0.04950   1.16546
   D15       -0.89137  -0.00141   0.00645   0.02733   0.03379  -0.85758
   D16       -0.98994   0.00090   0.01119   0.01829   0.02945  -0.96049
   D17        3.11500   0.00358   0.01875   0.04698   0.06556  -3.10263
   D18        1.10767   0.00118   0.01294   0.03694   0.04984   1.15751
   D19        1.19222  -0.00122  -0.01906   0.01534  -0.00353   1.18870
   D20       -3.01969  -0.00012  -0.01301   0.02564   0.01271  -3.00697
   D21       -1.00295   0.00218  -0.00951   0.03122   0.02142  -0.98153
   D22       -1.39315   0.00531   0.02636   0.13648   0.16277  -1.23038
   D23        2.82536   0.00152   0.01811   0.11489   0.13294   2.95830
   D24        0.74571   0.00170   0.02157   0.10903   0.13055   0.87627
   D25        0.80635   0.00194   0.01850   0.10614   0.12464   0.93100
   D26       -1.25832  -0.00186   0.01025   0.08455   0.09482  -1.16350
   D27        2.94522  -0.00167   0.01371   0.07869   0.09243   3.03765
   D28        2.78574   0.00446   0.02158   0.12279   0.14441   2.93014
   D29        0.72107   0.00066   0.01333   0.10120   0.11458   0.83565
   D30       -1.35858   0.00085   0.01679   0.09534   0.11219  -1.24639
   D31        3.13749  -0.00115  -0.01253   0.00461  -0.00780   3.12969
   D32       -1.06729  -0.00092  -0.00835   0.01612   0.00787  -1.05943
   D33        0.98911   0.00265  -0.00290   0.01906   0.01595   1.00505
         Item               Value     Threshold  Converged?
 Maximum Force            0.017714     0.000450     NO 
 RMS     Force            0.004130     0.000300     NO 
 Maximum Displacement     0.514674     0.001800     NO 
 RMS     Displacement     0.148435     0.001200     NO 
 Predicted change in Energy=-3.318245D-03
 GradGradGradGradGradGradGradGradGradGradGradGradGradGradGradGradGradGrad

                          Input orientation:                          
 ---------------------------------------------------------------------
 Center     Atomic      Atomic             Coordinates (Angstroms)
 Number     Number       Type             X           Y           Z
 ---------------------------------------------------------------------
      1          6           0        1.625300    1.260661    1.951403
      2          6           0        1.141171    2.376342    1.038504
      3          8           0        1.604535    3.632551    1.393439
      4          6           0        3.122827    0.949149    1.952287
      5          6           0        4.044699    2.002918    2.534072
      6          8           0        4.093255    3.109492    1.679308
      7          1           0        1.107062    0.358000    1.667939
      8          1           0        1.312118    1.497171    2.956145
      9          1           0        0.070824    2.419527    1.091330
     10          1           0        1.406004    2.166173    0.015717
     11          1           0        2.521660    3.678001    1.249945
     12          1           0        3.452472    0.749829    0.945607
     13          1           0        3.274014    0.040476    2.513572
     14          1           0        5.031709    1.592248    2.643511
     15          1           0        3.702850    2.319286    3.503409
     16          1           0        4.649200    3.764775    2.034912
 ---------------------------------------------------------------------
                    Distance matrix (angstroms):
                    1          2          3          4          5
     1  C    0.000000
     2  C    1.520694   0.000000
     3  O    2.436722   1.385188   0.000000
     4  C    1.529584   2.607459   3.133396   0.000000
     5  C    2.596910   3.287346   3.148197   1.516163   0.000000
     6  O    3.095644   3.108527   2.559110   2.383974   1.399101
     7  H    1.078759   2.114487   3.323479   2.119816   3.476443
     8  H    1.078669   2.116486   2.662218   2.141664   2.810858
     9  H    2.121106   1.072519   1.978627   3.495423   4.248146
    10  H    2.148237   1.077219   2.021830   2.859883   3.651229
    11  H    2.671898   1.909129   0.929395   2.881202   2.602794
    12  H    2.147354   2.827770   3.453334   1.077868   2.108124
    13  H    2.126769   3.490146   4.116414   1.078696   2.108449
    14  H    3.491789   4.281021   4.179838   2.129601   1.074624
    15  H    2.801004   3.555448   3.252624   2.149344   1.075436
    16  H    3.927025   3.902158   3.114315   3.203808   1.928398
                    6          7          8          9         10
     6  O    0.000000
     7  H    4.060565   0.000000
     8  H    3.458990   1.731830   0.000000
     9  H    4.123314   2.378267   2.422620   0.000000
    10  H    3.298288   2.467527   3.017034   1.733158   0.000000
    11  H    1.725535   3.632935   3.021611   2.759621   2.248028
    12  H    2.552828   2.485204   3.030165   3.774210   2.656832
    13  H    3.284206   2.347680   2.483318   4.235927   3.774563
    14  H    2.027908   4.228235   3.733917   5.263462   4.514469
    15  H    2.025878   3.735467   2.586691   4.361168   4.178868
    16  H    0.930013   4.928237   4.138455   4.864315   4.141376
                   11         12         13         14         15
    11  H    0.000000
    12  H    3.087593   0.000000
    13  H    3.923568   1.730186   0.000000
    14  H    3.548626   2.467092   2.348271   0.000000
    15  H    2.884340   3.011351   2.521241   1.741802   0.000000
    16  H    2.269390   3.421789   3.998832   2.288357   2.267487
                   16
    16  H    0.000000
 Stoichiometry    C4H10O2
 Framework group  C1[X(C4H10O2)]
 Deg. of freedom    42
 Full point group                 C1      NOp   1
 Largest Abelian subgroup         C1      NOp   1
 Largest concise Abelian subgroup C1      NOp   1
                         Standard orientation:                         
 ---------------------------------------------------------------------
 Center     Atomic      Atomic             Coordinates (Angstroms)
 Number     Number       Type             X           Y           Z
 ---------------------------------------------------------------------
      1          6           0        0.807791    1.144937    0.228288
      2          6           0        1.647079   -0.034939   -0.236469
      3          8           0        1.219311   -1.256616    0.256750
      4          6           0       -0.643150    1.211446   -0.251270
      5          6           0       -1.593386    0.157326    0.282241
      6          8           0       -1.277985   -1.086317   -0.275751
      7          1           0        1.299558    2.046460   -0.102077
      8          1           0        0.825344    1.157866    1.306736
      9          1           0        2.651104    0.101640    0.115069
     10          1           0        1.683326   -0.069246   -1.312531
     11          1           0        0.396331   -1.472369   -0.117322
     12          1           0       -0.672230    1.159530   -1.327494
     13          1           0       -1.041204    2.175655    0.023392
     14          1           0       -2.601815    0.420986    0.020762
     15          1           0       -1.530440    0.090606    1.353759
     16          1           0       -1.850593   -1.740280    0.054969
 ---------------------------------------------------------------------
 Rotational constants (GHZ):      4.7210169      3.0655724      2.0445895
 Standard basis: 6-31G(d) (6D, 7F)
 There are   110 symmetry adapted cartesian basis functions of A   symmetry.
 There are   110 symmetry adapted basis functions of A   symmetry.
   110 basis functions,   208 primitive gaussians,   110 cartesian basis functions
    25 alpha electrons       25 beta electrons
       nuclear repulsion energy       268.1772203689 Hartrees.
 NAtoms=   16 NActive=   16 NUniq=   16 SFac= 1.00D+00 NAtFMM=   60 NAOKFM=F Big=F
 Integral buffers will be    131072 words long.
 Raffenetti 1 integral format.
 Two-electron integral symmetry is turned on.
 One-electron integrals computed using PRISM.
 NBasis=   110 RedAO= T EigKep=  4.78D-03  NBF=   110
 NBsUse=   110 1.00D-06 EigRej= -1.00D+00 NBFU=   110
 Initial guess from the checkpoint file:  "1-4-butanediol-opt.chk"
 B after Tr=     0.000000   -0.000000    0.000000
         Rot=    0.999837    0.002392    0.016538    0.006783 Ang=   2.07 deg.
 ExpMin= 1.61D-01 ExpMax= 5.48D+03 ExpMxC= 8.25D+02 IAcc=1 IRadAn=         1 AccDes= 0.00D+00
 Harris functional with IExCor=  205 and IRadAn=       1 diagonalized for initial guess.
 HarFok:  IExCor=  205 AccDes= 0.00D+00 IRadAn=         1 IDoV= 1 UseB2=F ITyADJ=14
 ICtDFT=  3500011 ScaDFX=  1.000000  1.000000  1.000000  1.000000
 FoFCou: FMM=F IPFlag=           0 FMFlag=      100000 FMFlg1=           0
         NFxFlg=           0 DoJE=T BraDBF=F KetDBF=T FulRan=T
         wScrn=  0.000000 ICntrl=     500 IOpCl=  0 I1Cent=   200000004 NGrid=           0
         NMat0=    1 NMatS0=      1 NMatT0=    0 NMatD0=    1 NMtDS0=    0 NMtDT0=    0
 Petite list used in FoFCou.
 Keep R1 ints in memory in canonical form, NReq=19588985.
 Requested convergence on RMS density matrix=1.00D-08 within 128 cycles.
 Requested convergence on MAX density matrix=1.00D-06.
 Requested convergence on             energy=1.00D-06.
 No special actions if energy rises.
 SCF Done:  E(RHF) =  -306.989981369     A.U. after   13 cycles
            NFock= 13  Conv=0.25D-08     -V/T= 2.0002
 Calling FoFJK, ICntrl=      2127 FMM=F ISym2X=0 I1Cent= 0 IOpClX= 0 NMat=1 NMatS=1 NMatT=0.
 ***** Axes restored to original set *****
 -------------------------------------------------------------------
 Center     Atomic                   Forces (Hartrees/Bohr)
 Number     Number              X              Y              Z
 -------------------------------------------------------------------
      1        6           0.001755298    0.002341303    0.001449569
      2        6           0.006454924    0.001029084    0.001253011
      3        8          -0.033451252    0.011091772    0.005840547
      4        6          -0.001345908    0.003773268   -0.001919642
      5        6          -0.006302491   -0.002156067    0.001081420
      6        8           0.004581950   -0.008994093   -0.015680197
      7        1          -0.003603464   -0.005878818   -0.001426387
      8        1          -0.002201412    0.000921248    0.006532302
      9        1          -0.008316034   -0.000515619   -0.000223662
     10        1           0.001238930   -0.005199328   -0.009246925
     11        1           0.019335418   -0.000177824   -0.001790895
     12        1           0.002544615   -0.002388308   -0.006727914
     13        1           0.001582204   -0.004833545    0.003478517
     14        1           0.007932998   -0.003844239    0.000967894
     15        1          -0.003117765    0.000008439    0.008702028
     16        1           0.012911990    0.014822729    0.007710337
 -------------------------------------------------------------------
 Cartesian Forces:  Max     0.033451252 RMS     0.008046855

 GradGradGradGradGradGradGradGradGradGradGradGradGradGradGradGradGradGrad
 Berny optimization.
 Using GEDIIS/GDIIS optimizer.
 FormGI is forming the generalized inverse of G from B-inverse, IUseBI=4.
 Internal  Forces:  Max     0.038002787 RMS     0.010325238
 Search for a local minimum.
 Step number   3 out of a maximum of   84 on scan point     1 out of    37
 All quantities printed in internal units (Hartrees-Bohrs-Radians)
 Mixed Optimization -- RFO/linear search
 Update second derivatives using D2CorX and points    1    3    2
 DE=  3.64D-03 DEPred=-3.32D-03 R=-1.10D+00
 Trust test=-1.10D+00 RLast= 5.97D-01 DXMaxT set to 1.50D-01
 ITU= -1  0  0
 Use linear search instead of GDIIS.
     Eigenvalues ---    0.00345   0.00709   0.01188   0.01470   0.01519
     Eigenvalues ---    0.03085   0.04657   0.04706   0.04886   0.05735
     Eigenvalues ---    0.05812   0.06063   0.09011   0.09067   0.11280
     Eigenvalues ---    0.11503   0.11844   0.12706   0.13734   0.14090
     Eigenvalues ---    0.15644   0.16001   0.22011   0.22022   0.22064
     Eigenvalues ---    0.27784   0.28803   0.29615   0.31909   0.33332
     Eigenvalues ---    0.33682   0.33742   0.33778   0.33801   0.33848
     Eigenvalues ---    0.34055   0.38377   0.42644   0.48993   0.52724
     Eigenvalues ---    0.693431000.000001000.000001000.000001000.00000
     Eigenvalues --- 1000.000001000.000001000.000001000.000001000.00000
     Eigenvalues --- 1000.000001000.000001000.000001000.000001000.00000
     Eigenvalues --- 1000.000001000.000001000.000001000.000001000.00000
     Eigenvalues --- 1000.000001000.000001000.000001000.000001000.00000
     Eigenvalues --- 1000.000001000.000001000.000001000.000001000.00000
     Eigenvalues --- 1000.000001000.000001000.000001000.00000
 RFO step:  Lambda=-2.91815468D-03 EMin= 3.45061020D-03
 Quartic linear search produced a step of -0.59569.
 Iteration  1 RMS(Cart)=  0.08802535 RMS(Int)=  0.00154091
 Iteration  2 RMS(Cart)=  0.00250989 RMS(Int)=  0.00017306
 Iteration  3 RMS(Cart)=  0.00000470 RMS(Int)=  0.00017305
 Iteration  4 RMS(Cart)=  0.00000000 RMS(Int)=  0.00017305
 Iteration  1 RMS(Cart)=  0.00005992 RMS(Int)=  0.00003396
 Iteration  2 RMS(Cart)=  0.00003952 RMS(Int)=  0.00003758
 Iteration  3 RMS(Cart)=  0.00002607 RMS(Int)=  0.00004321
 Iteration  4 RMS(Cart)=  0.00001720 RMS(Int)=  0.00004785
 Iteration  5 RMS(Cart)=  0.00001134 RMS(Int)=  0.00005121
 Iteration  6 RMS(Cart)=  0.00000748 RMS(Int)=  0.00005353
 Iteration  7 RMS(Cart)=  0.00000493 RMS(Int)=  0.00005510
 Iteration  8 RMS(Cart)=  0.00000325 RMS(Int)=  0.00005614
 Iteration  9 RMS(Cart)=  0.00000215 RMS(Int)=  0.00005684
 Iteration 10 RMS(Cart)=  0.00000142 RMS(Int)=  0.00005731
 Iteration 11 RMS(Cart)=  0.00000093 RMS(Int)=  0.00005761
 Variable       Old X    -DE/DX   Delta X   Delta X   Delta X     New X
                                 (Linear)    (Quad)   (Total)
    R1        2.87369   0.01176   0.00944   0.00964   0.01908   2.89277
    R2        2.89050   0.01913   0.01050   0.01403   0.02452   2.91502
    R3        2.03856   0.00703   0.00959   0.00830   0.01789   2.05645
    R4        2.03839   0.00693   0.00951   0.00785   0.01736   2.05575
    R5        2.61763   0.00621   0.01364   0.00679   0.02043   2.63805
    R6        2.02677   0.00827   0.01104   0.00946   0.02050   2.04727
    R7        2.03565   0.01010   0.01306   0.01121   0.02427   2.05992
    R8        1.75630   0.01935   0.02338   0.01383   0.03721   1.79351
    R9        2.86513   0.01069   0.00721   0.00880   0.01601   2.88114
   R10        2.03688   0.00750   0.00992   0.00836   0.01828   2.05516
   R11        2.03844   0.00610   0.00920   0.00697   0.01617   2.05461
   R12        2.64392   0.01009   0.01950   0.00742   0.02692   2.67083
   R13        2.03075   0.00885   0.01089   0.01151   0.02240   2.05315
   R14        2.03228   0.00884   0.01104   0.01122   0.02226   2.05454
   R15        1.75747   0.02111   0.01957   0.01424   0.03381   1.79128
    A1        2.05043   0.03700   0.01558   0.02941   0.04491   2.09533
    A2        1.87886  -0.01117  -0.00712  -0.00544  -0.01218   1.86668
    A3        1.88166  -0.01100   0.00101  -0.00812  -0.00766   1.87400
    A4        1.87557  -0.01504  -0.01129  -0.01569  -0.02683   1.84874
    A5        1.90538  -0.00689   0.00443   0.00158   0.00575   1.91113
    A6        1.86372   0.00496  -0.00494  -0.00456  -0.00963   1.85408
    A7        1.98781   0.01587   0.00795   0.01427   0.02210   2.00991
    A8        1.89409  -0.00433  -0.00466  -0.00995  -0.01460   1.87949
    A9        1.92685  -0.00606  -0.00134  -0.00674  -0.00846   1.91838
   A10        1.85949  -0.00933  -0.01258  -0.01099  -0.02341   1.83608
   A11        1.91557   0.00170   0.01297   0.01608   0.02891   1.94448
   A12        1.87546   0.00127  -0.00400  -0.00423  -0.00830   1.86716
   A13        1.91228  -0.00118  -0.01567  -0.00029  -0.01596   1.89632
   A14        2.04200   0.03800   0.01833   0.03259   0.05082   2.09282
   A15        1.91404  -0.00663   0.00548   0.00134   0.00650   1.92054
   A16        1.88502  -0.01497  -0.01005  -0.01808  -0.02790   1.85712
   A17        1.87648  -0.01131   0.00160  -0.00851  -0.00757   1.86891
   A18        1.87611  -0.01247  -0.01254  -0.00663  -0.01874   1.85737
   A19        1.86224   0.00517  -0.00563  -0.00357  -0.00937   1.85287
   A20        1.91387   0.01729   0.00698   0.01700   0.02386   1.93772
   A21        1.90915  -0.00559  -0.00277  -0.01744  -0.02022   1.88893
   A22        1.93590  -0.00473   0.00223  -0.00746  -0.00569   1.93021
   A23        1.90985  -0.01035  -0.01658  -0.00451  -0.02090   1.88894
   A24        1.90607   0.00123   0.01031   0.01871   0.02886   1.93493
   A25        1.88871   0.00175  -0.00084  -0.00662  -0.00759   1.88112
   A26        1.92242   0.00036  -0.00912   0.00323  -0.00590   1.91652
    D1       -1.15200  -0.01245  -0.10684   0.10299  -0.00379  -1.15578
    D2        3.06336  -0.00760  -0.09272   0.11477   0.02221   3.08556
    D3        1.01216  -0.00310  -0.08442   0.12966   0.04527   1.05743
    D4        3.01301  -0.00912  -0.09676   0.10779   0.01100   3.02401
    D5        0.94518  -0.00428  -0.08264   0.11958   0.03699   0.98217
    D6       -1.10602   0.00022  -0.07434   0.13446   0.06006  -1.04596
    D7        1.00822  -0.00379  -0.08800   0.11988   0.03179   1.04001
    D8       -1.05961   0.00106  -0.07388   0.13167   0.05779  -1.00183
    D9       -3.11081   0.00556  -0.06559   0.14656   0.08085  -3.02996
   D10        1.18771   0.00649   0.00000   0.00000   0.00000   1.18771
   D11       -0.95443  -0.00128  -0.02151  -0.01415  -0.03577  -0.99020
   D12       -2.97747   0.00443  -0.01214  -0.00059  -0.01283  -2.99030
   D13       -2.97559   0.00510  -0.00798   0.00044  -0.00760  -2.98319
   D14        1.16546  -0.00267  -0.02949  -0.01370  -0.04337   1.12209
   D15       -0.85758   0.00304  -0.02013  -0.00014  -0.02043  -0.87801
   D16       -0.96049  -0.00065  -0.01754  -0.01250  -0.03012  -0.99060
   D17       -3.10263  -0.00842  -0.03905  -0.02665  -0.06589   3.11467
   D18        1.15751  -0.00271  -0.02969  -0.01308  -0.04294   1.11457
   D19        1.18870   0.00161   0.00210   0.00702   0.00939   1.19808
   D20       -3.00697  -0.00069  -0.00757  -0.00435  -0.01187  -3.01885
   D21       -0.98153  -0.00343  -0.01276  -0.00718  -0.02026  -1.00179
   D22       -1.23038  -0.01318  -0.09696   0.05914  -0.03779  -1.26817
   D23        2.95830  -0.00764  -0.07919   0.06499  -0.01404   2.94427
   D24        0.87627  -0.00333  -0.07777   0.08887   0.01111   0.88738
   D25        0.93100  -0.00394  -0.07425   0.07743   0.00307   0.93406
   D26       -1.16350   0.00160  -0.05648   0.08328   0.02682  -1.13669
   D27        3.03765   0.00591  -0.05506   0.10716   0.05196   3.08961
   D28        2.93014  -0.00962  -0.08602   0.06586  -0.02018   2.90996
   D29        0.83565  -0.00408  -0.06825   0.07171   0.00357   0.83922
   D30       -1.24639   0.00023  -0.06683   0.09560   0.02872  -1.21767
   D31        3.12969   0.00305   0.00465   0.02669   0.03164  -3.12186
   D32       -1.05943   0.00043  -0.00469   0.01295   0.00831  -1.05112
   D33        1.00505  -0.00279  -0.00950   0.01329   0.00343   1.00849
         Item               Value     Threshold  Converged?
 Maximum Force            0.037966     0.000450     NO 
 RMS     Force            0.010314     0.000300     NO 
 Maximum Displacement     0.384977     0.001800     NO 
 RMS     Displacement     0.088901     0.001200     NO 
 Predicted change in Energy=-2.440750D-03
 GradGradGradGradGradGradGradGradGradGradGradGradGradGradGradGradGradGrad

                          Input orientation:                          
 ---------------------------------------------------------------------
 Center     Atomic      Atomic             Coordinates (Angstroms)
 Number     Number       Type             X           Y           Z
 ---------------------------------------------------------------------
      1          6           0        1.619801    1.271417    1.928437
      2          6           0        1.074839    2.376188    1.019695
      3          8           0        1.464903    3.672230    1.361652
      4          6           0        3.133649    0.977377    1.964476
      5          6           0        4.093437    2.003131    2.557047
      6          8           0        4.240333    3.115669    1.697847
      7          1           0        1.142576    0.343123    1.620598
      8          1           0        1.265478    1.475745    2.936469
      9          1           0       -0.004941    2.372001    1.107695
     10          1           0        1.310336    2.151167   -0.020565
     11          1           0        2.395017    3.762926    1.196035
     12          1           0        3.492047    0.745023    0.964322
     13          1           0        3.256119    0.068558    2.548571
     14          1           0        5.065649    1.532000    2.672270
     15          1           0        3.757535    2.316578    3.542419
     16          1           0        4.852921    3.733466    2.074131
 ---------------------------------------------------------------------
                    Distance matrix (angstroms):
                    1          2          3          4          5
     1  C    0.000000
     2  C    1.530789   0.000000
     3  O    2.471668   1.395997   0.000000
     4  C    1.542560   2.662326   3.226506   0.000000
     5  C    2.655077   3.408014   3.335274   1.524633   0.000000
     6  O    3.212729   3.320704   2.850579   2.422424   1.413345
     7  H    1.088226   2.121091   3.354683   2.117758   3.512854
     8  H    1.087854   2.126303   2.710049   2.164072   2.901630
     9  H    2.127132   1.083368   1.978770   3.539745   4.362727
    10  H    2.160633   1.090062   2.061079   2.939837   3.796268
    11  H    2.710164   1.922760   0.949087   2.982509   2.798904
    12  H    2.170694   2.916618   3.582698   1.087542   2.116903
    13  H    2.123434   3.524287   4.195674   1.087252   2.108020
    14  H    3.534835   4.401161   4.389040   2.131010   1.086479
    15  H    2.875275   3.683008   3.442339   2.161620   1.087216
    16  H    4.066445   4.150655   3.462663   3.250222   1.950405
                    6          7          8          9         10
     6  O    0.000000
     7  H    4.158013   0.000000
     8  H    3.615702   1.740532   0.000000
     9  H    4.350135   2.386673   2.400344   0.000000
    10  H    3.531018   2.447566   3.033523   1.746910   0.000000
    11  H    2.018898   3.666593   3.088068   2.775297   2.292251
    12  H    2.591902   2.472294   3.062831   3.859604   2.776167
    13  H    3.313201   2.324560   2.468460   4.244583   3.837159
    14  H    2.034368   4.232014   3.809760   5.372558   4.662306
    15  H    2.067387   3.798148   2.698986   4.481872   4.325622
    16  H    0.947905   5.046461   4.325584   5.136770   4.409232
                   11         12         13         14         15
    11  H    0.000000
    12  H    3.219457   0.000000
    13  H    4.027307   1.738710   0.000000
    14  H    3.780023   2.452069   2.330529   0.000000
    15  H    3.074719   3.030983   2.508535   1.756100   0.000000
    16  H    2.610213   3.466185   4.025720   2.291173   2.315882
                   16
    16  H    0.000000
 Stoichiometry    C4H10O2
 Framework group  C1[X(C4H10O2)]
 Deg. of freedom    42
 Full point group                 C1      NOp   1
 Largest Abelian subgroup         C1      NOp   1
 Largest concise Abelian subgroup C1      NOp   1
                         Standard orientation:                         
 ---------------------------------------------------------------------
 Center     Atomic      Atomic             Coordinates (Angstroms)
 Number     Number       Type             X           Y           Z
 ---------------------------------------------------------------------
      1          6           0        0.821790    1.140517    0.204824
      2          6           0        1.712426   -0.020273   -0.245343
      3          8           0        1.362886   -1.270358    0.268385
      4          6           0       -0.655894    1.195836   -0.234360
      5          6           0       -1.646591    0.167053    0.299148
      6          8           0       -1.427638   -1.099738   -0.288086
      7          1           0        1.278820    2.054622   -0.169036
      8          1           0        0.880348    1.193007    1.289831
      9          1           0        2.712662    0.169469    0.125080
     10          1           0        1.774406   -0.040396   -1.333456
     11          1           0        0.536023   -1.535532   -0.114689
     12          1           0       -0.723296    1.171378   -1.319535
     13          1           0       -1.030512    2.170000    0.070244
     14          1           0       -2.649394    0.493824    0.038297
     15          1           0       -1.588563    0.106591    1.383129
     16          1           0       -2.062865   -1.720999    0.042135
 ---------------------------------------------------------------------
 Rotational constants (GHZ):      4.6749192      2.7344179      1.8878407
 Standard basis: 6-31G(d) (6D, 7F)
 There are   110 symmetry adapted cartesian basis functions of A   symmetry.
 There are   110 symmetry adapted basis functions of A   symmetry.
   110 basis functions,   208 primitive gaussians,   110 cartesian basis functions
    25 alpha electrons       25 beta electrons
       nuclear repulsion energy       261.6903994694 Hartrees.
 NAtoms=   16 NActive=   16 NUniq=   16 SFac= 1.00D+00 NAtFMM=   60 NAOKFM=F Big=F
 Integral buffers will be    131072 words long.
 Raffenetti 1 integral format.
 Two-electron integral symmetry is turned on.
 One-electron integrals computed using PRISM.
 NBasis=   110 RedAO= T EigKep=  4.89D-03  NBF=   110
 NBsUse=   110 1.00D-06 EigRej= -1.00D+00 NBFU=   110
[...]
           D24         50.09487  66.25589  61.90776  57.66605  53.82168
           D25         51.36813  63.10149  58.67839  54.70257  51.35772
           D26        -67.84547 -55.12671 -59.38332 -63.25414 -66.53325
           D27        173.37101-171.66088-175.94250-179.85668 176.83209
           D28        164.74441 176.14368 172.10297 168.58529 165.68722
           D29         45.53081  57.91548  54.04127  50.62857  47.79625
           D30        -73.25271 -58.61869 -62.51791 -65.97396 -68.83841
           D31        168.14622  92.58010  89.63742  85.85309  80.95841
           D32        -73.41935-148.94378-151.88670-155.53348-160.19234
           D33         45.94253 -32.92818 -35.92356 -39.60232 -44.30975
                          36        37
     Eigenvalues --  -306.99523-306.99535
           R1           1.52607   1.52571
           R2           1.53597   1.53583
           R3           1.08769   1.08798
           R4           1.09078   1.09022
           R5           1.41217   1.41273
           R6           1.08666   1.08660
           R7           1.08173   1.08185
           R8           0.94749   0.94756
           R9           1.52930   1.52971
           R10          1.08731   1.08709
           R11          1.08817   1.08824
           R12          1.39653   1.39609
           R13          1.08328   1.08302
           R14          1.09032   1.09106
           R15          0.94983   0.95044
           A1         116.99205 116.53689
           A2         107.52543 107.12451
           A3         108.28185 108.88047
           A4         108.07185 108.04974
           A5         109.56553 109.77558
           A6         105.83275 105.92959
           A7         113.57347 113.48081
           A8         109.64064 109.83177
           A9         110.80213 110.64695
           A10        109.34808 109.35814
           A11        105.67968 105.72616
           A12        107.57073 107.56817
           A13        109.75029 109.64842
           A14        117.42765 116.89583
           A15        109.33334 109.78116
           A16        107.44851 107.26951
           A17        107.50206 108.16571
           A18        108.04838 107.62950
           A19        106.58432 106.62245
           A20        113.91444 114.07675
           A21        108.34525 108.61210
           A22        110.15114 109.82133
           A23        106.14245 105.93059
           A24        111.01210 111.12544
           A25        106.92625 106.93073
           A26        108.53029 108.94678
           D1         -71.84727 -72.08328
           D2         165.50152 165.17494
           D3          46.91628  46.56852
           D4         166.42230 166.83499
           D5          43.77109  44.09321
           D6         -74.81415 -74.51322
           D7          52.49075  52.69985
           D8         -70.16046 -70.04193
           D9         171.25429 171.35164
           D10         58.05064  68.05067
           D11        -64.71151 -55.58639
           D12        179.98908-171.06429
           D13        179.49578-171.35886
           D14         56.73364  65.00408
           D15        -58.56578 -50.47382
           D16        -65.63518 -56.27659
           D17        171.60267-179.91365
           D18         56.30326  64.60845
           D19        -65.26654 -68.20733
           D20         57.54579  54.79535
           D21        173.06953 170.34528
           D22        -74.86854 -77.48420
           D23        167.26171 164.63076
           D24         50.61990  48.01371
           D25         48.82458  46.97483
           D26        -69.04517 -70.91021
           D27        174.31302 172.47275
           D28        163.50289 161.82065
           D29         45.63314  43.93561
           D30        -71.00868 -72.68144
           D31         74.62332  66.56749
           D32       -166.24753-174.02117
           D33        -50.40782 -58.23896
                          Input orientation:                          
 ---------------------------------------------------------------------
 Center     Atomic      Atomic             Coordinates (Angstroms)
 Number     Number       Type             X           Y           Z
 ---------------------------------------------------------------------
      1          6           0        2.157559    2.883454    1.291018
      2          6           0        1.041239    2.143785    2.022125
      3          8           0        1.129644    0.738300    1.909836
      4          6           0        3.557280    2.806484    1.918430
      5          6           0        4.249136    1.442279    1.901501
      6          8           0        3.778731    0.553054    2.869527
      7          1           0        1.868047    3.930978    1.240223
      8          1           0        2.196039    2.533284    0.259277
      9          1           0        0.075082    2.474700    1.650995
     10          1           0        1.073813    2.355855    3.082489
     11          1           0        0.957373    0.478703    1.014965
     12          1           0        3.518723    3.154193    2.947693
     13          1           0        4.192653    3.504996    1.377461
     14          1           0        5.301087    1.585527    2.115565
     15          1           0        4.184452    1.007013    0.903112
     16          1           0        2.878841    0.323997    2.666882
 ---------------------------------------------------------------------
                    Distance matrix (angstroms):
                    1          2          3          4          5
     1  C    0.000000
     2  C    1.525712   0.000000
     3  O    2.457891   1.412732   0.000000
     4  C    1.535834   2.603917   3.189180   0.000000
     5  C    2.612349   3.285919   3.197950   1.529708   0.000000
     6  O    3.248177   3.277556   2.823647   2.455926   1.396093
     7  H    1.087981   2.118735   3.344669   2.139616   3.507206
     8  H    1.090225   2.143106   2.661486   2.163424   2.846471
     9  H    2.152527   1.086601   2.047970   3.508176   4.307130
    10  H    2.159221   1.081854   1.998679   2.779516   3.508851
    11  H    2.701755   1.947794   0.947555   3.604764   3.542616
    12  H    2.161165   2.831170   3.552658   1.087093   2.135104
    13  H    2.129646   3.492835   4.161736   1.088239   2.128992
    14  H    3.499465   4.297288   4.261578   2.137863   1.083025
    15  H    2.789229   3.524801   3.227622   2.159238   1.091064
    16  H    2.994006   2.665356   1.950502   2.680149   1.927192
                    6          7          8          9         10
     6  O    0.000000
     7  H    4.209004   0.000000
     8  H    3.638630   1.738787   0.000000
     9  H    4.346787   2.346104   2.537473   0.000000
    10  H    3.257611   2.550640   3.043254   1.749503   0.000000
    11  H    3.377126   3.577467   2.515285   2.273098   2.794980
    12  H    2.615271   2.498715   3.059836   3.741897   2.575480
    13  H    3.333399   2.367295   2.486167   4.253319   3.735614
    14  H    1.987970   4.248897   3.739702   5.321426   4.404338
    15  H    2.058512   3.745523   2.588013   4.427228   4.030525
    16  H    0.950438   4.008412   3.338222   3.676766   2.749419
                   11         12         13         14         15
    11  H    0.000000
    12  H    4.177822   0.000000
    13  H    4.444872   1.744383   0.000000
    14  H    4.615650   2.515944   2.336190   0.000000
    15  H    3.271950   3.038731   2.542635   1.746881   0.000000
    16  H    2.538661   2.915186   3.675250   2.786159   2.298263
                   16
    16  H    0.000000
 Stoichiometry    C4H10O2
 Framework group  C1[X(C4H10O2)]
 Deg. of freedom    42
 Full point group                 C1      NOp   1
 Largest Abelian subgroup         C1      NOp   1
 Largest concise Abelian subgroup C1      NOp   1
                         Standard orientation:                         
 ---------------------------------------------------------------------
 Center     Atomic      Atomic             Coordinates (Angstroms)
 Number     Number       Type             X           Y           Z
 ---------------------------------------------------------------------
      1          6           0        0.722812    1.184884    0.212549
      2          6           0        1.599471    0.071440   -0.352701
      3          8           0        1.341642   -1.193817    0.220414
      4          6           0       -0.756055    1.171012   -0.201635
      5          6           0       -1.613707    0.022772    0.333139
      6          8           0       -1.426502   -1.187767   -0.336654
      7          1           0        1.155011    2.129030   -0.112251
      8          1           0        0.801410    1.178172    1.299916
      9          1           0        2.647832    0.322095   -0.215545
     10          1           0        1.428255   -0.047141   -1.414318
     11          1           0        1.616907   -1.194961    1.127105
     12          1           0       -0.834515    1.176162   -1.285880
     13          1           0       -1.197908    2.102443    0.146887
     14          1           0       -2.657314    0.278905    0.198138
     15          1           0       -1.450929   -0.092086    1.405861
     16          1           0       -0.544993   -1.500603   -0.168107
 ---------------------------------------------------------------------
 Rotational constants (GHZ):      4.6171458      2.8539204      1.9732811

 **********************************************************************

            Population analysis using the SCF density.

 **********************************************************************

 Orbital symmetries:
       Occupied  (A) (A) (A) (A) (A) (A) (A) (A) (A) (A) (A) (A)
                 (A) (A) (A) (A) (A) (A) (A) (A) (A) (A) (A) (A)
                 (A)
       Virtual   (A) (A) (A) (A) (A) (A) (A) (A) (A) (A) (A) (A)
                 (A) (A) (A) (A) (A) (A) (A) (A) (A) (A) (A) (A)
                 (A) (A) (A) (A) (A) (A) (A) (A) (A) (A) (A) (A)
                 (A) (A) (A) (A) (A) (A) (A) (A) (A) (A) (A) (A)
                 (A) (A) (A) (A) (A) (A) (A) (A) (A) (A) (A) (A)
                 (A) (A) (A) (A) (A) (A) (A) (A) (A) (A) (A) (A)
                 (A) (A) (A) (A) (A) (A) (A) (A) (A) (A) (A) (A)
                 (A)
 The electronic state is 1-A.
 Alpha  occ. eigenvalues --  -20.57967 -20.52750 -11.28327 -11.25897 -11.22994
 Alpha  occ. eigenvalues --  -11.21798  -1.38415  -1.33964  -1.06920  -0.97061
 Alpha  occ. eigenvalues --   -0.87483  -0.80338  -0.70941  -0.67309  -0.64527
 Alpha  occ. eigenvalues --   -0.64200  -0.59501  -0.57979  -0.55873  -0.52298
 Alpha  occ. eigenvalues --   -0.50730  -0.48595  -0.45527  -0.44709  -0.41222
 Alpha virt. eigenvalues --    0.20416   0.24746   0.26807   0.28459   0.29556
 Alpha virt. eigenvalues --    0.31622   0.32157   0.32541   0.33690   0.36895
 Alpha virt. eigenvalues --    0.38664   0.40985   0.43439   0.47780   0.48322
 Alpha virt. eigenvalues --    0.72643   0.73314   0.73444   0.77542   0.79948
 Alpha virt. eigenvalues --    0.83719   0.89799   0.91164   0.94011   0.99427
 Alpha virt. eigenvalues --    1.03732   1.07446   1.09847   1.11634   1.12184
 Alpha virt. eigenvalues --    1.14146   1.16045   1.16396   1.19068   1.20693
 Alpha virt. eigenvalues --    1.22111   1.23093   1.24665   1.27486   1.33662
 Alpha virt. eigenvalues --    1.35058   1.36672   1.43854   1.49812   1.56001
 Alpha virt. eigenvalues --    1.62149   1.70947   1.77763   1.79668   1.84096
 Alpha virt. eigenvalues --    1.88488   1.93854   1.94455   2.03142   2.04811
 Alpha virt. eigenvalues --    2.09818   2.13714   2.19200   2.24768   2.25997
 Alpha virt. eigenvalues --    2.32219   2.40818   2.44498   2.48432   2.52711
 Alpha virt. eigenvalues --    2.57559   2.62042   2.67203   2.74138   2.75587
 Alpha virt. eigenvalues --    2.77172   2.81439   2.84749   2.94399   3.01446
 Alpha virt. eigenvalues --    3.04167   3.06224   3.18862   3.24321   4.24186
 Alpha virt. eigenvalues --    4.28189   4.56939   4.71471   4.88341   4.96309
          Condensed to atoms (all electrons):
               1          2          3          4          5          6
     1  C    5.179845   0.334173  -0.051239   0.335606  -0.044820  -0.001130
     2  C    0.334173   4.818794   0.189600  -0.045661  -0.004442   0.006667
     3  O   -0.051239   0.189600   8.411957   0.000196   0.005773  -0.014151
     4  C    0.335606  -0.045661   0.000196   5.171581   0.342767  -0.055493
     5  C   -0.044820  -0.004442   0.005773   0.342767   4.730966   0.234968
     6  O   -0.001130   0.006667  -0.014151  -0.055493   0.234968   8.427862
     7  H    0.392533  -0.039078   0.003243  -0.039236   0.004112  -0.000098
     8  H    0.387876  -0.040942  -0.001043  -0.041720  -0.002881   0.000018
     9  H   -0.052901   0.408188  -0.035504   0.004063  -0.000031  -0.000004
    10  H   -0.047257   0.406656  -0.036653  -0.004121   0.000246   0.000471
    11  H   -0.002480  -0.022585   0.259554  -0.000368  -0.000029   0.000583
    12  H   -0.043179  -0.003340  -0.000030   0.390784  -0.037878   0.002177
    13  H   -0.043363   0.004771  -0.000094   0.388392  -0.037354   0.003342
    14  H    0.004430  -0.000076   0.000038  -0.048430   0.415485  -0.039836
    15  H   -0.007234   0.000712   0.000205  -0.058914   0.394338  -0.039959
    16  H    0.001802  -0.004662   0.026520  -0.000686  -0.024222   0.252461
               7          8          9         10         11         12
     1  C    0.392533   0.387876  -0.052901  -0.047257  -0.002480  -0.043179
     2  C   -0.039078  -0.040942   0.408188   0.406656  -0.022585  -0.003340
     3  O    0.003243  -0.001043  -0.035504  -0.036653   0.259554  -0.000030
     4  C   -0.039236  -0.041720   0.004063  -0.004121  -0.000368   0.390784
     5  C    0.004112  -0.002881  -0.000031   0.000246  -0.000029  -0.037878
     6  O   -0.000098   0.000018  -0.000004   0.000471   0.000583   0.002177
     7  H    0.547551  -0.026470  -0.001459   0.000684  -0.000076  -0.001822
     8  H   -0.026470   0.565619  -0.002511   0.004354   0.003656   0.004274
     9  H   -0.001459  -0.002511   0.560631  -0.032532  -0.004957  -0.000070
    10  H    0.000684   0.004354  -0.032532   0.516456   0.005413   0.003019
    11  H   -0.000076   0.003656  -0.004957   0.005413   0.317401   0.000026
    12  H   -0.001822   0.004274  -0.000070   0.003019   0.000026   0.536129
    13  H   -0.005759  -0.002070  -0.000092  -0.000060  -0.000003  -0.024829
    14  H   -0.000090  -0.000088   0.000004  -0.000011   0.000003  -0.003229
    15  H   -0.000084   0.003431  -0.000002   0.000063   0.000087   0.005333
    16  H   -0.000040  -0.000055   0.000462  -0.001298  -0.001257  -0.000136
              13         14         15         16
     1  C   -0.043363   0.004430  -0.007234   0.001802
     2  C    0.004771  -0.000076   0.000712  -0.004662
     3  O   -0.000094   0.000038   0.000205   0.026520
     4  C    0.388392  -0.048430  -0.058914  -0.000686
     5  C   -0.037354   0.415485   0.394338  -0.024222
     6  O    0.003342  -0.039836  -0.039959   0.252461
     7  H   -0.005759  -0.000090  -0.000084  -0.000040
     8  H   -0.002070  -0.000088   0.003431  -0.000055
     9  H   -0.000092   0.000004  -0.000002   0.000462
    10  H   -0.000060  -0.000011   0.000063  -0.001298
    11  H   -0.000003   0.000003   0.000087  -0.001257
    12  H   -0.024829  -0.003229   0.005333  -0.000136
    13  H    0.560496  -0.002640   0.002314  -0.000159
    14  H   -0.002640   0.546009  -0.039245   0.004909
    15  H    0.002314  -0.039245   0.621094  -0.004067
    16  H   -0.000159   0.004909  -0.004067   0.262512
 Mulliken charges:
               1
     1  C   -0.342662
     2  C   -0.008776
     3  O   -0.758373
     4  C   -0.338760
     5  C    0.023003
     6  O   -0.777879
     7  H    0.166089
     8  H    0.148553
     9  H    0.156714
    10  H    0.184569
    11  H    0.445032
    12  H    0.172770
    13  H    0.157108
    14  H    0.162769
    15  H    0.121926
    16  H    0.487917
 Sum of Mulliken charges =  -0.00000
 Mulliken charges with hydrogens summed into heavy atoms:
               1
     1  C   -0.028020
     2  C    0.332508
     3  O   -0.313341
     4  C   -0.008883
     5  C    0.307698
     6  O   -0.289962
 Electronic spatial extent (au):  <R**2>=            658.7259
 Charge=              0.0000 electrons
 Dipole moment (field-independent basis, Debye):
    X=              2.4292    Y=              2.3227    Z=              1.7672  Tot=              3.7972
 Quadrupole moment (field-independent basis, Debye-Ang):
   XX=            -38.5183   YY=            -41.1919   ZZ=            -35.9365
   XY=             -2.7556   XZ=              0.2820   YZ=             -2.7609
 Traceless Quadrupole moment (field-independent basis, Debye-Ang):
   XX=              0.0306   YY=             -2.6430   ZZ=              2.6124
   XY=             -2.7556   XZ=              0.2820   YZ=             -2.7609
 Octapole moment (field-independent basis, Debye-Ang**2):
  XXX=              8.7402  YYY=             -6.5480  ZZZ=              2.8289  XYY=              3.4053
  XXY=              5.3601  XXZ=              6.1701  XZZ=              6.1207  YZZ=             -5.8707
  YYZ=              3.1425  XYZ=             -1.6742
 Hexadecapole moment (field-independent basis, Debye-Ang**3):
 XXXX=           -447.2333 YYYY=           -282.6869 ZZZZ=            -81.2022 XXXY=            -12.7710
 XXXZ=              7.9579 YYYX=             -3.6280 YYYZ=             -4.7331 ZZZX=              7.9201
 ZZZY=             -5.5284 XXYY=           -136.6862 XXZZ=            -86.7819 YYZZ=            -59.2922
 XXYZ=             -9.1713 YYXZ=              1.9373 ZZXY=             -6.8852
 N-N= 2.639687412479D+02 E-N=-1.248981742183D+03  KE= 3.066000570308D+02
 1\1\GINC-GTX1080DELTA\Scan\RHF\6-31G(d)\C4H10O2\MVEROT\18-Apr-2022\0\\
 # hf/6-31G* Opt=modredundant\\Optimisation de geometrie\\0,1\C,2.15755
 93402,2.8834542129,1.2910184529\C,1.0412394198,2.1437849923,2.02212463
 15\O,1.1296442213,0.7383002212,1.9098356063\C,3.5572799963,2.806483694
 6,1.9184299791\C,4.2491361522,1.4422789908,1.9015013736\O,3.7787309134
 ,0.5530536029,2.8695265559\H,1.8680473038,3.9309777685,1.2402230271\H,
 2.1960390119,2.5332839064,0.2592772005\H,0.0750823878,2.474699502,1.65
 09951586\H,1.0738127394,2.3558553016,3.082488938\H,0.9573734779,0.4787
 026463,1.014965421\H,3.5187225303,3.1541930263,2.9476927302\H,4.192653
 1635,3.504995551,1.3774611686\H,5.3010866144,1.5855267693,2.1155649597
 \H,4.1844516312,1.0070125993,0.9031123499\H,2.8788410967,0.3239972145,
 2.6668824472\\Version=AM64L-G09RevD.01\State=1-A\HF=-306.9955959,-306.
 9953421,-306.9945319,-306.9933935,-306.9920931,-306.9909735,-306.99015
 6,-306.9901136,-306.9907899,-306.9917037,-306.9924178,-306.9926772,-30
 6.9923931,-306.9916087,-306.9904839,-306.9892902,-306.9883671,-306.988
 0089,-306.9883329,-306.989204,-306.9902773,-306.9911621,-306.9916973,-
 306.9920076,-306.9919749,-306.991198,-306.9896349,-306.9876352,-306.98
 56826,-306.9842391,-306.983678,-306.9869371,-306.9896774,-306.992206,-
 306.9941452,-306.995226,-306.9953501\RMSD=6.824e-09,5.683e-09,4.278e-0
 9,6.023e-09,4.903e-09,6.198e-09,5.027e-09,9.913e-09,5.571e-09,5.034e-0
 9,4.471e-09,6.717e-09,3.576e-09,3.091e-09,7.098e-09,2.961e-09,3.774e-0
 9,5.673e-09,4.566e-09,3.143e-09,5.796e-09,5.706e-09,2.368e-09,8.673e-0
 9,2.165e-09,7.472e-09,5.420e-09,8.940e-09,6.791e-09,4.628e-09,6.301e-0
 9,5.640e-09,6.222e-09,2.122e-09,6.276e-09,6.435e-09,6.988e-09\PG=C01 [
 X(C4H10O2)]\\@


 TERRY FORSTER, PORTLY ATLANTA BRAVES RELIEVER,
 ANNOUNCING THAT HE WAS GOING TO A FAT FARM:
 "A WAIST IS A TERRIBLE THING TO MIND."
 Job cpu time:       0 days  0 hours 12 minutes 30.1 seconds.
 File lengths (MBytes):  RWF=    137 Int=      0 D2E=      0 Chk=      6 Scr=      2
 Normal termination of Gaussian 09 at Mon Apr 18 01:09:37 2022.
