 Entering Gaussian System, Link 0=g09
 Input=/scratch/mverot/anthracene-1-8-opt/anthracene-1-8-opt.com
 Output=/scratch/mverot/anthracene-1-8-opt/anthracene-1-8-opt.log
 Initial command:
 /opt/g09/l1.exe "/scratch/mverot/anthracene-1-8-opt/Gau-2804273.inp" -scrdir="/scratch/mverot/anthracene-1-8-opt/"
 Entering Link 1 = /opt/g09/l1.exe PID=   2804275.
  
 Copyright (c) 1988,1990,1992,1993,1995,1998,2003,2009,2013,
            Gaussian, Inc.  All Rights Reserved.
  
 This is part of the Gaussian(R) 09 program.  It is based on
 the Gaussian(R) 03 system (copyright 2003, Gaussian, Inc.),
 the Gaussian(R) 98 system (copyright 1998, Gaussian, Inc.),
 the Gaussian(R) 94 system (copyright 1995, Gaussian, Inc.),
 the Gaussian 92(TM) system (copyright 1992, Gaussian, Inc.),
 the Gaussian 90(TM) system (copyright 1990, Gaussian, Inc.),
 the Gaussian 88(TM) system (copyright 1988, Gaussian, Inc.),
 the Gaussian 86(TM) system (copyright 1986, Carnegie Mellon
 University), and the Gaussian 82(TM) system (copyright 1983,
 Carnegie Mellon University). Gaussian is a federally registered
 trademark of Gaussian, Inc.
  
 This software contains proprietary and confidential information,
 including trade secrets, belonging to Gaussian, Inc.
  
 This software is provided under written license and may be
 used, copied, transmitted, or stored only in accord with that
 written license.
  
 The following legend is applicable only to US Government
 contracts under FAR:
  
                    RESTRICTED RIGHTS LEGEND
  
 Use, reproduction and disclosure by the US Government is
 subject to restrictions as set forth in subparagraphs (a)
 and (c) of the Commercial Computer Software - Restricted
 Rights clause in FAR 52.227-19.
  
 Gaussian, Inc.
 340 Quinnipiac St., Bldg. 40, Wallingford CT 06492
  
  
 ---------------------------------------------------------------
 Warning -- This program may not be used in any manner that
 competes with the business of Gaussian, Inc. or will provide
 assistance to any competitor of Gaussian, Inc.  The licensee
 of this program is prohibited from giving any competitor of
 Gaussian, Inc. access to this program.  By using this program,
 the user acknowledges that Gaussian, Inc. is engaged in the
 business of creating and licensing software in the field of
 computational chemistry and represents and warrants to the
 licensee that it is not a competitor of Gaussian, Inc. and that
 it will not use this program in any manner prohibited above.
 ---------------------------------------------------------------
  

 Cite this work as:
 Gaussian 09, Revision D.01,
 M. J. Frisch, G. W. Trucks, H. B. Schlegel, G. E. Scuseria, 
 M. A. Robb, J. R. Cheeseman, G. Scalmani, V. Barone, B. Mennucci, 
 G. A. Petersson, H. Nakatsuji, M. Caricato, X. Li, H. P. Hratchian, 
 A. F. Izmaylov, J. Bloino, G. Zheng, J. L. Sonnenberg, M. Hada, 
 M. Ehara, K. Toyota, R. Fukuda, J. Hasegawa, M. Ishida, T. Nakajima, 
 Y. Honda, O. Kitao, H. Nakai, T. Vreven, J. A. Montgomery, Jr., 
 J. E. Peralta, F. Ogliaro, M. Bearpark, J. J. Heyd, E. Brothers, 
 K. N. Kudin, V. N. Staroverov, T. Keith, R. Kobayashi, J. Normand, 
 K. Raghavachari, A. Rendell, J. C. Burant, S. S. Iyengar, J. Tomasi, 
 M. Cossi, N. Rega, J. M. Millam, M. Klene, J. E. Knox, J. B. Cross, 
 V. Bakken, C. Adamo, J. Jaramillo, R. Gomperts, R. E. Stratmann, 
 O. Yazyev, A. J. Austin, R. Cammi, C. Pomelli, J. W. Ochterski, 
 R. L. Martin, K. Morokuma, V. G. Zakrzewski, G. A. Voth, 
 P. Salvador, J. J. Dannenberg, S. Dapprich, A. D. Daniels, 
 O. Farkas, J. B. Foresman, J. V. Ortiz, J. Cioslowski, 
 and D. J. Fox, Gaussian, Inc., Wallingford CT, 2013.
 
 ******************************************
 Gaussian 09:  AM64L-G09RevD.01 24-Apr-2013
                11-Apr-2022 
 ******************************************
 %chk=anthracene-1-8-opt
 ----------
 #n AM1 Opt
 ----------
 1/14=-1,18=20,19=15,26=1,38=1/1,3;
 2/9=110,12=2,17=6,18=5,40=1/2;
 3/5=2,16=1,25=1,41=700000,71=1/1,2,3;
 4/35=1/1;
 5/5=2,35=1,38=5/2;
 6/7=2,8=2,9=2,10=2,28=1/1;
 7//1,2,3,16;
 1/14=-1,18=20,19=15,26=1/3(2);
 2/9=110/2;
 99//99;
 2/9=110/2;
 3/5=2,16=1,25=1,41=700000,71=1,135=20/1,2,3;
 4/5=5,16=3,35=1/1;
 5/5=2,35=1,38=5/2;
 7//1,2,3,16;
 1/14=-1,18=20,19=15,26=1/3(-5);
 2/9=110/2;
 6/7=2,8=2,9=2,10=2,19=2,28=1/1;
 99/9=1/99;
 ---------------------
 Geometry optimization
 ---------------------
 Symbolic Z-matrix:
 Charge =  0 Multiplicity = 1
 C                    -0.00559   1.43267   0.00028 
 C                     1.27255   0.69724   0.00016 
 C                    -1.28311   0.69617   0.00011 
 O                    -0.00611   2.66303   0.00053 
 C                    -0.00439  -1.4438   -0.00035 
 C                    -1.2791   -0.69853  -0.00019 
 O                    -0.00388  -2.66901  -0.00064 
 C                     1.2697   -0.69746  -0.00015 
 C                     2.49602   1.38062   0.00036 
 C                    -2.48929  -1.40673  -0.00034 
 C                     2.48048  -1.40465  -0.00027 
 C                    -2.50716   1.37852   0.00025 
 C                     3.69994   0.6789    0.00024 
 C                     3.6933   -0.71501  -0.00007 
 C                    -3.71049   0.6758    0.0001 
 C                    -3.70269  -0.7181   -0.0002 
 H                     2.48292  -2.49382  -0.00051 
 H                     4.64299   1.22075   0.0004 
 H                     4.6327   -1.26345  -0.00016 
 H                    -4.64162  -1.26733  -0.00031 
 H                    -4.654     1.21686   0.00021 
 O                     2.5927    2.74594   0.00067 
 H                     1.68478   3.12197   0.00071 
 H                    -2.49082  -2.4959   -0.00057 
 O                    -2.60498   2.74377   0.00053 
 H                    -1.69737   3.12055   0.00061 
 

 GradGradGradGradGradGradGradGradGradGradGradGradGradGradGradGradGradGrad
 Berny optimization.
 Initialization pass.
                           ----------------------------
                           !    Initial Parameters    !
                           ! (Angstroms and Degrees)  !
 --------------------------                            --------------------------
 ! Name  Definition              Value          Derivative Info.                !
 --------------------------------------------------------------------------------
 ! R1    R(1,2)                  1.4746         estimate D2E/DX2                !
 ! R2    R(1,3)                  1.4746         estimate D2E/DX2                !
 ! R3    R(1,4)                  1.2304         estimate D2E/DX2                !
 ! R4    R(2,8)                  1.3947         estimate D2E/DX2                !
 ! R5    R(2,9)                  1.4014         estimate D2E/DX2                !
 ! R6    R(3,6)                  1.3947         estimate D2E/DX2                !
 ! R7    R(3,12)                 1.4014         estimate D2E/DX2                !
 ! R8    R(5,6)                  1.4766         estimate D2E/DX2                !
 ! R9    R(5,7)                  1.2252         estimate D2E/DX2                !
 ! R10   R(5,8)                  1.4766         estimate D2E/DX2                !
 ! R11   R(6,10)                 1.4022         estimate D2E/DX2                !
 ! R12   R(8,11)                 1.4022         estimate D2E/DX2                !
 ! R13   R(9,13)                 1.3935         estimate D2E/DX2                !
 ! R14   R(9,22)                 1.3687         estimate D2E/DX2                !
 ! R15   R(10,16)                1.3952         estimate D2E/DX2                !
 ! R16   R(10,24)                1.0892         estimate D2E/DX2                !
 ! R17   R(11,14)                1.3952         estimate D2E/DX2                !
 ! R18   R(11,17)                1.0892         estimate D2E/DX2                !
 ! R19   R(12,15)                1.3935         estimate D2E/DX2                !
 ! R20   R(12,25)                1.3687         estimate D2E/DX2                !
 ! R21   R(13,14)                1.3939         estimate D2E/DX2                !
 ! R22   R(13,18)                1.0876         estimate D2E/DX2                !
 ! R23   R(14,19)                1.0878         estimate D2E/DX2                !
 ! R24   R(15,16)                1.3939         estimate D2E/DX2                !
 ! R25   R(15,21)                1.0876         estimate D2E/DX2                !
 ! R26   R(16,20)                1.0878         estimate D2E/DX2                !
 ! R27   R(22,23)                0.9827         estimate D2E/DX2                !
 ! R28   R(25,26)                0.9827         estimate D2E/DX2                !
 ! A1    A(2,1,3)              120.1205         estimate D2E/DX2                !
 ! A2    A(2,1,4)              119.9399         estimate D2E/DX2                !
 ! A3    A(3,1,4)              119.9396         estimate D2E/DX2                !
 ! A4    A(1,2,8)              119.7986         estimate D2E/DX2                !
 ! A5    A(1,2,9)              120.8983         estimate D2E/DX2                !
 ! A6    A(8,2,9)              119.303          estimate D2E/DX2                !
 ! A7    A(1,3,6)              119.799          estimate D2E/DX2                !
 ! A8    A(1,3,12)             120.8986         estimate D2E/DX2                !
 ! A9    A(6,3,12)             119.3023         estimate D2E/DX2                !
 ! A10   A(6,5,7)              120.3369         estimate D2E/DX2                !
 ! A11   A(6,5,8)              119.3259         estimate D2E/DX2                !
 ! A12   A(7,5,8)              120.3372         estimate D2E/DX2                !
 ! A13   A(3,6,5)              120.4778         estimate D2E/DX2                !
 ! A14   A(3,6,10)             120.1713         estimate D2E/DX2                !
 ! A15   A(5,6,10)             119.3509         estimate D2E/DX2                !
 ! A16   A(2,8,5)              120.4781         estimate D2E/DX2                !
 ! A17   A(2,8,11)             120.1712         estimate D2E/DX2                !
 ! A18   A(5,8,11)             119.3507         estimate D2E/DX2                !
 ! A19   A(2,9,13)             120.5778         estimate D2E/DX2                !
 ! A20   A(2,9,22)             123.2364         estimate D2E/DX2                !
 ! A21   A(13,9,22)            116.1859         estimate D2E/DX2                !
 ! A22   A(6,10,16)            120.0881         estimate D2E/DX2                !
 ! A23   A(6,10,24)            120.4165         estimate D2E/DX2                !
 ! A24   A(16,10,24)           119.4953         estimate D2E/DX2                !
 ! A25   A(8,11,14)            120.0881         estimate D2E/DX2                !
 ! A26   A(8,11,17)            120.4166         estimate D2E/DX2                !
 ! A27   A(14,11,17)           119.4953         estimate D2E/DX2                !
 ! A28   A(3,12,15)            120.5783         estimate D2E/DX2                !
 ! A29   A(3,12,25)            123.2358         estimate D2E/DX2                !
 ! A30   A(15,12,25)           116.1858         estimate D2E/DX2                !
 ! A31   A(9,13,14)            119.9634         estimate D2E/DX2                !
 ! A32   A(9,13,18)            119.8832         estimate D2E/DX2                !
 ! A33   A(14,13,18)           120.1534         estimate D2E/DX2                !
 ! A34   A(11,14,13)           119.8966         estimate D2E/DX2                !
 ! A35   A(11,14,19)           120.0991         estimate D2E/DX2                !
 ! A36   A(13,14,19)           120.0043         estimate D2E/DX2                !
 ! A37   A(12,15,16)           119.9634         estimate D2E/DX2                !
 ! A38   A(12,15,21)           119.8836         estimate D2E/DX2                !
 ! A39   A(16,15,21)           120.1529         estimate D2E/DX2                !
 ! A40   A(10,16,15)           119.8964         estimate D2E/DX2                !
 ! A41   A(10,16,20)           120.0985         estimate D2E/DX2                !
 ! A42   A(15,16,20)           120.005          estimate D2E/DX2                !
 ! A43   A(9,22,23)            108.4473         estimate D2E/DX2                !
 ! A44   A(12,25,26)           108.4468         estimate D2E/DX2                !
 ! D1    D(3,1,2,8)              0.0017         estimate D2E/DX2                !
 ! D2    D(3,1,2,9)           -179.998          estimate D2E/DX2                !
 ! D3    D(4,1,2,8)           -179.9987         estimate D2E/DX2                !
 ! D4    D(4,1,2,9)              0.0016         estimate D2E/DX2                !
 ! D5    D(2,1,3,6)             -0.0012         estimate D2E/DX2                !
 ! D6    D(2,1,3,12)           179.9986         estimate D2E/DX2                !
 ! D7    D(4,1,3,6)            179.9992         estimate D2E/DX2                !
 ! D8    D(4,1,3,12)            -0.001          estimate D2E/DX2                !
 ! D9    D(1,2,8,5)             -0.0004         estimate D2E/DX2                !
 ! D10   D(1,2,8,11)           179.9998         estimate D2E/DX2                !
 ! D11   D(9,2,8,5)            179.9993         estimate D2E/DX2                !
 ! D12   D(9,2,8,11)            -0.0005         estimate D2E/DX2                !
 ! D13   D(1,2,9,13)          -179.9998         estimate D2E/DX2                !
 ! D14   D(1,2,9,22)            -0.0002         estimate D2E/DX2                !
 ! D15   D(8,2,9,13)             0.0005         estimate D2E/DX2                !
 ! D16   D(8,2,9,22)          -179.9999         estimate D2E/DX2                !
 ! D17   D(1,3,6,5)             -0.0005         estimate D2E/DX2                !
 ! D18   D(1,3,6,10)           179.9994         estimate D2E/DX2                !
 ! D19   D(12,3,6,5)           179.9997         estimate D2E/DX2                !
 ! D20   D(12,3,6,10)           -0.0004         estimate D2E/DX2                !
 ! D21   D(1,3,12,15)         -179.9994         estimate D2E/DX2                !
 ! D22   D(1,3,12,25)            0.0009         estimate D2E/DX2                !
 ! D23   D(6,3,12,15)            0.0004         estimate D2E/DX2                !
 ! D24   D(6,3,12,25)         -179.9993         estimate D2E/DX2                !
 ! D25   D(7,5,6,3)           -179.9986         estimate D2E/DX2                !
 ! D26   D(7,5,6,10)             0.0016         estimate D2E/DX2                !
 ! D27   D(8,5,6,3)              0.0017         estimate D2E/DX2                !
 ! D28   D(8,5,6,10)          -179.9981         estimate D2E/DX2                !
 ! D29   D(6,5,8,2)             -0.0013         estimate D2E/DX2                !
 ! D30   D(6,5,8,11)           179.9985         estimate D2E/DX2                !
 ! D31   D(7,5,8,2)            179.999          estimate D2E/DX2                !
 ! D32   D(7,5,8,11)            -0.0012         estimate D2E/DX2                !
 ! D33   D(3,6,10,16)            0.0005         estimate D2E/DX2                !
 ! D34   D(3,6,10,24)         -179.9997         estimate D2E/DX2                !
 ! D35   D(5,6,10,16)         -179.9996         estimate D2E/DX2                !
 ! D36   D(5,6,10,24)            0.0001         estimate D2E/DX2                !
 ! D37   D(2,8,11,14)            0.0005         estimate D2E/DX2                !
 ! D38   D(2,8,11,17)          179.9999         estimate D2E/DX2                !
 ! D39   D(5,8,11,14)         -179.9993         estimate D2E/DX2                !
 ! D40   D(5,8,11,17)            0.0001         estimate D2E/DX2                !
 ! D41   D(2,9,13,14)           -0.0005         estimate D2E/DX2                !
 ! D42   D(2,9,13,18)         -179.9999         estimate D2E/DX2                !
 ! D43   D(22,9,13,14)         179.9998         estimate D2E/DX2                !
 ! D44   D(22,9,13,18)           0.0005         estimate D2E/DX2                !
 ! D45   D(2,9,22,23)           -0.0006         estimate D2E/DX2                !
 ! D46   D(13,9,22,23)         179.999          estimate D2E/DX2                !
 ! D47   D(6,10,16,15)          -0.0005         estimate D2E/DX2                !
 ! D48   D(6,10,16,20)        -179.9996         estimate D2E/DX2                !
 ! D49   D(24,10,16,15)        179.9997         estimate D2E/DX2                !
 ! D50   D(24,10,16,20)          0.0006         estimate D2E/DX2                !
 ! D51   D(8,11,14,13)          -0.0004         estimate D2E/DX2                !
 ! D52   D(8,11,14,19)         179.9998         estimate D2E/DX2                !
 ! D53   D(17,11,14,13)       -179.9999         estimate D2E/DX2                !
 ! D54   D(17,11,14,19)          0.0004         estimate D2E/DX2                !
 ! D55   D(3,12,15,16)          -0.0004         estimate D2E/DX2                !
 ! D56   D(3,12,15,21)        -179.9999         estimate D2E/DX2                !
 ! D57   D(25,12,15,16)        179.9994         estimate D2E/DX2                !
 ! D58   D(25,12,15,21)         -0.0002         estimate D2E/DX2                !
 ! D59   D(3,12,25,26)          -0.0002         estimate D2E/DX2                !
 ! D60   D(15,12,25,26)       -179.9999         estimate D2E/DX2                !
 ! D61   D(9,13,14,11)           0.0005         estimate D2E/DX2                !
 ! D62   D(9,13,14,19)        -179.9998         estimate D2E/DX2                !
 ! D63   D(18,13,14,11)        179.9998         estimate D2E/DX2                !
 ! D64   D(18,13,14,19)         -0.0005         estimate D2E/DX2                !
 ! D65   D(12,15,16,10)          0.0004         estimate D2E/DX2                !
 ! D66   D(12,15,16,20)        179.9996         estimate D2E/DX2                !
 ! D67   D(21,15,16,10)        180.0            estimate D2E/DX2                !
 ! D68   D(21,15,16,20)         -0.0009         estimate D2E/DX2                !
 --------------------------------------------------------------------------------
 Trust Radius=3.00D-01 FncErr=1.00D-07 GrdErr=1.00D-07
 Number of steps in this run=    150 maximum allowed number of steps=    156.
 GradGradGradGradGradGradGradGradGradGradGradGradGradGradGradGradGradGrad

                          Input orientation:                          
 ---------------------------------------------------------------------
 Center     Atomic      Atomic             Coordinates (Angstroms)
 Number     Number       Type             X           Y           Z
 ---------------------------------------------------------------------
      1          6           0       -0.005590    1.432670    0.000280
      2          6           0        1.272550    0.697240    0.000160
      3          6           0       -1.283110    0.696170    0.000110
      4          8           0       -0.006110    2.663030    0.000530
      5          6           0       -0.004390   -1.443800   -0.000350
      6          6           0       -1.279100   -0.698530   -0.000190
      7          8           0       -0.003880   -2.669010   -0.000640
      8          6           0        1.269700   -0.697460   -0.000150
      9          6           0        2.496020    1.380620    0.000360
     10          6           0       -2.489290   -1.406730   -0.000340
     11          6           0        2.480480   -1.404650   -0.000270
     12          6           0       -2.507160    1.378520    0.000250
     13          6           0        3.699940    0.678900    0.000240
     14          6           0        3.693300   -0.715010   -0.000070
     15          6           0       -3.710490    0.675800    0.000100
     16          6           0       -3.702690   -0.718100   -0.000200
     17          1           0        2.482920   -2.493820   -0.000510
     18          1           0        4.642990    1.220750    0.000400
     19          1           0        4.632700   -1.263450   -0.000160
     20          1           0       -4.641620   -1.267330   -0.000310
     21          1           0       -4.654000    1.216860    0.000210
     22          8           0        2.592700    2.745940    0.000670
     23          1           0        1.684780    3.121970    0.000710
     24          1           0       -2.490820   -2.495900   -0.000570
     25          8           0       -2.604980    2.743770    0.000530
     26          1           0       -1.697370    3.120550    0.000610
 ---------------------------------------------------------------------
                    Distance matrix (angstroms):
                    1          2          3          4          5
     1  C    0.000000
     2  C    1.474618   0.000000
     3  C    1.474615   2.555660   0.000000
     4  O    1.230360   2.345059   2.345052   0.000000
     5  C    2.876470   2.492916   2.492909   4.106830   0.000000
     6  C    2.482708   2.908452   1.394706   3.594522   1.476588
     7  O    4.101680   3.600127   3.600120   5.332041   1.225210
     8  C    2.482704   1.394703   2.908443   3.594521   1.476594
     9  C    2.502151   1.401388   3.840611   2.811624   3.772188
    10  C    3.772394   4.310236   2.424265   4.767508   2.485176
    11  C    3.772390   2.424260   4.310227   4.767510   2.485178
    12  C    2.502156   3.840618   1.401392   2.811622   3.772181
    13  C    3.781418   2.427459   4.983080   4.203758   4.269416
    14  C    4.277186   2.802585   5.172628   5.009670   3.768826
    15  C    3.781420   4.983086   2.427465   4.203750   4.269412
    16  C    4.277191   5.172640   2.802593   5.009665   3.768828
    17  H    4.648656   3.412896   4.935486   5.726113   2.699862
    18  H    4.653408   3.410855   5.949273   4.867679   5.357048
    19  H    5.364960   3.890362   6.231927   6.077483   4.640596
    20  H    5.364958   6.231929   3.890363   6.077473   4.640587
    21  H    4.653417   5.949286   3.410868   4.867678   5.357050
    22  O    2.911321   2.437205   4.384457   2.600132   4.929381
    23  H    2.389788   2.459522   3.833129   1.752066   4.868219
    24  H    4.648659   4.935494   3.412898   5.726111   2.699861
    25  O    2.911325   4.384464   2.437213   2.600124   4.929382
    26  H    2.389782   3.833126   2.459518   1.752052   4.868210
                    6          7          8          9         10
     6  C    0.000000
     7  O    2.347121   0.000000
     8  C    2.548800   2.347129   0.000000
     9  C    4.309802   4.759097   2.412940   0.000000
    10  C    1.402179   2.787582   3.825320   5.711623   0.000000
    11  C    3.825317   2.787589   1.402179   2.785313   4.969770
    12  C    2.412938   4.759087   4.309799   5.003180   2.785307
    13  C    5.166058   4.992673   2.792926   1.393497   6.531188
    14  C    4.972427   4.181777   2.423664   2.413534   6.221165
    15  C    2.792927   4.992666   5.166056   6.246402   2.414179
    16  C    2.423669   4.181775   4.972433   6.544359   1.395188
    17  H    4.168436   2.492963   2.167674   3.874462   5.089660
    18  H    6.225334   6.060003   3.880543   2.152914   7.600860
    19  H    5.938730   4.844943   3.410295   3.399486   7.123431
    20  H    3.410289   4.844929   5.938725   7.612985   2.156840
    21  H    3.880550   6.060000   6.225339   7.151895   3.401352
    22  O    5.182201   6.005324   3.688812   1.368739   6.562872
    23  H    4.835370   6.032166   3.841918   1.921044   6.158895
    24  H    2.167673   2.492958   4.168441   6.316327   1.089171
    25  O    3.688819   6.005323   5.182201   5.279998   4.152112
    26  H    3.841917   6.032157   4.835360   4.540030   4.596020
                   11         12         13         14         15
    11  C    0.000000
    12  C    5.711619   0.000000
    13  C    2.414180   6.246404   0.000000
    14  C    1.395183   6.544354   1.393926   0.000000
    15  C    6.531185   1.393491   7.410431   7.533290   0.000000
    16  C    6.221169   2.413526   7.533295   7.395991   1.393922
    17  H    1.089173   6.316321   3.398130   2.151554   6.957357
    18  H    3.401349   7.151890   1.087633   2.156172   8.371236
    19  H    2.156847   7.612989   2.154708   1.087777   8.565600
    20  H    7.123424   3.399477   8.565596   8.353200   2.154706
    21  H    7.600863   2.152918   8.371243   8.567937   1.087638
    22  O    4.152107   5.280001   2.344917   3.631735   6.634432
    23  H    4.596023   4.540042   3.166932   4.330885   5.923908
    24  H    5.089661   3.874455   6.957360   6.435442   3.398128
    25  O    6.562872   1.368750   6.634433   7.185506   2.344921
    26  H    6.158885   1.921049   5.923902   6.615954   3.166931
                   16         17         18         19         20
    16  C    0.000000
    17  H    6.435445   0.000000
    18  H    8.567935   4.296968   0.000000
    19  H    8.353211   2.476967   2.484221   0.000000
    20  H    1.087770   7.229339   9.612207   9.274321   0.000000
    21  H    2.156168   8.043928   9.296991   9.612218   2.484221
    22  O    7.185507   5.240910   2.555366   4.498534   8.272951
    23  H    6.615963   5.672224   3.516482   5.284141   7.699954
    24  H    2.151558   4.973740   8.043925   7.229348   2.476959
    25  O    3.631737   7.301991   7.406258   8.272957   4.498536
    26  H    4.330882   6.999713   6.618867   7.699951   5.284137
                   21         22         23         24         25
    21  H    0.000000
    22  O    7.406264   0.000000
    23  H    6.618880   0.982709   0.000000
    24  H    4.296968   7.301990   6.999721   0.000000
    25  O    2.555374   5.197680   4.306399   5.240914   0.000000
    26  H    3.516489   4.306394   3.382150   5.672220   0.982710
                   26
    26  H    0.000000
 Stoichiometry    C14H8O4
 Framework group  C1[X(C14H8O4)]
 Deg. of freedom    72
 Full point group                 C1      NOp   1
 Largest Abelian subgroup         C1      NOp   1
 Largest concise Abelian subgroup C1      NOp   1
                         Standard orientation:                         
 ---------------------------------------------------------------------
 Center     Atomic      Atomic             Coordinates (Angstroms)
 Number     Number       Type             X           Y           Z
 ---------------------------------------------------------------------
      1          6           0       -0.000002   -1.076514   -0.000026
      2          6           0       -1.277834   -0.340549   -0.000010
      3          6           0        1.277826   -0.340549   -0.000010
      4          8           0        0.000002   -2.306875   -0.000046
      5          6           0        0.000002    1.799956   -0.000025
      6          6           0        1.274400    1.054152   -0.000004
      7          8           0        0.000005    3.025166   -0.000046
      8          6           0       -1.274400    1.054149   -0.000013
      9          6           0       -2.501590   -1.023417    0.000017
     10          6           0        2.484886    1.761845    0.000025
     11          6           0       -2.484884    1.761846   -0.000002
     12          6           0        2.501590   -1.023412    0.000004
     13          6           0       -3.705216   -0.321193    0.000027
     14          6           0       -3.697993    1.072714    0.000023
     15          6           0        3.705214   -0.321196    0.000032
     16          6           0        3.697998    1.072707    0.000037
     17          1           0       -2.486868    2.851017   -0.000003
     18          1           0       -4.648493   -0.862648    0.000050
     19          1           0       -4.637163    1.621547    0.000036
     20          1           0        4.637158    1.621544    0.000066
     21          1           0        4.648498   -0.862651    0.000041
     22          8           0       -2.598842   -2.388696    0.000025
     23          1           0       -1.691080   -2.765107    0.000000
     24          1           0        2.486872    2.851015    0.000034
     25          8           0        2.598838   -2.388703   -0.000014
     26          1           0        1.691071   -2.765103   -0.000034
 ---------------------------------------------------------------------
 Rotational constants (GHZ):      0.7604496      0.3728560      0.2501869
 Standard basis: VSTO-6G (5D, 7F)
 There are    80 symmetry adapted cartesian basis functions of A   symmetry.
 There are    80 symmetry adapted basis functions of A   symmetry.
    80 basis functions,   480 primitive gaussians,    80 cartesian basis functions
    44 alpha electrons       44 beta electrons
       nuclear repulsion energy       678.9375005861 Hartrees.
 Integral buffers will be    131072 words long.
 Regular integral format.
 Two-electron integral symmetry is turned off.
 Do NDO integrals.
 One-electron integrals computed using PRISM.
 NBasis=    80 RedAO= F EigKep=  0.00D+00  NBF=    80
 NBsUse=    80 1.00D-04 EigRej=  0.00D+00 NBFU=    80
 Simple Huckel Guess.
 Overlap will be assumed to be unity.
 Keep J ints in memory in canonical form, NReq=933890.
 Requested convergence on RMS density matrix=1.00D-08 within 128 cycles.
 Requested convergence on MAX density matrix=1.00D-06.
 Requested convergence on             energy=1.00D-06.
 No special actions if energy rises.
 SCF Done:  E(RAM1) = -0.141976121811     A.U. after   16 cycles
            NFock= 15  Conv=0.33D-08     -V/T= 0.9977

 **********************************************************************

            Population analysis using the SCF density.

 **********************************************************************

 Orbital symmetries:
       Occupied  (A) (A) (A) (A) (A) (A) (A) (A) (A) (A) (A) (A)
                 (A) (A) (A) (A) (A) (A) (A) (A) (A) (A) (A) (A)
                 (A) (A) (A) (A) (A) (A) (A) (A) (A) (A) (A) (A)
                 (A) (A) (A) (A) (A) (A) (A) (A)
       Virtual   (A) (A) (A) (A) (A) (A) (A) (A) (A) (A) (A) (A)
                 (A) (A) (A) (A) (A) (A) (A) (A) (A) (A) (A) (A)
                 (A) (A) (A) (A) (A) (A) (A) (A) (A) (A) (A) (A)
 The electronic state is 1-A.
 Alpha  occ. eigenvalues --   -1.56780  -1.49657  -1.48833  -1.42810  -1.38785
 Alpha  occ. eigenvalues --   -1.38200  -1.26186  -1.17197  -1.14776  -1.14152
 Alpha  occ. eigenvalues --   -1.00172  -0.94496  -0.92103  -0.85080  -0.82678
 Alpha  occ. eigenvalues --   -0.76586  -0.71456  -0.70714  -0.70199  -0.64496
 Alpha  occ. eigenvalues --   -0.63949  -0.62396  -0.61733  -0.60082  -0.59107
 Alpha  occ. eigenvalues --   -0.57664  -0.57197  -0.56927  -0.56457  -0.54975
 Alpha  occ. eigenvalues --   -0.54680  -0.53142  -0.50641  -0.49664  -0.48301
 Alpha  occ. eigenvalues --   -0.48052  -0.47583  -0.47186  -0.42781  -0.40350
 Alpha  occ. eigenvalues --   -0.39177  -0.38485  -0.35693  -0.35129
 Alpha virt. eigenvalues --   -0.06227  -0.01659  -0.01514  -0.00098   0.03609
 Alpha virt. eigenvalues --    0.04627   0.07915   0.08033   0.08602   0.09645
 Alpha virt. eigenvalues --    0.09812   0.09980   0.11540   0.12232   0.12344
 Alpha virt. eigenvalues --    0.13013   0.13205   0.14018   0.14097   0.14240
 Alpha virt. eigenvalues --    0.14971   0.15293   0.15981   0.16156   0.16353
 Alpha virt. eigenvalues --    0.16926   0.17024   0.17582   0.18127   0.18405
 Alpha virt. eigenvalues --    0.19183   0.19386   0.20556   0.22174   0.22558
 Alpha virt. eigenvalues --    0.22654
          Condensed to atoms (all electrons):
               1          2          3          4          5          6
     1  C    3.651784   0.000000   0.000000   0.000000   0.000000   0.000000
     2  C    0.000000   4.209721   0.000000   0.000000   0.000000   0.000000
     3  C    0.000000   0.000000   4.209719   0.000000   0.000000   0.000000
     4  O    0.000000   0.000000   0.000000   6.362049   0.000000   0.000000
     5  C    0.000000   0.000000   0.000000   0.000000   3.698983   0.000000
     6  C    0.000000   0.000000   0.000000   0.000000   0.000000   4.066397
     7  O    0.000000   0.000000   0.000000   0.000000   0.000000   0.000000
     8  C    0.000000   0.000000   0.000000   0.000000   0.000000   0.000000
     9  C    0.000000   0.000000   0.000000   0.000000   0.000000   0.000000
    10  C    0.000000   0.000000   0.000000   0.000000   0.000000   0.000000
    11  C    0.000000   0.000000   0.000000   0.000000   0.000000   0.000000
    12  C    0.000000   0.000000   0.000000   0.000000   0.000000   0.000000
    13  C    0.000000   0.000000   0.000000   0.000000   0.000000   0.000000
    14  C    0.000000   0.000000   0.000000   0.000000   0.000000   0.000000
    15  C    0.000000   0.000000   0.000000   0.000000   0.000000   0.000000
    16  C    0.000000   0.000000   0.000000   0.000000   0.000000   0.000000
    17  H    0.000000   0.000000   0.000000   0.000000   0.000000   0.000000
    18  H    0.000000   0.000000   0.000000   0.000000   0.000000   0.000000
    19  H    0.000000   0.000000   0.000000   0.000000   0.000000   0.000000
    20  H    0.000000   0.000000   0.000000   0.000000   0.000000   0.000000
    21  H    0.000000   0.000000   0.000000   0.000000   0.000000   0.000000
    22  O    0.000000   0.000000   0.000000   0.000000   0.000000   0.000000
    23  H    0.000000   0.000000   0.000000   0.000000   0.000000   0.000000
    24  H    0.000000   0.000000   0.000000   0.000000   0.000000   0.000000
    25  O    0.000000   0.000000   0.000000   0.000000   0.000000   0.000000
    26  H    0.000000   0.000000   0.000000   0.000000   0.000000   0.000000
               7          8          9         10         11         12
     1  C    0.000000   0.000000   0.000000   0.000000   0.000000   0.000000
     2  C    0.000000   0.000000   0.000000   0.000000   0.000000   0.000000
     3  C    0.000000   0.000000   0.000000   0.000000   0.000000   0.000000
     4  O    0.000000   0.000000   0.000000   0.000000   0.000000   0.000000
     5  C    0.000000   0.000000   0.000000   0.000000   0.000000   0.000000
     6  C    0.000000   0.000000   0.000000   0.000000   0.000000   0.000000
     7  O    6.270526   0.000000   0.000000   0.000000   0.000000   0.000000
     8  C    0.000000   4.066395   0.000000   0.000000   0.000000   0.000000
     9  C    0.000000   0.000000   3.844955   0.000000   0.000000   0.000000
    10  C    0.000000   0.000000   0.000000   4.123222   0.000000   0.000000
    11  C    0.000000   0.000000   0.000000   0.000000   4.123223   0.000000
    12  C    0.000000   0.000000   0.000000   0.000000   0.000000   3.844956
    13  C    0.000000   0.000000   0.000000   0.000000   0.000000   0.000000
    14  C    0.000000   0.000000   0.000000   0.000000   0.000000   0.000000
    15  C    0.000000   0.000000   0.000000   0.000000   0.000000   0.000000
    16  C    0.000000   0.000000   0.000000   0.000000   0.000000   0.000000
    17  H    0.000000   0.000000   0.000000   0.000000   0.000000   0.000000
    18  H    0.000000   0.000000   0.000000   0.000000   0.000000   0.000000
    19  H    0.000000   0.000000   0.000000   0.000000   0.000000   0.000000
    20  H    0.000000   0.000000   0.000000   0.000000   0.000000   0.000000
    21  H    0.000000   0.000000   0.000000   0.000000   0.000000   0.000000
    22  O    0.000000   0.000000   0.000000   0.000000   0.000000   0.000000
    23  H    0.000000   0.000000   0.000000   0.000000   0.000000   0.000000
    24  H    0.000000   0.000000   0.000000   0.000000   0.000000   0.000000
    25  O    0.000000   0.000000   0.000000   0.000000   0.000000   0.000000
    26  H    0.000000   0.000000   0.000000   0.000000   0.000000   0.000000
              13         14         15         16         17         18
     1  C    0.000000   0.000000   0.000000   0.000000   0.000000   0.000000
     2  C    0.000000   0.000000   0.000000   0.000000   0.000000   0.000000
     3  C    0.000000   0.000000   0.000000   0.000000   0.000000   0.000000
     4  O    0.000000   0.000000   0.000000   0.000000   0.000000   0.000000
     5  C    0.000000   0.000000   0.000000   0.000000   0.000000   0.000000
     6  C    0.000000   0.000000   0.000000   0.000000   0.000000   0.000000
     7  O    0.000000   0.000000   0.000000   0.000000   0.000000   0.000000
     8  C    0.000000   0.000000   0.000000   0.000000   0.000000   0.000000
     9  C    0.000000   0.000000   0.000000   0.000000   0.000000   0.000000
    10  C    0.000000   0.000000   0.000000   0.000000   0.000000   0.000000
    11  C    0.000000   0.000000   0.000000   0.000000   0.000000   0.000000
    12  C    0.000000   0.000000   0.000000   0.000000   0.000000   0.000000
    13  C    4.156734   0.000000   0.000000   0.000000   0.000000   0.000000
    14  C    0.000000   4.075535   0.000000   0.000000   0.000000   0.000000
    15  C    0.000000   0.000000   4.156732   0.000000   0.000000   0.000000
    16  C    0.000000   0.000000   0.000000   4.075535   0.000000   0.000000
    17  H    0.000000   0.000000   0.000000   0.000000   0.839143   0.000000
    18  H    0.000000   0.000000   0.000000   0.000000   0.000000   0.841837
    19  H    0.000000   0.000000   0.000000   0.000000   0.000000   0.000000
    20  H    0.000000   0.000000   0.000000   0.000000   0.000000   0.000000
    21  H    0.000000   0.000000   0.000000   0.000000   0.000000   0.000000
    22  O    0.000000   0.000000   0.000000   0.000000   0.000000   0.000000
    23  H    0.000000   0.000000   0.000000   0.000000   0.000000   0.000000
    24  H    0.000000   0.000000   0.000000   0.000000   0.000000   0.000000
    25  O    0.000000   0.000000   0.000000   0.000000   0.000000   0.000000
    26  H    0.000000   0.000000   0.000000   0.000000   0.000000   0.000000
              19         20         21         22         23         24
     1  C    0.000000   0.000000   0.000000   0.000000   0.000000   0.000000
     2  C    0.000000   0.000000   0.000000   0.000000   0.000000   0.000000
     3  C    0.000000   0.000000   0.000000   0.000000   0.000000   0.000000
     4  O    0.000000   0.000000   0.000000   0.000000   0.000000   0.000000
     5  C    0.000000   0.000000   0.000000   0.000000   0.000000   0.000000
     6  C    0.000000   0.000000   0.000000   0.000000   0.000000   0.000000
     7  O    0.000000   0.000000   0.000000   0.000000   0.000000   0.000000
     8  C    0.000000   0.000000   0.000000   0.000000   0.000000   0.000000
     9  C    0.000000   0.000000   0.000000   0.000000   0.000000   0.000000
    10  C    0.000000   0.000000   0.000000   0.000000   0.000000   0.000000
    11  C    0.000000   0.000000   0.000000   0.000000   0.000000   0.000000
    12  C    0.000000   0.000000   0.000000   0.000000   0.000000   0.000000
    13  C    0.000000   0.000000   0.000000   0.000000   0.000000   0.000000
    14  C    0.000000   0.000000   0.000000   0.000000   0.000000   0.000000
    15  C    0.000000   0.000000   0.000000   0.000000   0.000000   0.000000
    16  C    0.000000   0.000000   0.000000   0.000000   0.000000   0.000000
    17  H    0.000000   0.000000   0.000000   0.000000   0.000000   0.000000
    18  H    0.000000   0.000000   0.000000   0.000000   0.000000   0.000000
    19  H    0.854154   0.000000   0.000000   0.000000   0.000000   0.000000
    20  H    0.000000   0.854154   0.000000   0.000000   0.000000   0.000000
    21  H    0.000000   0.000000   0.841836   0.000000   0.000000   0.000000
    22  O    0.000000   0.000000   0.000000   6.262933   0.000000   0.000000
    23  H    0.000000   0.000000   0.000000   0.000000   0.733699   0.000000
    24  H    0.000000   0.000000   0.000000   0.000000   0.000000   0.839143
    25  O    0.000000   0.000000   0.000000   0.000000   0.000000   0.000000
    26  H    0.000000   0.000000   0.000000   0.000000   0.000000   0.000000
              25         26
     1  C    0.000000   0.000000
     2  C    0.000000   0.000000
     3  C    0.000000   0.000000
     4  O    0.000000   0.000000
     5  C    0.000000   0.000000
     6  C    0.000000   0.000000
     7  O    0.000000   0.000000
     8  C    0.000000   0.000000
     9  C    0.000000   0.000000
    10  C    0.000000   0.000000
    11  C    0.000000   0.000000
    12  C    0.000000   0.000000
    13  C    0.000000   0.000000
    14  C    0.000000   0.000000
    15  C    0.000000   0.000000
    16  C    0.000000   0.000000
    17  H    0.000000   0.000000
    18  H    0.000000   0.000000
    19  H    0.000000   0.000000
    20  H    0.000000   0.000000
    21  H    0.000000   0.000000
    22  O    0.000000   0.000000
    23  H    0.000000   0.000000
    24  H    0.000000   0.000000
    25  O    6.262937   0.000000
    26  H    0.000000   0.733700
 Mulliken charges:
               1
     1  C    0.348216
     2  C   -0.209721
     3  C   -0.209719
     4  O   -0.362049
     5  C    0.301017
     6  C   -0.066397
     7  O   -0.270526
     8  C   -0.066395
     9  C    0.155045
    10  C   -0.123222
    11  C   -0.123223
    12  C    0.155044
    13  C   -0.156734
    14  C   -0.075535
    15  C   -0.156732
    16  C   -0.075535
    17  H    0.160857
    18  H    0.158163
    19  H    0.145846
    20  H    0.145846
    21  H    0.158164
    22  O   -0.262933
    23  H    0.266301
    24  H    0.160857
    25  O   -0.262937
    26  H    0.266300
 Sum of Mulliken charges =  -0.00000
 Mulliken charges with hydrogens summed into heavy atoms:
               1
     1  C    0.348216
     2  C   -0.209721
     3  C   -0.209719
     4  O   -0.362049
     5  C    0.301017
     6  C   -0.066397
     7  O   -0.270526
     8  C   -0.066395
     9  C    0.155045
    10  C    0.037635
    11  C    0.037634
    12  C    0.155044
    13  C    0.001429
    14  C    0.070311
    15  C    0.001432
    16  C    0.070311
    22  O    0.003368
    25  O    0.003363
 Charge=             -0.0000 electrons
 Dipole moment (field-independent basis, Debye):
    X=             -0.0000    Y=              1.0151    Z=              0.0001  Tot=              1.0151
 N-N= 6.789375005861D+02 E-N=-1.228040932143D+03  KE=-6.258389656821D+01
 Calling FoFJK, ICntrl=      2127 FMM=F ISym2X=0 I1Cent= 0 IOpClX= 0 NMat=1 NMatS=1 NMatT=0.
 ***** Axes restored to original set *****
 -------------------------------------------------------------------
 Center     Atomic                   Forces (Hartrees/Bohr)
 Number     Number              X              Y              Z
 -------------------------------------------------------------------
      1        6           0.000019148   -0.044158527   -0.000008631
      2        6          -0.018989211    0.003038465    0.000000628
      3        6           0.018977190    0.003051566    0.000000709
      4        8          -0.000015271    0.041323170    0.000007583
      5        6          -0.000003892    0.015838341    0.000004094
      6        6          -0.007593221   -0.010474607   -0.000001751
      7        8           0.000015375   -0.034235693   -0.000008274
      8        6           0.007598809   -0.010473994   -0.000002263
      9        6          -0.004961158    0.019492838    0.000002900
     10        6           0.006947967    0.007561774    0.000000793
     11        6          -0.006957157    0.007551647    0.000002391
     12        6           0.004953232    0.019510758    0.000003605
     13        6           0.012578359   -0.018984725   -0.000002487
     14        6          -0.007168792    0.013132138    0.000001780
     15        6          -0.012569671   -0.018992583   -0.000004920
     16        6           0.007167424    0.013132332    0.000004535
     17        1          -0.002605515   -0.008951457   -0.000002322
     18        1           0.007564372    0.005972968    0.000001334
     19        1           0.007855567   -0.004449924   -0.000000689
     20        1          -0.007856608   -0.004458356   -0.000001415
     21        1          -0.007565786    0.005965609    0.000001398
     22        8          -0.001033312   -0.004196149   -0.000000936
     23        1           0.020150411    0.008489170    0.000002828
     24        1           0.002612717   -0.008950259   -0.000001950
     25        8           0.001038629   -0.004207219   -0.000000560
     26        1          -0.020159606    0.008472718    0.000001621
 -------------------------------------------------------------------
 Cartesian Forces:  Max     0.044158527 RMS     0.011422397

 GradGradGradGradGradGradGradGradGradGradGradGradGradGradGradGradGradGrad
 Berny optimization.
 FormGI is forming the generalized inverse of G from B-inverse, IUseBI=4.
 GSVD:  received Info=                   1 from GESDD.
 Internal  Forces:  Max     0.041323173 RMS     0.012347905
 Search for a local minimum.
 Step number   1 out of a maximum of  150
 All quantities printed in internal units (Hartrees-Bohrs-Radians)
 Mixed Optimization -- RFO/linear search
 Second derivative matrix not updated -- first step.
 ITU=  0
     Eigenvalues ---    0.01076   0.01089   0.01102   0.01563   0.01646
     Eigenvalues ---    0.01774   0.01810   0.01888   0.01921   0.02102
     Eigenvalues ---    0.02102   0.02105   0.02105   0.02108   0.02109
     Eigenvalues ---    0.02114   0.02114   0.02159   0.02159   0.02161
     Eigenvalues ---    0.02161   0.02172   0.02172   0.16000   0.16000
     Eigenvalues ---    0.16000   0.16000   0.16000   0.16000   0.16000
     Eigenvalues ---    0.16000   0.22096   0.22101   0.23529   0.23534
     Eigenvalues ---    0.24912   0.24917   0.25000   0.25000   0.25000
     Eigenvalues ---    0.25000   0.25000   0.25000   0.25000   0.33320
     Eigenvalues ---    0.34071   0.34908   0.34909   0.35071   0.35072
     Eigenvalues ---    0.35084   0.35087   0.35088   0.35090   0.40121
     Eigenvalues ---    0.41847   0.41880   0.41997   0.45031   0.45580
     Eigenvalues ---    0.45948   0.46010   0.46041   0.46555   0.46612
     Eigenvalues ---    0.46615   0.50862   0.50862   0.51218   0.51220
     Eigenvalues ---    0.90936   0.93112
 RFO step:  Lambda=-5.62349640D-02 EMin= 1.07560412D-02
 Linear search not attempted -- first point.
 Maximum step size (   0.300) exceeded in Quadratic search.
    -- Step size scaled by   0.731
 Iteration  1 RMS(Cart)=  0.12602953 RMS(Int)=  0.00697922
 Iteration  2 RMS(Cart)=  0.01373976 RMS(Int)=  0.00009894
 Iteration  3 RMS(Cart)=  0.00015190 RMS(Int)=  0.00007061
 Iteration  4 RMS(Cart)=  0.00000004 RMS(Int)=  0.00007061
 Variable       Old X    -DE/DX   Delta X   Delta X   Delta X     New X
                                 (Linear)    (Quad)   (Total)
    R1        2.78662   0.01799   0.00000   0.03335   0.03341   2.82003
    R2        2.78662   0.01799   0.00000   0.03336   0.03341   2.82003
    R3        2.32504   0.04132   0.00000   0.03128   0.03128   2.35633
    R4        2.63561   0.02206   0.00000   0.03254   0.03266   2.66827
    R5        2.64824   0.04112   0.00000   0.06174   0.06186   2.71010
    R6        2.63561   0.02206   0.00000   0.03254   0.03266   2.66827
    R7        2.64825   0.04112   0.00000   0.06173   0.06185   2.71010
    R8        2.79035  -0.00185   0.00000  -0.00448  -0.00454   2.78581
    R9        2.31531   0.03424   0.00000   0.02535   0.02535   2.34066
   R10        2.79036  -0.00186   0.00000  -0.00449  -0.00455   2.78581
   R11        2.64974  -0.00764   0.00000  -0.01214  -0.01215   2.63759
   R12        2.64973  -0.00764   0.00000  -0.01214  -0.01214   2.63759
   R13        2.63333   0.02026   0.00000   0.02944   0.02944   2.66277
   R14        2.58654   0.00563   0.00000   0.00724   0.00724   2.59378
   R15        2.63652  -0.00110   0.00000  -0.00431  -0.00443   2.63209
   R16        2.05824   0.00895   0.00000   0.01613   0.01613   2.07437
   R17        2.63651  -0.00109   0.00000  -0.00430  -0.00442   2.63209
   R18        2.05824   0.00895   0.00000   0.01613   0.01613   2.07437
   R19        2.63332   0.02027   0.00000   0.02944   0.02945   2.66276
   R20        2.58656   0.00562   0.00000   0.00723   0.00723   2.59379
   R21        2.63414  -0.00969   0.00000  -0.01517  -0.01529   2.61885
   R22        2.05533   0.00953   0.00000   0.01712   0.01712   2.07245
   R23        2.05560   0.00903   0.00000   0.01622   0.01622   2.07182
   R24        2.63413  -0.00969   0.00000  -0.01516  -0.01528   2.61885
   R25        2.05534   0.00953   0.00000   0.01711   0.01711   2.07245
   R26        2.05559   0.00903   0.00000   0.01622   0.01622   2.07181
   R27        1.85705  -0.01537   0.00000  -0.01989  -0.01989   1.83716
   R28        1.85705  -0.01537   0.00000  -0.01989  -0.01989   1.83716
    A1        2.09650  -0.00002   0.00000   0.00450   0.00468   2.10118
    A2        2.09335   0.00001   0.00000  -0.00226  -0.00235   2.09100
    A3        2.09334   0.00001   0.00000  -0.00224  -0.00233   2.09101
    A4        2.09088  -0.00731   0.00000  -0.01830  -0.01831   2.07257
    A5        2.11007   0.02615   0.00000   0.05718   0.05699   2.16706
    A6        2.08223  -0.01883   0.00000  -0.03888  -0.03868   2.04355
    A7        2.09089  -0.00732   0.00000  -0.01830  -0.01831   2.07257
    A8        2.11008   0.02615   0.00000   0.05718   0.05699   2.16707
    A9        2.08222  -0.01883   0.00000  -0.03888  -0.03867   2.04354
   A10        2.10028   0.00155   0.00000   0.00460   0.00463   2.10490
   A11        2.08263  -0.00310   0.00000  -0.00920  -0.00925   2.07338
   A12        2.10028   0.00155   0.00000   0.00460   0.00462   2.10490
   A13        2.10273   0.00888   0.00000   0.02065   0.02060   2.12333
   A14        2.09739   0.01037   0.00000   0.02560   0.02573   2.12311
   A15        2.08307  -0.01925   0.00000  -0.04625  -0.04632   2.03674
   A16        2.10274   0.00888   0.00000   0.02065   0.02059   2.12333
   A17        2.09738   0.01037   0.00000   0.02560   0.02573   2.12311
   A18        2.08306  -0.01924   0.00000  -0.04625  -0.04632   2.03675
   A19        2.10448  -0.00501   0.00000  -0.00532  -0.00518   2.09930
   A20        2.15088   0.04122   0.00000   0.09506   0.09499   2.24587
   A21        2.02783  -0.03621   0.00000  -0.08974  -0.08981   1.93801
   A22        2.09593   0.00514   0.00000   0.00604   0.00592   2.10185
   A23        2.10167  -0.00527   0.00000  -0.01215  -0.01209   2.08957
   A24        2.08559   0.00013   0.00000   0.00611   0.00617   2.09176
   A25        2.09593   0.00514   0.00000   0.00604   0.00592   2.10185
   A26        2.10167  -0.00527   0.00000  -0.01215  -0.01209   2.08957
   A27        2.08559   0.00013   0.00000   0.00611   0.00617   2.09176
   A28        2.10449  -0.00501   0.00000  -0.00532  -0.00518   2.09931
   A29        2.15087   0.04122   0.00000   0.09507   0.09500   2.24587
   A30        2.02783  -0.03621   0.00000  -0.08975  -0.08982   1.93801
   A31        2.09376   0.00585   0.00000   0.01448   0.01437   2.10813
   A32        2.09236  -0.00438   0.00000  -0.01214  -0.01209   2.08027
   A33        2.09707  -0.00148   0.00000  -0.00234  -0.00229   2.09479
   A34        2.09259   0.00248   0.00000  -0.00192  -0.00216   2.09043
   A35        2.09613  -0.00112   0.00000   0.00137   0.00149   2.09762
   A36        2.09447  -0.00136   0.00000   0.00055   0.00067   2.09514
   A37        2.09376   0.00585   0.00000   0.01448   0.01437   2.10813
   A38        2.09236  -0.00438   0.00000  -0.01214  -0.01209   2.08028
   A39        2.09706  -0.00148   0.00000  -0.00234  -0.00228   2.09478
   A40        2.09259   0.00248   0.00000  -0.00192  -0.00216   2.09042
   A41        2.09612  -0.00112   0.00000   0.00137   0.00149   2.09761
   A42        2.09448  -0.00136   0.00000   0.00055   0.00067   2.09515
   A43        1.89276   0.02888   0.00000   0.09764   0.09764   1.99040
   A44        1.89275   0.02889   0.00000   0.09765   0.09765   1.99040
    D1        0.00003   0.00000   0.00000   0.00000   0.00000   0.00003
    D2       -3.14156  -0.00000   0.00000  -0.00000  -0.00000  -3.14156
    D3       -3.14157   0.00000   0.00000   0.00001   0.00001  -3.14157
    D4        0.00003   0.00000   0.00000   0.00000   0.00000   0.00003
    D5       -0.00002  -0.00000   0.00000  -0.00000  -0.00000  -0.00002
    D6        3.14157  -0.00000   0.00000   0.00000   0.00000   3.14157
    D7        3.14158  -0.00000   0.00000  -0.00000  -0.00000   3.14157
    D8       -0.00002  -0.00000   0.00000  -0.00000  -0.00000  -0.00002
    D9       -0.00001  -0.00000   0.00000  -0.00000  -0.00000  -0.00001
   D10        3.14159  -0.00000   0.00000  -0.00000  -0.00000   3.14159
   D11        3.14158   0.00000   0.00000   0.00000   0.00000   3.14158
   D12       -0.00001   0.00000   0.00000   0.00000   0.00000  -0.00001
   D13       -3.14159  -0.00000   0.00000  -0.00000  -0.00000  -3.14159
   D14       -0.00000   0.00000   0.00000   0.00000   0.00000  -0.00000
   D15        0.00001  -0.00000   0.00000  -0.00000  -0.00000   0.00001
   D16       -3.14159  -0.00000   0.00000   0.00000   0.00000  -3.14159
   D17       -0.00001  -0.00000   0.00000  -0.00000  -0.00000  -0.00001
   D18        3.14158   0.00000   0.00000   0.00000   0.00000   3.14158
   D19        3.14159  -0.00000   0.00000  -0.00000  -0.00000   3.14159
   D20       -0.00001  -0.00000   0.00000  -0.00000  -0.00000  -0.00001
   D21       -3.14158   0.00000   0.00000   0.00000   0.00000  -3.14158
   D22        0.00002  -0.00000   0.00000  -0.00000  -0.00000   0.00001
   D23        0.00001   0.00000   0.00000   0.00000   0.00000   0.00001
   D24       -3.14158   0.00000   0.00000  -0.00000  -0.00000  -3.14158
   D25       -3.14157   0.00000   0.00000   0.00000   0.00000  -3.14157
   D26        0.00003   0.00000   0.00000   0.00000   0.00000   0.00003
   D27        0.00003   0.00000   0.00000   0.00000   0.00000   0.00003
   D28       -3.14156  -0.00000   0.00000  -0.00000  -0.00000  -3.14156
   D29       -0.00002  -0.00000   0.00000  -0.00000  -0.00000  -0.00002
   D30        3.14157   0.00000   0.00000   0.00000   0.00000   3.14157
   D31        3.14158  -0.00000   0.00000  -0.00000  -0.00000   3.14157
   D32       -0.00002   0.00000   0.00000  -0.00000  -0.00000  -0.00002
   D33        0.00001  -0.00000   0.00000  -0.00000  -0.00000   0.00001
   D34       -3.14159  -0.00000   0.00000  -0.00000  -0.00000  -3.14159
   D35       -3.14159   0.00000   0.00000  -0.00000  -0.00000  -3.14159
   D36        0.00000   0.00000   0.00000   0.00000   0.00000   0.00000
   D37        0.00001  -0.00000   0.00000  -0.00000  -0.00000   0.00001
   D38        3.14159   0.00000   0.00000   0.00000   0.00000   3.14159
   D39       -3.14158  -0.00000   0.00000  -0.00000  -0.00000  -3.14158
   D40        0.00000   0.00000   0.00000   0.00000   0.00000   0.00000
   D41       -0.00001   0.00000   0.00000   0.00000   0.00000  -0.00001
   D42       -3.14159  -0.00000   0.00000  -0.00000  -0.00000  -3.14159
   D43        3.14159  -0.00000   0.00000  -0.00000  -0.00000   3.14159
   D44        0.00001  -0.00000   0.00000  -0.00000  -0.00000   0.00001
   D45       -0.00001  -0.00000   0.00000  -0.00000  -0.00000  -0.00001
   D46        3.14158   0.00000   0.00000   0.00000   0.00000   3.14158
   D47       -0.00001   0.00000   0.00000   0.00000   0.00000  -0.00001
   D48       -3.14159  -0.00000   0.00000  -0.00000  -0.00000  -3.14159
   D49        3.14159   0.00000   0.00000   0.00000   0.00000   3.14159
   D50        0.00001  -0.00000   0.00000  -0.00000  -0.00000   0.00001
   D51       -0.00001   0.00000   0.00000   0.00000   0.00000  -0.00001
   D52        3.14159   0.00000   0.00000   0.00000   0.00000   3.14159
   D53       -3.14159  -0.00000   0.00000  -0.00000  -0.00000  -3.14159
   D54        0.00001  -0.00000   0.00000  -0.00000  -0.00000   0.00001
   D55       -0.00001  -0.00000   0.00000   0.00000   0.00000  -0.00001
   D56       -3.14159  -0.00000   0.00000  -0.00000  -0.00000   3.14159
   D57        3.14158   0.00000   0.00000   0.00000   0.00000   3.14158
   D58       -0.00000   0.00000   0.00000   0.00000   0.00000  -0.00000
   D59       -0.00000   0.00000   0.00000   0.00000   0.00000  -0.00000
   D60       -3.14159  -0.00000   0.00000  -0.00000  -0.00000  -3.14159
   D61        0.00001  -0.00000   0.00000  -0.00000  -0.00000   0.00001
   D62       -3.14159  -0.00000   0.00000  -0.00000  -0.00000  -3.14159
   D63        3.14159  -0.00000   0.00000   0.00000   0.00000   3.14159
   D64       -0.00001   0.00000   0.00000   0.00000   0.00000  -0.00001
   D65        0.00001  -0.00000   0.00000  -0.00000  -0.00000   0.00001
   D66        3.14158   0.00000   0.00000   0.00000   0.00000   3.14159
   D67        3.14159  -0.00000   0.00000  -0.00000  -0.00000   3.14159
   D68       -0.00002   0.00000   0.00000   0.00000   0.00000  -0.00001
         Item               Value     Threshold  Converged?
 Maximum Force            0.041323     0.000450     NO 
 RMS     Force            0.012348     0.000300     NO 
 Maximum Displacement     0.781414     0.001800     NO 
 RMS     Displacement     0.136110     0.001200     NO 
 Predicted change in Energy=-2.860600D-02
 GradGradGradGradGradGradGradGradGradGradGradGradGradGradGradGradGradGrad

                          Input orientation:                          
 ---------------------------------------------------------------------
 Center     Atomic      Atomic             Coordinates (Angstroms)
 Number     Number       Type             X           Y           Z
 ---------------------------------------------------------------------
      1          6           0       -0.005616    1.497997    0.000293
      2          6           0        1.289583    0.756778    0.000174
      3          6           0       -1.300196    0.755698    0.000122
      4          8           0       -0.006132    2.744911    0.000539
      5          6           0       -0.004405   -1.405975   -0.000340
      6          6           0       -1.273588   -0.656038   -0.000180
      7          8           0       -0.003887   -2.644598   -0.000633
      8          6           0        1.264151   -0.654978   -0.000139
      9          6           0        2.577961    1.386689    0.000362
     10          6           0       -2.447798   -1.410594   -0.000340
     11          6           0        2.438992   -1.408552   -0.000269
     12          6           0       -2.589105    1.384526    0.000247
     13          6           0        3.750739    0.605607    0.000226
     14          6           0        3.681175   -0.778480   -0.000084
     15          6           0       -3.761227    0.602467    0.000082
     16          6           0       -3.690510   -0.781561   -0.000212
     17          1           0        2.382431   -2.504804   -0.000513
     18          1           0        4.726634    1.105970    0.000376
     19          1           0        4.601491   -1.374315   -0.000185
     20          1           0       -4.610320   -1.378172   -0.000333
     21          1           0       -4.737544    1.102011    0.000182
     22          8           0        2.877941    2.726079    0.000673
     23          1           0        2.098118    3.306613    0.000763
     24          1           0       -2.390320   -2.506797   -0.000570
     25          8           0       -2.890212    2.723667    0.000519
     26          1           0       -2.110876    3.304855    0.000641
 ---------------------------------------------------------------------
                    Distance matrix (angstroms):
                    1          2          3          4          5
     1  C    0.000000
     2  C    1.492296   0.000000
     3  C    1.492296   2.589780   0.000000
     4  O    1.246914   2.373089   2.373093   0.000000
     5  C    2.903973   2.520299   2.520299   4.150887   0.000000
     6  C    2.499525   2.926755   1.411987   3.629449   1.474188
     7  O    4.142595   3.639013   3.639015   5.389509   1.238622
     8  C    2.499522   1.411985   2.926753   3.629445   1.474188
     9  C    2.585974   1.434122   3.929155   2.919299   3.803628
    10  C    3.797915   4.320361   2.451492   4.819746   2.443397
    11  C    3.797912   2.451488   4.320360   4.819740   2.443398
    12  C    2.585980   3.929159   1.434124   2.919315   3.803627
    13  C    3.860902   2.465794   5.053165   4.323274   4.259997
    14  C    4.332987   2.841959   5.212271   5.100051   3.738616
    15  C    3.860906   5.053167   2.465797   4.323287   4.259995
    16  C    4.332993   5.212275   2.841965   5.100063   3.738617
    17  H    4.661029   3.439801   4.918600   5.767560   2.627625
    18  H    4.748460   3.454743   6.037000   5.008513   5.356547
    19  H    5.429145   3.938311   6.274302   6.180471   4.606005
    20  H    5.429148   6.274302   3.938314   6.180482   4.605999
    21  H    4.748468   6.037006   3.454749   5.008530   5.356547
    22  O    3.134180   2.530025   4.619440   2.884135   5.038034
    23  H    2.774309   2.674956   4.249201   2.177930   5.160338
    24  H    4.661030   4.918599   3.439803   5.767564   2.627623
    25  O    3.134192   4.619452   2.530030   2.884158   5.038038
    26  H    2.774321   4.249214   2.674958   2.177954   5.160343
                    6          7          8          9         10
     6  C    0.000000
     7  O    2.359345   0.000000
     8  C    2.537739   2.359344   0.000000
     9  C    4.359721   4.787192   2.427860   0.000000
    10  C    1.395752   2.737785   3.788076   5.751787   0.000000
    11  C    3.788077   2.737785   1.395752   2.798694   4.886790
    12  C    2.427857   4.787191   4.359721   5.167067   2.798690
    13  C    5.180310   4.965989   2.787866   1.409076   6.518200
    14  C    4.956276   4.130627   2.420178   2.430028   6.161484
    15  C    2.787864   4.965988   5.180308   6.387513   2.403645
    16  C    2.420179   4.130628   4.956277   6.632876   1.392844
    17  H    4.096878   2.390409   2.161575   3.896402   4.952617
    18  H    6.253585   6.036935   3.884549   2.166932   7.602997
    19  H    5.918824   4.777355   3.413984   3.423130   7.049382
    20  H    3.413980   4.777349   5.918819   7.701678   2.162765
    21  H    3.884550   6.036935   6.253587   7.321042   3.399429
    22  O    5.354802   6.095006   3.746447   1.372572   6.743557
    23  H    5.202981   6.311524   4.048421   1.978979   6.551137
    24  H    2.161573   2.390409   4.096876   6.312136   1.097709
    25  O    3.746449   6.095009   5.354808   5.629247   4.157865
    26  H    4.048423   6.311528   5.202988   5.066020   4.727470
                   11         12         13         14         15
    11  C    0.000000
    12  C    5.751787   0.000000
    13  C    2.403647   6.387515   0.000000
    14  C    1.392843   6.632874   1.385834   0.000000
    15  C    6.518199   1.409073   7.511967   7.569437   0.000000
    16  C    6.161486   2.430026   7.569440   7.371686   1.385834
    17  H    1.097710   6.312137   3.398077   2.160308   6.884742
    18  H    3.399430   7.321040   1.096692   2.155025   8.502782
    19  H    2.162770   7.701681   2.154965   1.096358   8.593179
    20  H    7.049377   3.423129   8.593177   8.313154   2.154968
    21  H    7.602999   2.166934   8.502785   8.626185   1.096694
    22  O    4.157866   5.629241   2.293071   3.595430   6.970530
    23  H    4.727471   5.066013   3.166479   4.381102   6.453243
    24  H    4.952615   3.896398   6.884742   6.312697   3.398074
    25  O    6.743563   1.372575   6.970538   7.446352   2.293068
    26  H    6.551146   1.978981   6.453253   7.086712   3.166474
                   16         17         18         19         20
    16  C    0.000000
    17  H    6.312700   0.000000
    18  H    8.626185   4.304994   0.000000
    19  H    8.313160   2.490428   2.483440   0.000000
    20  H    1.096355   7.082928   9.661763   9.211812   0.000000
    21  H    2.155023   7.981426   9.464178   9.661768   2.483444
    22  O    7.446347   5.254300   2.458133   4.447905   8.539258
    23  H    7.086705   5.818368   3.428108   5.308292   8.182320
    24  H    2.160308   4.772752   7.981423   7.082933   2.490420
    25  O    3.595428   7.425475   7.786737   8.539266   4.447905
    26  H    4.381100   7.344518   7.182384   8.182329   5.308291
                   21         22         23         24         25
    21  H    0.000000
    22  O    7.786732   0.000000
    23  H    7.182377   0.972185   0.000000
    24  H    4.304992   7.425468   7.344510   0.000000
    25  O    2.458130   5.768153   5.022276   5.254298   0.000000
    26  H    3.428105   5.022278   4.208995   5.818367   0.972185
                   26
    26  H    0.000000
 Stoichiometry    C14H8O4
 Framework group  C1[X(C14H8O4)]
 Deg. of freedom    72
 Full point group                 C1      NOp   1
 Largest Abelian subgroup         C1      NOp   1
 Largest concise Abelian subgroup C1      NOp   1
                         Standard orientation:                         
 ---------------------------------------------------------------------
 Center     Atomic      Atomic             Coordinates (Angstroms)
 Number     Number       Type             X           Y           Z
 ---------------------------------------------------------------------
      1          6           0       -0.000003   -1.136567   -0.000026
      2          6           0       -1.294892   -0.394806   -0.000009
      3          6           0        1.294888   -0.394810   -0.000010
      4          8           0       -0.000008   -2.383481   -0.000052
      5          6           0        0.000001    1.767405   -0.000025
      6          6           0        1.268870    1.016938   -0.000004
      7          8           0        0.000001    3.006028   -0.000048
      8          6           0       -1.268869    1.016939   -0.000013
      9          6           0       -2.583533   -1.024179    0.000017
     10          6           0        2.443396    1.771003    0.000024
     11          6           0       -2.443395    1.771004   -0.000002
     12          6           0        2.583534   -1.024177    0.000004
     13          6           0       -3.755984   -0.242607    0.000027
     14          6           0       -3.685842    1.141451    0.000021
     15          6           0        3.755983   -0.242607    0.000032
     16          6           0        3.685844    1.141450    0.000039
     17          1           0       -2.386376    2.867232   -0.000006
     18          1           0       -4.732088   -0.742561    0.000049
     19          1           0       -4.605908    1.737671    0.000032
     20          1           0        4.605904    1.737676    0.000066
     21          1           0        4.732090   -0.742560    0.000043
     22          8           0       -2.884073   -2.363443    0.000029
     23          1           0       -2.104493   -2.944303    0.000008
     24          1           0        2.386376    2.867230    0.000032
     25          8           0        2.884080   -2.363443   -0.000010
     26          1           0        2.104502   -2.944305   -0.000031
 ---------------------------------------------------------------------
 Rotational constants (GHZ):      0.7542991      0.3555559      0.2416491
 Standard basis: VSTO-6G (5D, 7F)
 There are    80 symmetry adapted cartesian basis functions of A   symmetry.
 There are    80 symmetry adapted basis functions of A   symmetry.
    80 basis functions,   480 primitive gaussians,    80 cartesian basis functions
    44 alpha electrons       44 beta electrons
       nuclear repulsion energy       671.5816245544 Hartrees.
 Integral buffers will be    131072 words long.
 Regular integral format.
 Two-electron integral symmetry is turned off.
 Do NDO integrals.
 One-electron integrals computed using PRISM.
 NBasis=    80 RedAO= F EigKep=  0.00D+00  NBF=    80
 NBsUse=    80 1.00D-04 EigRej=  0.00D+00 NBFU=    80
 Initial guess from the checkpoint file:  "anthracene-1-8-opt.chk"
 B after Tr=    -0.000000   -0.000000    0.000000
         Rot=    1.000000    0.000000    0.000000   -0.000000 Ang=   0.00 deg.
 Overlap will be assumed to be unity.
 Keep J ints in memory in canonical form, NReq=933890.
 Requested convergence on RMS density matrix=1.00D-08 within 128 cycles.
 Requested convergence on MAX density matrix=1.00D-06.
 Requested convergence on             energy=1.00D-06.
 No special actions if energy rises.
 SCF Done:  E(RAM1) = -0.144680172097     A.U. after   15 cycles
            NFock= 14  Conv=0.24D-08     -V/T= 0.9977
 Calling FoFJK, ICntrl=      2127 FMM=F ISym2X=0 I1Cent= 0 IOpClX= 0 NMat=1 NMatS=1 NMatT=0.
 ***** Axes restored to original set *****
 -------------------------------------------------------------------
 Center     Atomic                   Forces (Hartrees/Bohr)
 Number     Number              X              Y              Z
 -------------------------------------------------------------------
      1        6           0.000000045   -0.000437109    0.000000162
      2        6           0.003844054    0.010117974    0.000003113
      3        6          -0.003855350    0.010112893    0.000002276
      4        8          -0.000000810   -0.000195193    0.000000188
      5        6          -0.000000101    0.000684645    0.000000198
      6        6          -0.003512364    0.006201423    0.000001615
      7        8           0.000002410   -0.006059704   -0.000001584
      8        6           0.003508261    0.006202378    0.000001292
      9        6          -0.023663743    0.001480217   -0.000001557
     10        6           0.001145929    0.002164950   -0.000000071
     11        6          -0.001148493    0.002162960    0.000001136
     12        6           0.023665211    0.001504934    0.000000093
     13        6           0.003199708   -0.008849982   -0.000000910
     14        6          -0.000672365    0.006071253    0.000000674
     15        6          -0.003196203   -0.008853574   -0.000002532
     16        6           0.000670693    0.006070653    0.000002548
     17        1          -0.001267462   -0.003771433   -0.000001069
     18        1           0.002191640    0.003319332    0.000000593
     19        1           0.002698675   -0.001822744   -0.000000280
     20        1          -0.002698993   -0.001825185   -0.000000748
     21        1          -0.002192959    0.003317285    0.000000824
     22        8          -0.007154315   -0.001721823   -0.000000532
     23        1          -0.006293136   -0.010195046   -0.000002483
     24        1           0.001270622   -0.003770925   -0.000000853
     25        8           0.007157169   -0.001718413   -0.000000075
     26        1           0.006301877   -0.010189766   -0.000002018
 -------------------------------------------------------------------
 Cartesian Forces:  Max     0.023665211 RMS     0.005360652

 GradGradGradGradGradGradGradGradGradGradGradGradGradGradGradGradGradGrad
 Berny optimization.
 Using GEDIIS/GDIIS optimizer.
 FormGI is forming the generalized inverse of G from B-inverse, IUseBI=4.
 GSVD:  received Info=                   1 from GESDD.
 Internal  Forces:  Max     0.038841237 RMS     0.008858409
 Search for a local minimum.
 Step number   2 out of a maximum of  150
 All quantities printed in internal units (Hartrees-Bohrs-Radians)
 Mixed Optimization -- RFO/linear search
 Update second derivatives using D2CorX and points    1    2
 DE= -2.70D-03 DEPred=-2.86D-02 R= 9.45D-02
 Trust test= 9.45D-02 RLast= 3.00D-01 DXMaxT set to 1.50D-01
 ITU= -1  0
 Use linear search instead of GDIIS.
     Eigenvalues ---    0.01076   0.01089   0.01102   0.01565   0.01642
     Eigenvalues ---    0.01774   0.01806   0.01888   0.01920   0.02103
     Eigenvalues ---    0.02103   0.02105   0.02105   0.02108   0.02108
     Eigenvalues ---    0.02110   0.02110   0.02160   0.02160   0.02161
     Eigenvalues ---    0.02161   0.02172   0.02172   0.15951   0.16000
     Eigenvalues ---    0.16000   0.16000   0.16000   0.16000   0.16000
     Eigenvalues ---    0.17079   0.22099   0.22126   0.23518   0.23544
     Eigenvalues ---    0.24676   0.24905   0.24922   0.25000   0.25000
     Eigenvalues ---    0.25000   0.25000   0.25000   0.30445   0.34077
     Eigenvalues ---    0.34319   0.34591   0.34909   0.34977   0.35071
     Eigenvalues ---    0.35079   0.35087   0.35092   0.37157   0.40166
     Eigenvalues ---    0.41849   0.41912   0.44664   0.45040   0.45662
     Eigenvalues ---    0.45859   0.45947   0.46044   0.46558   0.46613
     Eigenvalues ---    0.50571   0.50701   0.50862   0.51219   0.83022
     Eigenvalues ---    0.92485   0.94935
 RFO step:  Lambda=-3.29262626D-03 EMin= 1.07560412D-02
 Quartic linear search produced a step of -0.49768.
 Iteration  1 RMS(Cart)=  0.07391006 RMS(Int)=  0.00231338
 Iteration  2 RMS(Cart)=  0.00281110 RMS(Int)=  0.00003385
 Iteration  3 RMS(Cart)=  0.00000519 RMS(Int)=  0.00003375
 Iteration  4 RMS(Cart)=  0.00000000 RMS(Int)=  0.00003375
 Variable       Old X    -DE/DX   Delta X   Delta X   Delta X     New X
                                 (Linear)    (Quad)   (Total)
    R1        2.82003  -0.02682  -0.01663  -0.01811  -0.03477   2.78526
    R2        2.82003  -0.02682  -0.01663  -0.01811  -0.03477   2.78526
    R3        2.35633  -0.00020  -0.01557   0.02254   0.00697   2.36329
    R4        2.66827  -0.00655  -0.01625   0.01361  -0.00269   2.66557
    R5        2.71010  -0.03884  -0.03079  -0.00316  -0.03401   2.67609
    R6        2.66827  -0.00656  -0.01625   0.01361  -0.00269   2.66558
    R7        2.71010  -0.03884  -0.03078  -0.00317  -0.03401   2.67609
    R8        2.78581   0.00651   0.00226   0.00791   0.01021   2.79602
    R9        2.34066   0.00606  -0.01261   0.02164   0.00902   2.34968
   R10        2.78581   0.00651   0.00226   0.00790   0.01020   2.79602
   R11        2.63759   0.00099   0.00604  -0.00645  -0.00040   2.63719
   R12        2.63759   0.00099   0.00604  -0.00645  -0.00040   2.63719
   R13        2.66277   0.00484  -0.01465   0.02441   0.00975   2.67252
   R14        2.59378  -0.01457  -0.00360  -0.00925  -0.01286   2.58093
   R15        2.63209   0.00704   0.00220   0.00649   0.00876   2.64085
   R16        2.07437   0.00383  -0.00803   0.01575   0.00772   2.08209
   R17        2.63209   0.00704   0.00220   0.00650   0.00876   2.64085
   R18        2.07437   0.00383  -0.00803   0.01575   0.00772   2.08209
   R19        2.66276   0.00485  -0.01465   0.02442   0.00976   2.67252
   R20        2.59379  -0.01457  -0.00360  -0.00926  -0.01286   2.58093
   R21        2.61885   0.00057   0.00761  -0.00835  -0.00069   2.61816
   R22        2.07245   0.00346  -0.00852   0.01585   0.00733   2.07977
   R23        2.07182   0.00326  -0.00807   0.01497   0.00690   2.07872
   R24        2.61885   0.00057   0.00761  -0.00835  -0.00069   2.61816
   R25        2.07245   0.00346  -0.00852   0.01584   0.00732   2.07977
   R26        2.07181   0.00326  -0.00807   0.01498   0.00691   2.07872
   R27        1.83716  -0.00104   0.00990  -0.01457  -0.00468   1.83249
   R28        1.83716  -0.00104   0.00990  -0.01458  -0.00468   1.83248
    A1        2.10118  -0.00482  -0.00233  -0.01252  -0.01496   2.08622
    A2        2.09100   0.00241   0.00117   0.00626   0.00748   2.09848
    A3        2.09101   0.00241   0.00116   0.00626   0.00748   2.09849
    A4        2.07257   0.01208   0.00911   0.01284   0.02194   2.09451
    A5        2.16706  -0.02298  -0.02836  -0.00769  -0.03596   2.13110
    A6        2.04355   0.01090   0.01925  -0.00515   0.01402   2.05757
    A7        2.07257   0.01208   0.00911   0.01283   0.02194   2.09451
    A8        2.16707  -0.02298  -0.02836  -0.00769  -0.03596   2.13111
    A9        2.04354   0.01090   0.01925  -0.00514   0.01402   2.05757
   A10        2.10490   0.00445  -0.00230   0.00987   0.00754   2.11244
   A11        2.07338  -0.00891   0.00460  -0.01974  -0.01508   2.05830
   A12        2.10490   0.00446  -0.00230   0.00987   0.00754   2.11244
   A13        2.12333  -0.00522  -0.01025   0.00330  -0.00692   2.11641
   A14        2.12311  -0.00495  -0.01280   0.00341  -0.00945   2.11366
   A15        2.03674   0.01017   0.02305  -0.00670   0.01637   2.05312
   A16        2.12333  -0.00522  -0.01025   0.00329  -0.00692   2.11641
   A17        2.12311  -0.00495  -0.01280   0.00341  -0.00945   2.11365
   A18        2.03675   0.01017   0.02305  -0.00670   0.01637   2.05312
   A19        2.09930   0.00478   0.00258   0.00198   0.00449   2.10379
   A20        2.24587  -0.02699  -0.04727   0.00412  -0.04312   2.20275
   A21        1.93801   0.02222   0.04470  -0.00610   0.03864   1.97665
   A22        2.10185  -0.00336  -0.00295   0.00104  -0.00185   2.10000
   A23        2.08957   0.00057   0.00602  -0.00828  -0.00229   2.08728
   A24        2.09176   0.00279  -0.00307   0.00725   0.00414   2.09590
   A25        2.10185  -0.00336  -0.00295   0.00104  -0.00185   2.10000
   A26        2.08957   0.00057   0.00602  -0.00828  -0.00229   2.08728
   A27        2.09176   0.00279  -0.00307   0.00725   0.00414   2.09590
   A28        2.09931   0.00477   0.00258   0.00198   0.00449   2.10379
   A29        2.24587  -0.02699  -0.04728   0.00412  -0.04313   2.20274
   A30        1.93801   0.02222   0.04470  -0.00610   0.03864   1.97665
   A31        2.10813  -0.00607  -0.00715  -0.00402  -0.01113   2.09700
   A32        2.08027   0.00101   0.00601  -0.00655  -0.00056   2.07972
   A33        2.09479   0.00506   0.00114   0.01057   0.01168   2.10647
   A34        2.09043  -0.00129   0.00108   0.00274   0.00392   2.09435
   A35        2.09762   0.00058  -0.00074  -0.00138  -0.00217   2.09544
   A36        2.09514   0.00071  -0.00033  -0.00136  -0.00175   2.09339
   A37        2.10813  -0.00608  -0.00715  -0.00402  -0.01113   2.09700
   A38        2.08028   0.00101   0.00602  -0.00655  -0.00056   2.07972
   A39        2.09478   0.00506   0.00114   0.01057   0.01169   2.10647
   A40        2.09042  -0.00129   0.00108   0.00274   0.00392   2.09435
   A41        2.09761   0.00058  -0.00074  -0.00137  -0.00217   2.09544
   A42        2.09515   0.00071  -0.00033  -0.00137  -0.00175   2.09340
   A43        1.99040  -0.02193  -0.04859  -0.02097  -0.06956   1.92084
   A44        1.99040  -0.02193  -0.04860  -0.02097  -0.06956   1.92084
    D1        0.00003  -0.00000  -0.00000  -0.00000  -0.00000   0.00003
    D2       -3.14156  -0.00000   0.00000  -0.00000  -0.00000  -3.14156
    D3       -3.14157  -0.00000  -0.00000  -0.00002  -0.00002  -3.14159
    D4        0.00003  -0.00000  -0.00000  -0.00002  -0.00002   0.00001
    D5       -0.00002   0.00000   0.00000   0.00000   0.00000  -0.00002
    D6        3.14157   0.00000  -0.00000   0.00000   0.00000   3.14157
    D7        3.14157   0.00000   0.00000   0.00001   0.00002   3.14159
    D8       -0.00002   0.00000   0.00000   0.00002   0.00002  -0.00000
    D9       -0.00001   0.00000   0.00000   0.00000   0.00000  -0.00001
   D10        3.14159   0.00000   0.00000   0.00000   0.00000   3.14159
   D11        3.14158   0.00000  -0.00000   0.00000  -0.00000   3.14158
   D12       -0.00001   0.00000  -0.00000   0.00000   0.00000  -0.00001
   D13       -3.14159   0.00000   0.00000  -0.00000  -0.00000  -3.14159
   D14       -0.00000   0.00000  -0.00000  -0.00000  -0.00000  -0.00000
   D15        0.00001  -0.00000   0.00000  -0.00000   0.00000   0.00001
   D16       -3.14159  -0.00000  -0.00000  -0.00000  -0.00000  -3.14159
   D17       -0.00001   0.00000   0.00000   0.00000   0.00000  -0.00001
   D18        3.14158   0.00000  -0.00000   0.00000   0.00000   3.14158
   D19        3.14159   0.00000   0.00000   0.00000   0.00000   3.14159
   D20       -0.00001   0.00000   0.00000   0.00000   0.00000  -0.00001
   D21       -3.14158  -0.00000  -0.00000  -0.00000  -0.00000  -3.14158
   D22        0.00001  -0.00000   0.00000  -0.00000  -0.00000   0.00001
   D23        0.00001  -0.00000  -0.00000  -0.00000  -0.00000   0.00001
   D24       -3.14158  -0.00000   0.00000  -0.00000  -0.00000  -3.14158
   D25       -3.14157  -0.00000  -0.00000  -0.00000  -0.00000  -3.14157
   D26        0.00003  -0.00000  -0.00000  -0.00000  -0.00000   0.00003
   D27        0.00003  -0.00000  -0.00000  -0.00001  -0.00001   0.00003
   D28       -3.14156  -0.00000   0.00000  -0.00000  -0.00000  -3.14156
   D29       -0.00002  -0.00000   0.00000   0.00000   0.00000  -0.00002
   D30        3.14157   0.00000  -0.00000   0.00000   0.00000   3.14157
   D31        3.14157  -0.00000   0.00000  -0.00000  -0.00000   3.14157
[...]
    11  C    3.791877   2.772117   1.391280   2.789881   4.913746
    12  C    2.417722   4.787495   4.311199   5.031625   2.789873
    13  C    5.165890   4.998621   2.795767   1.419003   6.513295
    14  C    4.954827   4.173498   2.422870   2.423027   6.181627
    15  C    2.795773   4.998642   5.165875   6.285623   2.409556
    16  C    2.422872   4.173531   4.954831   6.556609   1.401504
    17  H    4.115313   2.430716   2.158690   3.892702   5.003753
    18  H    6.234375   6.080751   3.896021   2.169675   7.593828
    19  H    5.924037   4.823459   3.416907   3.426491   7.081614
    20  H    3.416909   4.823504   5.924048   7.633840   2.169115
    21  H    3.896027   6.080776   6.234356   7.195627   3.420426
    22  O    5.249959   6.065311   3.714237   1.364015   6.626182
    23  H    5.010832   6.197107   3.950067   1.941056   6.336036
    24  H    2.158693   2.430769   4.115349   6.288585   1.102851
    25  O    3.714197   6.065255   5.249832   5.404944   4.146413
    26  H    3.949917   6.196916   5.010566   4.759471   4.658277
                   11         12         13         14         15
    11  C    0.000000
    12  C    5.701514   0.000000
    13  C    2.409548   6.285604   0.000000
    14  C    1.401500   6.556574   1.379870   0.000000
    15  C    6.513275   1.419002   7.451940   7.541635   0.000000
    16  C    6.181621   2.423020   7.541647   7.376911   1.379874
    17  H    1.102850   6.288524   3.409042   2.176300   6.909968
    18  H    3.420416   7.195619   1.100648   2.171077   8.421542
    19  H    2.169113   7.633802   2.156037   1.101259   8.577108
    20  H    7.081615   3.426486   8.577123   8.332906   2.156039
    21  H    7.593805   2.169679   8.421535   8.586179   1.100648
    22  O    4.146418   5.405058   2.320211   3.602407   6.774614
    23  H    4.658377   4.759708   3.169253   4.348572   6.165740
    24  H    5.003772   3.892694   6.909999   6.363879   3.409050
    25  O    6.626054   1.364010   6.774493   7.285583   2.320250
    26  H    6.335768   1.941004   6.165497   6.826214   3.169251
                   16         17         18         19         20
    16  C    0.000000
    17  H    6.363859   0.000000
    18  H    8.586195   4.335627   0.000000
    19  H    8.332900   2.501708   2.514004   0.000000
    20  H    1.101259   7.147988   9.635173   9.248384   0.000000
    21  H    2.171084   8.009262   9.354730   9.635154   2.514012
    22  O    7.285710   5.248788   2.489811   4.476033   8.385300
    23  H    6.826474   5.750569   3.453299   5.301345   7.925896
    24  H    2.176304   4.847902   8.009294   7.147999   2.501712
    25  O    3.602432   7.341903   7.553394   8.385173   4.476074
    26  H    4.348530   7.159819   6.858333   7.925637   5.301328
                   21         22         23         24         25
    21  H    0.000000
    22  O    7.553506   0.000000
    23  H    6.858556   0.970634   0.000000
    24  H    4.335639   7.342032   7.160088   0.000000
    25  O    2.489882   5.436317   4.620353   5.248784   0.000000
    26  H    3.453360   4.620259   3.753478   5.750464   0.970636
                   26
    26  H    0.000000
 Stoichiometry    C14H8O4
 Framework group  C1[X(C14H8O4)]
 Deg. of freedom    72
 Full point group                 C1      NOp   1
 Largest Abelian subgroup         C1      NOp   1
 Largest concise Abelian subgroup C1      NOp   1
                         Standard orientation:                         
 ---------------------------------------------------------------------
 Center     Atomic      Atomic             Coordinates (Angstroms)
 Number     Number       Type             X           Y           Z
 ---------------------------------------------------------------------
      1          6           0        0.000022   -1.113059    0.000661
      2          6           0       -1.268146   -0.369070    0.000282
      3          6           0        1.268156   -0.369050    0.000282
      4          8           0        0.000084   -2.363597   -0.000042
      5          6           0        0.000011    1.807446    0.000557
      6          6           0        1.266127    1.043941    0.000254
      7          8           0        0.000008    3.047425   -0.000026
      8          6           0       -1.266102    1.043932    0.000253
      9          6           0       -2.515827   -1.025760   -0.000039
     10          6           0        2.456894    1.763482   -0.000060
     11          6           0       -2.456852    1.763498   -0.000061
     12          6           0        2.515798   -1.025769   -0.000040
     13          6           0       -3.725971   -0.284735   -0.000354
     14          6           0       -3.688441    1.094625   -0.000359
     15          6           0        3.725969   -0.284787   -0.000354
     16          6           0        3.688470    1.094577   -0.000357
     17          1           0       -2.423917    2.865856   -0.000072
     18          1           0       -4.677374   -0.838141   -0.000593
     19          1           0       -4.624171    1.675300   -0.000608
     20          1           0        4.624213    1.675229   -0.000606
     21          1           0        4.677356   -0.838222   -0.000593
     22          8           0       -2.718235   -2.374674   -0.000073
     23          1           0       -1.876859   -2.858632    0.000144
     24          1           0        2.423985    2.865842   -0.000070
     25          8           0        2.718081   -2.374697   -0.000076
     26          1           0        1.876620   -2.858512    0.000146
 ---------------------------------------------------------------------
 Rotational constants (GHZ):      0.7515312      0.3672709      0.2467063

 **********************************************************************

            Population analysis using the SCF density.

 **********************************************************************

 Orbital symmetries:
       Occupied  (A) (A) (A) (A) (A) (A) (A) (A) (A) (A) (A) (A)
                 (A) (A) (A) (A) (A) (A) (A) (A) (A) (A) (A) (A)
                 (A) (A) (A) (A) (A) (A) (A) (A) (A) (A) (A) (A)
                 (A) (A) (A) (A) (A) (A) (A) (A)
       Virtual   (A) (A) (A) (A) (A) (A) (A) (A) (A) (A) (A) (A)
                 (A) (A) (A) (A) (A) (A) (A) (A) (A) (A) (A) (A)
                 (A) (A) (A) (A) (A) (A) (A) (A) (A) (A) (A) (A)
 The electronic state is 1-A.
 Alpha  occ. eigenvalues --   -1.54993  -1.49019  -1.47048  -1.41772  -1.38915
 Alpha  occ. eigenvalues --   -1.37973  -1.25526  -1.16693  -1.14465  -1.13802
 Alpha  occ. eigenvalues --   -0.99905  -0.94380  -0.91538  -0.84805  -0.82326
 Alpha  occ. eigenvalues --   -0.76244  -0.71081  -0.70904  -0.69482  -0.63716
 Alpha  occ. eigenvalues --   -0.63533  -0.62239  -0.60776  -0.59881  -0.58853
 Alpha  occ. eigenvalues --   -0.57371  -0.57063  -0.56956  -0.55535  -0.54194
 Alpha  occ. eigenvalues --   -0.54181  -0.53082  -0.50224  -0.49163  -0.48024
 Alpha  occ. eigenvalues --   -0.48022  -0.47576  -0.46980  -0.42430  -0.40200
 Alpha  occ. eigenvalues --   -0.38873  -0.38252  -0.35492  -0.34850
 Alpha virt. eigenvalues --   -0.05984  -0.01731  -0.01273  -0.00065   0.03995
 Alpha virt. eigenvalues --    0.04651   0.07969   0.08359   0.08813   0.09488
 Alpha virt. eigenvalues --    0.09774   0.09977   0.11554   0.12403   0.12539
 Alpha virt. eigenvalues --    0.12782   0.13065   0.13825   0.13933   0.14261
 Alpha virt. eigenvalues --    0.15063   0.15379   0.15948   0.15975   0.16319
 Alpha virt. eigenvalues --    0.17004   0.17127   0.17640   0.18167   0.18576
 Alpha virt. eigenvalues --    0.19318   0.19370   0.21160   0.22352   0.22651
 Alpha virt. eigenvalues --    0.22811
          Condensed to atoms (all electrons):
               1          2          3          4          5          6
     1  C    3.656103   0.000000   0.000000   0.000000   0.000000   0.000000
     2  C    0.000000   4.203668   0.000000   0.000000   0.000000   0.000000
     3  C    0.000000   0.000000   4.203692   0.000000   0.000000   0.000000
     4  O    0.000000   0.000000   0.000000   6.376648   0.000000   0.000000
     5  C    0.000000   0.000000   0.000000   0.000000   3.700129   0.000000
     6  C    0.000000   0.000000   0.000000   0.000000   0.000000   4.071241
     7  O    0.000000   0.000000   0.000000   0.000000   0.000000   0.000000
     8  C    0.000000   0.000000   0.000000   0.000000   0.000000   0.000000
     9  C    0.000000   0.000000   0.000000   0.000000   0.000000   0.000000
    10  C    0.000000   0.000000   0.000000   0.000000   0.000000   0.000000
    11  C    0.000000   0.000000   0.000000   0.000000   0.000000   0.000000
    12  C    0.000000   0.000000   0.000000   0.000000   0.000000   0.000000
    13  C    0.000000   0.000000   0.000000   0.000000   0.000000   0.000000
    14  C    0.000000   0.000000   0.000000   0.000000   0.000000   0.000000
    15  C    0.000000   0.000000   0.000000   0.000000   0.000000   0.000000
    16  C    0.000000   0.000000   0.000000   0.000000   0.000000   0.000000
    17  H    0.000000   0.000000   0.000000   0.000000   0.000000   0.000000
    18  H    0.000000   0.000000   0.000000   0.000000   0.000000   0.000000
    19  H    0.000000   0.000000   0.000000   0.000000   0.000000   0.000000
    20  H    0.000000   0.000000   0.000000   0.000000   0.000000   0.000000
    21  H    0.000000   0.000000   0.000000   0.000000   0.000000   0.000000
    22  O    0.000000   0.000000   0.000000   0.000000   0.000000   0.000000
    23  H    0.000000   0.000000   0.000000   0.000000   0.000000   0.000000
    24  H    0.000000   0.000000   0.000000   0.000000   0.000000   0.000000
    25  O    0.000000   0.000000   0.000000   0.000000   0.000000   0.000000
    26  H    0.000000   0.000000   0.000000   0.000000   0.000000   0.000000
               7          8          9         10         11         12
     1  C    0.000000   0.000000   0.000000   0.000000   0.000000   0.000000
     2  C    0.000000   0.000000   0.000000   0.000000   0.000000   0.000000
     3  C    0.000000   0.000000   0.000000   0.000000   0.000000   0.000000
     4  O    0.000000   0.000000   0.000000   0.000000   0.000000   0.000000
     5  C    0.000000   0.000000   0.000000   0.000000   0.000000   0.000000
     6  C    0.000000   0.000000   0.000000   0.000000   0.000000   0.000000
     7  O    6.280743   0.000000   0.000000   0.000000   0.000000   0.000000
     8  C    0.000000   4.071243   0.000000   0.000000   0.000000   0.000000
     9  C    0.000000   0.000000   3.841516   0.000000   0.000000   0.000000
    10  C    0.000000   0.000000   0.000000   4.122627   0.000000   0.000000
    11  C    0.000000   0.000000   0.000000   0.000000   4.122627   0.000000
    12  C    0.000000   0.000000   0.000000   0.000000   0.000000   3.841511
    13  C    0.000000   0.000000   0.000000   0.000000   0.000000   0.000000
    14  C    0.000000   0.000000   0.000000   0.000000   0.000000   0.000000
    15  C    0.000000   0.000000   0.000000   0.000000   0.000000   0.000000
    16  C    0.000000   0.000000   0.000000   0.000000   0.000000   0.000000
    17  H    0.000000   0.000000   0.000000   0.000000   0.000000   0.000000
    18  H    0.000000   0.000000   0.000000   0.000000   0.000000   0.000000
    19  H    0.000000   0.000000   0.000000   0.000000   0.000000   0.000000
    20  H    0.000000   0.000000   0.000000   0.000000   0.000000   0.000000
    21  H    0.000000   0.000000   0.000000   0.000000   0.000000   0.000000
    22  O    0.000000   0.000000   0.000000   0.000000   0.000000   0.000000
    23  H    0.000000   0.000000   0.000000   0.000000   0.000000   0.000000
    24  H    0.000000   0.000000   0.000000   0.000000   0.000000   0.000000
    25  O    0.000000   0.000000   0.000000   0.000000   0.000000   0.000000
    26  H    0.000000   0.000000   0.000000   0.000000   0.000000   0.000000
              13         14         15         16         17         18
     1  C    0.000000   0.000000   0.000000   0.000000   0.000000   0.000000
     2  C    0.000000   0.000000   0.000000   0.000000   0.000000   0.000000
     3  C    0.000000   0.000000   0.000000   0.000000   0.000000   0.000000
     4  O    0.000000   0.000000   0.000000   0.000000   0.000000   0.000000
     5  C    0.000000   0.000000   0.000000   0.000000   0.000000   0.000000
     6  C    0.000000   0.000000   0.000000   0.000000   0.000000   0.000000
     7  O    0.000000   0.000000   0.000000   0.000000   0.000000   0.000000
     8  C    0.000000   0.000000   0.000000   0.000000   0.000000   0.000000
     9  C    0.000000   0.000000   0.000000   0.000000   0.000000   0.000000
    10  C    0.000000   0.000000   0.000000   0.000000   0.000000   0.000000
    11  C    0.000000   0.000000   0.000000   0.000000   0.000000   0.000000
    12  C    0.000000   0.000000   0.000000   0.000000   0.000000   0.000000
    13  C    4.155043   0.000000   0.000000   0.000000   0.000000   0.000000
    14  C    0.000000   4.078329   0.000000   0.000000   0.000000   0.000000
    15  C    0.000000   0.000000   4.155044   0.000000   0.000000   0.000000
    16  C    0.000000   0.000000   0.000000   4.078328   0.000000   0.000000
    17  H    0.000000   0.000000   0.000000   0.000000   0.835781   0.000000
    18  H    0.000000   0.000000   0.000000   0.000000   0.000000   0.839390
    19  H    0.000000   0.000000   0.000000   0.000000   0.000000   0.000000
    20  H    0.000000   0.000000   0.000000   0.000000   0.000000   0.000000
    21  H    0.000000   0.000000   0.000000   0.000000   0.000000   0.000000
    22  O    0.000000   0.000000   0.000000   0.000000   0.000000   0.000000
    23  H    0.000000   0.000000   0.000000   0.000000   0.000000   0.000000
    24  H    0.000000   0.000000   0.000000   0.000000   0.000000   0.000000
    25  O    0.000000   0.000000   0.000000   0.000000   0.000000   0.000000
    26  H    0.000000   0.000000   0.000000   0.000000   0.000000   0.000000
              19         20         21         22         23         24
     1  C    0.000000   0.000000   0.000000   0.000000   0.000000   0.000000
     2  C    0.000000   0.000000   0.000000   0.000000   0.000000   0.000000
     3  C    0.000000   0.000000   0.000000   0.000000   0.000000   0.000000
     4  O    0.000000   0.000000   0.000000   0.000000   0.000000   0.000000
     5  C    0.000000   0.000000   0.000000   0.000000   0.000000   0.000000
     6  C    0.000000   0.000000   0.000000   0.000000   0.000000   0.000000
     7  O    0.000000   0.000000   0.000000   0.000000   0.000000   0.000000
     8  C    0.000000   0.000000   0.000000   0.000000   0.000000   0.000000
     9  C    0.000000   0.000000   0.000000   0.000000   0.000000   0.000000
    10  C    0.000000   0.000000   0.000000   0.000000   0.000000   0.000000
    11  C    0.000000   0.000000   0.000000   0.000000   0.000000   0.000000
    12  C    0.000000   0.000000   0.000000   0.000000   0.000000   0.000000
    13  C    0.000000   0.000000   0.000000   0.000000   0.000000   0.000000
    14  C    0.000000   0.000000   0.000000   0.000000   0.000000   0.000000
    15  C    0.000000   0.000000   0.000000   0.000000   0.000000   0.000000
    16  C    0.000000   0.000000   0.000000   0.000000   0.000000   0.000000
    17  H    0.000000   0.000000   0.000000   0.000000   0.000000   0.000000
    18  H    0.000000   0.000000   0.000000   0.000000   0.000000   0.000000
    19  H    0.853612   0.000000   0.000000   0.000000   0.000000   0.000000
    20  H    0.000000   0.853613   0.000000   0.000000   0.000000   0.000000
    21  H    0.000000   0.000000   0.839390   0.000000   0.000000   0.000000
    22  O    0.000000   0.000000   0.000000   6.254484   0.000000   0.000000
    23  H    0.000000   0.000000   0.000000   0.000000   0.737488   0.000000
    24  H    0.000000   0.000000   0.000000   0.000000   0.000000   0.835782
    25  O    0.000000   0.000000   0.000000   0.000000   0.000000   0.000000
    26  H    0.000000   0.000000   0.000000   0.000000   0.000000   0.000000
              25         26
     1  C    0.000000   0.000000
     2  C    0.000000   0.000000
     3  C    0.000000   0.000000
     4  O    0.000000   0.000000
     5  C    0.000000   0.000000
     6  C    0.000000   0.000000
     7  O    0.000000   0.000000
     8  C    0.000000   0.000000
     9  C    0.000000   0.000000
    10  C    0.000000   0.000000
    11  C    0.000000   0.000000
    12  C    0.000000   0.000000
    13  C    0.000000   0.000000
    14  C    0.000000   0.000000
    15  C    0.000000   0.000000
    16  C    0.000000   0.000000
    17  H    0.000000   0.000000
    18  H    0.000000   0.000000
    19  H    0.000000   0.000000
    20  H    0.000000   0.000000
    21  H    0.000000   0.000000
    22  O    0.000000   0.000000
    23  H    0.000000   0.000000
    24  H    0.000000   0.000000
    25  O    6.254491   0.000000
    26  H    0.000000   0.737476
 Mulliken charges:
               1
     1  C    0.343897
     2  C   -0.203668
     3  C   -0.203692
     4  O   -0.376648
     5  C    0.299871
     6  C   -0.071241
     7  O   -0.280743
     8  C   -0.071243
     9  C    0.158484
    10  C   -0.122627
    11  C   -0.122627
    12  C    0.158489
    13  C   -0.155043
    14  C   -0.078329
    15  C   -0.155044
    16  C   -0.078328
    17  H    0.164219
    18  H    0.160610
    19  H    0.146388
    20  H    0.146387
    21  H    0.160610
    22  O   -0.254484
    23  H    0.262512
    24  H    0.164218
    25  O   -0.254491
    26  H    0.262524
 Sum of Mulliken charges =   0.00000
 Mulliken charges with hydrogens summed into heavy atoms:
               1
     1  C    0.343897
     2  C   -0.203668
     3  C   -0.203692
     4  O   -0.376648
     5  C    0.299871
     6  C   -0.071241
     7  O   -0.280743
     8  C   -0.071243
     9  C    0.158484
    10  C    0.041591
    11  C    0.041593
    12  C    0.158489
    13  C    0.005567
    14  C    0.068058
    15  C    0.005566
    16  C    0.068058
    22  O    0.008029
    25  O    0.008033
 Charge=              0.0000 electrons
 Dipole moment (field-independent basis, Debye):
    X=             -0.0003    Y=              0.5955    Z=              0.0016  Tot=              0.5955
 N-N= 6.754397977620D+02 E-N=-1.221607108029D+03  KE=-6.241385701279D+01
 1\1\GINC-GTX1080DELTA\FOpt\RAM1\ZDO\C14H8O4\MVEROT\11-Apr-2022\0\\#n A
 M1 Opt\\Geometry optimization\\0,1\C,-0.0056420932,1.4692684839,0.0010
 211896\C,1.2628429089,0.7258194586,0.0005217922\C,-1.2734590196,0.7247
 192878,0.0004733302\O,-0.0062379328,2.7198064037,0.0005616321\C,-0.004
 3873384,-1.4512359811,0.0003499158\C,-1.2708277218,-0.6882712705,0.000
 1705391\O,-0.0038555414,-2.6912151481,-0.000474179\C,1.261400608,-0.68
 71831229,0.000218264\C,2.5102430246,1.3830418374,0.0003517563\C,-2.461
 288078,-1.4083193736,-0.0003052111\C,2.4524572025,-1.4062410057,-0.000
 2130343\C,-2.5213813332,1.3809063656,0.0002553289\C,3.7207034716,0.642
 532048,-0.0000837935\C,3.6837614177,-0.7368437373,-0.0003574278\C,-3.7
 312361796,0.6394088163,-0.0002253485\C,-3.6931490314,-0.7399392278,-0.
 0004964298\H,2.4199923142,-2.5086134619,-0.0004390872\H,4.6718703071,1
 .1963439633,-0.000197121\H,4.6197381549,-1.3171190247,-0.0007019762\H,
 -4.6286447996,-1.3209897983,-0.0008756847\H,-4.6828588435,1.1924379729
 ,-0.0003750811\O,2.7120769385,2.7320413671,0.000583806\H,1.8704940144,
 3.2156411309,0.0008788933\H,-2.4279094162,-2.5106648538,-0.0005293372\
 O,-2.7242391709,2.7297474682,0.0004773641\H,-1.882983863,3.2139214023,
 0.0008098999\\Version=AM64L-G09RevD.01\State=1-A\HF=-0.1540627\RMSD=6.
 288e-09\RMSF=3.005e-05\Dipole=0.0002309,-0.2342821,0.0005926\PG=C01 [X
 (C14H8O4)]\\@


 When cryptography is outlawed, bayl bhgynjf jvyy unir cevinpl.
 Job cpu time:       0 days  0 hours  0 minutes  5.2 seconds.
 File lengths (MBytes):  RWF=    132 Int=      0 D2E=      0 Chk=      3 Scr=      2
 Normal termination of Gaussian 09 at Mon Apr 11 23:41:05 2022.
