 Entering Gaussian System, Link 0=g09
 Input=/scratch/mverot/anthracene-2-7-opt/anthracene-2-7-opt.com
 Output=/scratch/mverot/anthracene-2-7-opt/anthracene-2-7-opt.log
 Initial command:
 /opt/g09/l1.exe "/scratch/mverot/anthracene-2-7-opt/Gau-2835645.inp" -scrdir="/scratch/mverot/anthracene-2-7-opt/"
 Entering Link 1 = /opt/g09/l1.exe PID=   2835647.
  
 Copyright (c) 1988,1990,1992,1993,1995,1998,2003,2009,2013,
            Gaussian, Inc.  All Rights Reserved.
  
 This is part of the Gaussian(R) 09 program.  It is based on
 the Gaussian(R) 03 system (copyright 2003, Gaussian, Inc.),
 the Gaussian(R) 98 system (copyright 1998, Gaussian, Inc.),
 the Gaussian(R) 94 system (copyright 1995, Gaussian, Inc.),
 the Gaussian 92(TM) system (copyright 1992, Gaussian, Inc.),
 the Gaussian 90(TM) system (copyright 1990, Gaussian, Inc.),
 the Gaussian 88(TM) system (copyright 1988, Gaussian, Inc.),
 the Gaussian 86(TM) system (copyright 1986, Carnegie Mellon
 University), and the Gaussian 82(TM) system (copyright 1983,
 Carnegie Mellon University). Gaussian is a federally registered
 trademark of Gaussian, Inc.
  
 This software contains proprietary and confidential information,
 including trade secrets, belonging to Gaussian, Inc.
  
 This software is provided under written license and may be
 used, copied, transmitted, or stored only in accord with that
 written license.
  
 The following legend is applicable only to US Government
 contracts under FAR:
  
                    RESTRICTED RIGHTS LEGEND
  
 Use, reproduction and disclosure by the US Government is
 subject to restrictions as set forth in subparagraphs (a)
 and (c) of the Commercial Computer Software - Restricted
 Rights clause in FAR 52.227-19.
  
 Gaussian, Inc.
 340 Quinnipiac St., Bldg. 40, Wallingford CT 06492
  
  
 ---------------------------------------------------------------
 Warning -- This program may not be used in any manner that
 competes with the business of Gaussian, Inc. or will provide
 assistance to any competitor of Gaussian, Inc.  The licensee
 of this program is prohibited from giving any competitor of
 Gaussian, Inc. access to this program.  By using this program,
 the user acknowledges that Gaussian, Inc. is engaged in the
 business of creating and licensing software in the field of
 computational chemistry and represents and warrants to the
 licensee that it is not a competitor of Gaussian, Inc. and that
 it will not use this program in any manner prohibited above.
 ---------------------------------------------------------------
  

 Cite this work as:
 Gaussian 09, Revision D.01,
 M. J. Frisch, G. W. Trucks, H. B. Schlegel, G. E. Scuseria, 
 M. A. Robb, J. R. Cheeseman, G. Scalmani, V. Barone, B. Mennucci, 
 G. A. Petersson, H. Nakatsuji, M. Caricato, X. Li, H. P. Hratchian, 
 A. F. Izmaylov, J. Bloino, G. Zheng, J. L. Sonnenberg, M. Hada, 
 M. Ehara, K. Toyota, R. Fukuda, J. Hasegawa, M. Ishida, T. Nakajima, 
 Y. Honda, O. Kitao, H. Nakai, T. Vreven, J. A. Montgomery, Jr., 
 J. E. Peralta, F. Ogliaro, M. Bearpark, J. J. Heyd, E. Brothers, 
 K. N. Kudin, V. N. Staroverov, T. Keith, R. Kobayashi, J. Normand, 
 K. Raghavachari, A. Rendell, J. C. Burant, S. S. Iyengar, J. Tomasi, 
 M. Cossi, N. Rega, J. M. Millam, M. Klene, J. E. Knox, J. B. Cross, 
 V. Bakken, C. Adamo, J. Jaramillo, R. Gomperts, R. E. Stratmann, 
 O. Yazyev, A. J. Austin, R. Cammi, C. Pomelli, J. W. Ochterski, 
 R. L. Martin, K. Morokuma, V. G. Zakrzewski, G. A. Voth, 
 P. Salvador, J. J. Dannenberg, S. Dapprich, A. D. Daniels, 
 O. Farkas, J. B. Foresman, J. V. Ortiz, J. Cioslowski, 
 and D. J. Fox, Gaussian, Inc., Wallingford CT, 2013.
 
 ******************************************
 Gaussian 09:  AM64L-G09RevD.01 24-Apr-2013
                12-Apr-2022 
 ******************************************
 %chk=anthracene-2-7-opt
 ----------
 #n AM1 Opt
 ----------
 1/14=-1,18=20,19=15,26=1,38=1/1,3;
 2/9=110,12=2,17=6,18=5,40=1/2;
 3/5=2,16=1,25=1,41=700000,71=1/1,2,3;
 4/35=1/1;
 5/5=2,35=1,38=5/2;
 6/7=2,8=2,9=2,10=2,28=1/1;
 7//1,2,3,16;
 1/14=-1,18=20,19=15,26=1/3(2);
 2/9=110/2;
 99//99;
 2/9=110/2;
 3/5=2,16=1,25=1,41=700000,71=1,135=20/1,2,3;
 4/5=5,16=3,35=1/1;
 5/5=2,35=1,38=5/2;
 7//1,2,3,16;
 1/14=-1,18=20,19=15,26=1/3(-5);
 2/9=110/2;
 6/7=2,8=2,9=2,10=2,19=2,28=1/1;
 99/9=1/99;
 ---------------------
 Geometry optimization
 ---------------------
 Symbolic Z-matrix:
 Charge =  0 Multiplicity = 1
 C                     0.00418   1.44195   0.00028 
 C                     1.27422   0.68824   0.00015 
 C                    -1.2728    0.70006   0.00011 
 O                     0.00986   2.66691   0.00052 
 C                    -0.00923  -1.44771  -0.00035 
 C                    -1.27894  -0.69447  -0.00019 
 O                    -0.01492  -2.67325  -0.00064 
 C                     1.26742  -0.70629  -0.00016 
 C                     2.49107   1.37994   0.00035 
 C                    -2.49618  -1.39026  -0.00034 
 C                     2.47815  -1.41335  -0.00028 
 C                    -2.48317   1.40302   0.00025 
 C                     3.68648   0.66825   0.00024 
 C                     3.69214  -0.7233   -0.00008 
 C                    -3.68514   0.70246   0.0001 
 C                    -3.70372  -0.68898  -0.00019 
 H                     2.51104   2.46784   0.0006 
 H                    -2.50631  -2.47911  -0.00057 
 H                     2.47817  -2.50224  -0.00052 
 H                    -2.49305   2.49106   0.00048 
 H                     4.62229  -1.28412  -0.00017 
 H                    -4.63903  -1.24115  -0.0003 
 N                     4.84768   1.3809    0.00045 
 N                    -4.83967   1.42585   0.00026 
 H                    -5.7095    0.96472   0.00016 
 H                    -4.80411   2.40971   0.00047 
 H                     5.71319   0.91171   0.00038 
 H                     4.82125   2.36505   0.00067 
 

 GradGradGradGradGradGradGradGradGradGradGradGradGradGradGradGradGradGrad
 Berny optimization.
 Initialization pass.
                           ----------------------------
                           !    Initial Parameters    !
                           ! (Angstroms and Degrees)  !
 --------------------------                            --------------------------
 ! Name  Definition              Value          Derivative Info.                !
 --------------------------------------------------------------------------------
 ! R1    R(1,2)                  1.4768         estimate D2E/DX2                !
 ! R2    R(1,3)                  1.4768         estimate D2E/DX2                !
 ! R3    R(1,4)                  1.225          estimate D2E/DX2                !
 ! R4    R(2,8)                  1.3945         estimate D2E/DX2                !
 ! R5    R(2,9)                  1.3997         estimate D2E/DX2                !
 ! R6    R(3,6)                  1.3945         estimate D2E/DX2                !
 ! R7    R(3,12)                 1.3997         estimate D2E/DX2                !
 ! R8    R(5,6)                  1.4763         estimate D2E/DX2                !
 ! R9    R(5,7)                  1.2256         estimate D2E/DX2                !
 ! R10   R(5,8)                  1.4763         estimate D2E/DX2                !
 ! R11   R(6,10)                 1.4021         estimate D2E/DX2                !
 ! R12   R(8,11)                 1.4021         estimate D2E/DX2                !
 ! R13   R(9,13)                 1.3912         estimate D2E/DX2                !
 ! R14   R(9,17)                 1.0881         estimate D2E/DX2                !
 ! R15   R(10,16)                1.3964         estimate D2E/DX2                !
 ! R16   R(10,18)                1.0889         estimate D2E/DX2                !
 ! R17   R(11,14)                1.3964         estimate D2E/DX2                !
 ! R18   R(11,19)                1.0889         estimate D2E/DX2                !
 ! R19   R(12,15)                1.3912         estimate D2E/DX2                !
 ! R20   R(12,20)                1.0881         estimate D2E/DX2                !
 ! R21   R(13,14)                1.3916         estimate D2E/DX2                !
 ! R22   R(13,23)                1.3624         estimate D2E/DX2                !
 ! R23   R(14,21)                1.0861         estimate D2E/DX2                !
 ! R24   R(15,16)                1.3916         estimate D2E/DX2                !
 ! R25   R(15,24)                1.3624         estimate D2E/DX2                !
 ! R26   R(16,22)                1.0861         estimate D2E/DX2                !
 ! R27   R(23,27)                0.9845         estimate D2E/DX2                !
 ! R28   R(23,28)                0.9845         estimate D2E/DX2                !
 ! R29   R(24,25)                0.9845         estimate D2E/DX2                !
 ! R30   R(24,26)                0.9845         estimate D2E/DX2                !
 ! A1    A(2,1,3)              119.1574         estimate D2E/DX2                !
 ! A2    A(2,1,4)              120.4215         estimate D2E/DX2                !
 ! A3    A(3,1,4)              120.4211         estimate D2E/DX2                !
 ! A4    A(1,2,8)              120.4078         estimate D2E/DX2                !
 ! A5    A(1,2,9)              119.6974         estimate D2E/DX2                !
 ! A6    A(8,2,9)              119.8948         estimate D2E/DX2                !
 ! A7    A(1,3,6)              120.4077         estimate D2E/DX2                !
 ! A8    A(1,3,12)             119.6974         estimate D2E/DX2                !
 ! A9    A(6,3,12)             119.8949         estimate D2E/DX2                !
 ! A10   A(6,5,7)              120.412          estimate D2E/DX2                !
 ! A11   A(6,5,8)              119.1759         estimate D2E/DX2                !
 ! A12   A(7,5,8)              120.4121         estimate D2E/DX2                !
 ! A13   A(3,6,5)              120.4258         estimate D2E/DX2                !
 ! A14   A(3,6,10)             120.0051         estimate D2E/DX2                !
 ! A15   A(5,6,10)             119.5691         estimate D2E/DX2                !
 ! A16   A(2,8,5)              120.4254         estimate D2E/DX2                !
 ! A17   A(2,8,11)             120.0053         estimate D2E/DX2                !
 ! A18   A(5,8,11)             119.5692         estimate D2E/DX2                !
 ! A19   A(2,9,13)             119.617          estimate D2E/DX2                !
 ! A20   A(2,9,17)             120.667          estimate D2E/DX2                !
 ! A21   A(13,9,17)            119.7159         estimate D2E/DX2                !
 ! A22   A(6,10,16)            120.1012         estimate D2E/DX2                !
 ! A23   A(6,10,18)            120.2859         estimate D2E/DX2                !
 ! A24   A(16,10,18)           119.6129         estimate D2E/DX2                !
 ! A25   A(8,11,14)            120.1007         estimate D2E/DX2                !
 ! A26   A(8,11,19)            120.2858         estimate D2E/DX2                !
 ! A27   A(14,11,19)           119.6135         estimate D2E/DX2                !
 ! A28   A(3,12,15)            119.6173         estimate D2E/DX2                !
 ! A29   A(3,12,20)            120.6675         estimate D2E/DX2                !
 ! A30   A(15,12,20)           119.7152         estimate D2E/DX2                !
 ! A31   A(9,13,14)            121.0006         estimate D2E/DX2                !
 ! A32   A(9,13,23)            117.6942         estimate D2E/DX2                !
 ! A33   A(14,13,23)           121.3052         estimate D2E/DX2                !
 ! A34   A(11,14,13)           119.3815         estimate D2E/DX2                !
 ! A35   A(11,14,21)           119.2982         estimate D2E/DX2                !
 ! A36   A(13,14,21)           121.3203         estimate D2E/DX2                !
 ! A37   A(12,15,16)           121.0005         estimate D2E/DX2                !
 ! A38   A(12,15,24)           117.6946         estimate D2E/DX2                !
 ! A39   A(16,15,24)           121.3049         estimate D2E/DX2                !
 ! A40   A(10,16,15)           119.3809         estimate D2E/DX2                !
 ! A41   A(10,16,22)           119.2982         estimate D2E/DX2                !
 ! A42   A(15,16,22)           121.321          estimate D2E/DX2                !
 ! A43   A(13,23,27)           119.9998         estimate D2E/DX2                !
 ! A44   A(13,23,28)           119.9999         estimate D2E/DX2                !
 ! A45   A(27,23,28)           120.0003         estimate D2E/DX2                !
 ! A46   A(15,24,25)           120.0003         estimate D2E/DX2                !
 ! A47   A(15,24,26)           119.9999         estimate D2E/DX2                !
 ! A48   A(25,24,26)           119.9997         estimate D2E/DX2                !
 ! D1    D(3,1,2,8)              0.0014         estimate D2E/DX2                !
 ! D2    D(3,1,2,9)           -179.9981         estimate D2E/DX2                !
 ! D3    D(4,1,2,8)           -179.9982         estimate D2E/DX2                !
 ! D4    D(4,1,2,9)              0.0022         estimate D2E/DX2                !
 ! D5    D(2,1,3,6)             -0.001          estimate D2E/DX2                !
 ! D6    D(2,1,3,12)           179.9991         estimate D2E/DX2                !
 ! D7    D(4,1,3,6)            179.9987         estimate D2E/DX2                !
 ! D8    D(4,1,3,12)            -0.0012         estimate D2E/DX2                !
 ! D9    D(1,2,8,5)             -0.0006         estimate D2E/DX2                !
 ! D10   D(1,2,8,11)          -179.9999         estimate D2E/DX2                !
 ! D11   D(9,2,8,5)            179.999          estimate D2E/DX2                !
 ! D12   D(9,2,8,11)            -0.0004         estimate D2E/DX2                !
 ! D13   D(1,2,9,13)           179.9994         estimate D2E/DX2                !
 ! D14   D(1,2,9,17)             0.0            estimate D2E/DX2                !
 ! D15   D(8,2,9,13)            -0.0001         estimate D2E/DX2                !
 ! D16   D(8,2,9,17)          -179.9995         estimate D2E/DX2                !
 ! D17   D(1,3,6,5)             -0.0004         estimate D2E/DX2                !
 ! D18   D(1,3,6,10)           179.9995         estimate D2E/DX2                !
 ! D19   D(12,3,6,5)           179.9996         estimate D2E/DX2                !
 ! D20   D(12,3,6,10)           -0.0005         estimate D2E/DX2                !
 ! D21   D(1,3,12,15)         -179.9995         estimate D2E/DX2                !
 ! D22   D(1,3,12,20)            0.0002         estimate D2E/DX2                !
 ! D23   D(6,3,12,15)            0.0006         estimate D2E/DX2                !
 ! D24   D(6,3,12,20)         -179.9998         estimate D2E/DX2                !
 ! D25   D(7,5,6,3)           -179.9986         estimate D2E/DX2                !
 ! D26   D(7,5,6,10)             0.0015         estimate D2E/DX2                !
 ! D27   D(8,5,6,3)              0.0013         estimate D2E/DX2                !
 ! D28   D(8,5,6,10)          -179.9987         estimate D2E/DX2                !
 ! D29   D(6,5,8,2)             -0.0008         estimate D2E/DX2                !
 ! D30   D(6,5,8,11)           179.9986         estimate D2E/DX2                !
 ! D31   D(7,5,8,2)            179.999          estimate D2E/DX2                !
 ! D32   D(7,5,8,11)            -0.0016         estimate D2E/DX2                !
 ! D33   D(3,6,10,16)            0.0            estimate D2E/DX2                !
 ! D34   D(3,6,10,18)         -179.9997         estimate D2E/DX2                !
 ! D35   D(5,6,10,16)          179.9999         estimate D2E/DX2                !
 ! D36   D(5,6,10,18)            0.0002         estimate D2E/DX2                !
 ! D37   D(2,8,11,14)            0.0005         estimate D2E/DX2                !
 ! D38   D(2,8,11,19)          179.9999         estimate D2E/DX2                !
 ! D39   D(5,8,11,14)         -179.9989         estimate D2E/DX2                !
 ! D40   D(5,8,11,19)            0.0005         estimate D2E/DX2                !
 ! D41   D(2,9,13,14)            0.0007         estimate D2E/DX2                !
 ! D42   D(2,9,13,23)         -179.9996         estimate D2E/DX2                !
 ! D43   D(17,9,13,14)        -179.9999         estimate D2E/DX2                !
 ! D44   D(17,9,13,23)          -0.0002         estimate D2E/DX2                !
 ! D45   D(6,10,16,15)           0.0004         estimate D2E/DX2                !
 ! D46   D(6,10,16,22)        -179.9995         estimate D2E/DX2                !
 ! D47   D(18,10,16,15)       -179.9998         estimate D2E/DX2                !
 ! D48   D(18,10,16,22)          0.0003         estimate D2E/DX2                !
 ! D49   D(8,11,14,13)           0.0001         estimate D2E/DX2                !
 ! D50   D(8,11,14,21)         179.9996         estimate D2E/DX2                !
 ! D51   D(19,11,14,13)       -179.9994         estimate D2E/DX2                !
 ! D52   D(19,11,14,21)          0.0002         estimate D2E/DX2                !
 ! D53   D(3,12,15,16)          -0.0001         estimate D2E/DX2                !
 ! D54   D(3,12,15,24)         179.9993         estimate D2E/DX2                !
 ! D55   D(20,12,15,16)       -179.9998         estimate D2E/DX2                !
 ! D56   D(20,12,15,24)         -0.0004         estimate D2E/DX2                !
 ! D57   D(9,13,14,11)          -0.0006         estimate D2E/DX2                !
 ! D58   D(9,13,14,21)         179.9998         estimate D2E/DX2                !
 ! D59   D(23,13,14,11)        179.9997         estimate D2E/DX2                !
 ! D60   D(23,13,14,21)          0.0001         estimate D2E/DX2                !
 ! D61   D(9,13,23,27)        -179.9999         estimate D2E/DX2                !
 ! D62   D(9,13,23,28)          -0.0001         estimate D2E/DX2                !
 ! D63   D(14,13,23,27)         -0.0002         estimate D2E/DX2                !
 ! D64   D(14,13,23,28)        179.9996         estimate D2E/DX2                !
 ! D65   D(12,15,16,10)         -0.0004         estimate D2E/DX2                !
 ! D66   D(12,15,16,22)        179.9995         estimate D2E/DX2                !
 ! D67   D(24,15,16,10)       -179.9997         estimate D2E/DX2                !
 ! D68   D(24,15,16,22)          0.0001         estimate D2E/DX2                !
 ! D69   D(12,15,24,25)        179.9999         estimate D2E/DX2                !
 ! D70   D(12,15,24,26)          0.0003         estimate D2E/DX2                !
 ! D71   D(16,15,24,25)         -0.0007         estimate D2E/DX2                !
 ! D72   D(16,15,24,26)        179.9997         estimate D2E/DX2                !
 --------------------------------------------------------------------------------
 Trust Radius=3.00D-01 FncErr=1.00D-07 GrdErr=1.00D-07
 Number of steps in this run=    160 maximum allowed number of steps=    168.
 GradGradGradGradGradGradGradGradGradGradGradGradGradGradGradGradGradGrad

                          Input orientation:                          
 ---------------------------------------------------------------------
 Center     Atomic      Atomic             Coordinates (Angstroms)
 Number     Number       Type             X           Y           Z
 ---------------------------------------------------------------------
      1          6           0        0.004180    1.441950    0.000280
      2          6           0        1.274220    0.688240    0.000150
      3          6           0       -1.272800    0.700060    0.000110
      4          8           0        0.009860    2.666910    0.000520
      5          6           0       -0.009230   -1.447710   -0.000350
      6          6           0       -1.278940   -0.694470   -0.000190
      7          8           0       -0.014920   -2.673250   -0.000640
      8          6           0        1.267420   -0.706290   -0.000160
      9          6           0        2.491070    1.379940    0.000350
     10          6           0       -2.496180   -1.390260   -0.000340
     11          6           0        2.478150   -1.413350   -0.000280
     12          6           0       -2.483170    1.403020    0.000250
     13          6           0        3.686480    0.668250    0.000240
     14          6           0        3.692140   -0.723300   -0.000080
     15          6           0       -3.685140    0.702460    0.000100
     16          6           0       -3.703720   -0.688980   -0.000190
     17          1           0        2.511040    2.467840    0.000600
     18          1           0       -2.506310   -2.479110   -0.000570
     19          1           0        2.478170   -2.502240   -0.000520
     20          1           0       -2.493050    2.491060    0.000480
     21          1           0        4.622290   -1.284120   -0.000170
     22          1           0       -4.639030   -1.241150   -0.000300
     23          7           0        4.847680    1.380900    0.000450
     24          7           0       -4.839670    1.425850    0.000260
     25          1           0       -5.709500    0.964720    0.000160
     26          1           0       -4.804110    2.409710    0.000470
     27          1           0        5.713190    0.911710    0.000380
     28          1           0        4.821250    2.365050    0.000670
 ---------------------------------------------------------------------
                    Distance matrix (angstroms):
                    1          2          3          4          5
     1  C    0.000000
     2  C    1.476848   0.000000
     3  C    1.476848   2.547047   0.000000
     4  O    1.224973   2.348136   2.348130   0.000000
     5  C    2.889691   2.491892   2.491892   4.114664   0.000000
     6  C    2.492125   2.903535   1.394544   3.599984   1.476324
     7  O    4.115244   3.600208   3.600206   5.340218   1.225553
     8  C    2.492130   1.394547   2.903539   3.599991   1.476326
     9  C    2.487663   1.399705   3.824782   2.795120   3.774534
    10  C    3.777991   4.305355   2.422003   4.768738   2.487613
    11  C    3.777998   2.422009   4.305360   4.768750   2.487617
    12  C    2.487655   3.824773   1.399696   2.795106   3.774525
    13  C    3.762704   2.412343   4.959382   4.184755   4.258587
    14  C    4.276606   2.799783   5.164938   5.005268   3.771592
    15  C    3.762702   4.959380   2.412341   4.184745   4.258585
    16  C    4.276609   5.164942   2.799786   5.005265   3.771595
    17  H    2.708652   2.167187   4.176421   2.509090   4.656532
    18  H    4.655886   4.931989   3.410083   5.728231   2.701702
    19  H    4.655885   3.410082   4.931988   5.728234   2.701702
    20  H    2.708651   4.176420   2.167185   2.509080   4.656530
    21  H    5.362686   3.885843   6.220053   6.073315   4.634408
    22  H    5.362688   6.220054   3.885846   6.073311   4.634406
    23  N    4.843885   3.639972   6.158232   5.005829   5.620552
    24  N    4.843877   6.158224   3.639963   5.005814   5.620543
    25  H    5.733575   6.989191   4.444587   5.967288   6.189741
    26  H    4.904713   6.317401   3.923398   4.820836   6.153906
    27  H    5.733581   4.444591   6.989195   5.967303   6.189746
    28  H    4.904720   3.923406   6.317407   4.820850   6.153916
                    6          7          8          9         10
     6  C    0.000000
     7  O    2.348045   0.000000
     8  C    2.546387   2.348048   0.000000
     9  C    4.303040   4.765326   2.418610   0.000000
    10  C    1.402069   2.793334   3.825245   5.704969   0.000000
    11  C    3.825247   2.793340   1.402070   2.793320   4.974384
    12  C    2.418602   4.765316   4.303035   4.974294   2.793310
    13  C    5.149019   4.986580   2.782303   1.391225   6.516345
    14  C    4.971164   4.188627   2.424780   2.422021   6.224158
    15  C    2.782303   4.986575   5.149022   6.213256   2.406887
    16  C    2.424786   4.188624   4.971170   6.531145   1.396405
    17  H    4.936006   5.728113   3.409060   1.088083   6.321170
    18  H    2.165959   2.498943   4.169404   6.313959   1.088897
    19  H    4.169401   2.498948   2.165953   3.882202   5.097122
    20  H    3.409056   5.728109   4.936009   5.106470   3.881321
    21  H    5.930616   4.840806   3.404268   3.411644   7.119261
    22  H    3.404271   4.840796   5.930618   7.596607   2.148032
    23  N    6.468588   6.330957   4.144228   2.356610   7.849306
    24  N    4.144219   6.330943   6.468583   7.330884   3.663662
    25  H    4.731044   6.757445   7.174238   8.211075   3.983887
    26  H    4.697101   6.983754   6.824436   7.367501   4.445932
    27  H    7.174238   6.757454   4.731046   3.255963   8.526009
    28  H    6.824440   6.983768   4.697110   2.529858   8.224788
                   11         12         13         14         15
    11  C    0.000000
    12  C    5.704966   0.000000
    13  C    2.406890   6.213249   0.000000
    14  C    1.396403   6.531132   1.391562   0.000000
    15  C    6.516348   1.391228   7.371699   7.513791   0.000000
    16  C    6.224165   2.422025   7.513796   7.395940   1.391564
    17  H    3.881329   5.106464   2.149461   3.402701   6.442764
    18  H    5.097125   3.882199   6.946692   6.442333   3.392938
    19  H    1.088890   6.313949   3.392937   2.153683   6.946689
    20  H    6.321175   1.088085   6.442766   6.970559   2.149458
    21  H    2.148031   7.596597   2.165061   1.086139   8.541656
    22  H    7.119263   3.411652   8.541658   8.347249   2.165070
    23  N    3.663674   7.330883   1.362445   2.400610   8.559749
    24  N    7.849302   2.356611   8.559742   8.798331   1.362436
    25  H    8.526009   3.255966   9.400656   9.551976   2.041277
    26  H    8.224786   2.529859   8.667341   9.055496   2.041273
    27  H    3.983891   8.211072   2.041281   2.599596   9.400659
    28  H    4.445945   7.367500   2.041282   3.288282   8.667345
                   16         17         18         19         20
    16  C    0.000000
    17  H    6.970563   0.000000
    18  H    2.153684   7.046000   0.000000
    19  H    6.442335   4.970189   4.984534   0.000000
    20  H    3.402701   5.004144   4.970188   7.045997   0.000000
    21  H    8.347253   4.305181   7.228066   2.465982   8.054815
    22  H    1.086138   8.054819   2.465976   7.228062   4.305186
    23  N    8.798343   2.577077   8.305471   4.548995   7.424202
    24  N    2.400602   7.424196   4.548987   8.305460   2.577072
    25  H    2.599592   8.356832   4.703232   8.891443   3.560234
    26  H    3.288273   7.315381   5.401893   8.784011   2.312491
    27  H    9.551984   3.560239   8.891448   4.703234   8.356837
    28  H    9.055507   2.312496   8.784021   5.401901   7.315385
                   21         22         23         24         25
    21  H    0.000000
    22  H    9.261420   0.000000
    23  N    2.674534   9.842399   0.000000
    24  N    9.842389   2.674537   9.687454   0.000000
    25  H   10.573702   2.451891  10.565380   0.984502   0.000000
    26  H   10.124297   3.654590   9.706467   0.984502   1.705206
    27  H    2.451883  10.573706   0.984503  10.565377  11.422813
    28  H    3.654590  10.124306   0.984505   9.706465  10.623447
                   26         27         28
    26  H    0.000000
    27  H   10.623446   0.000000
    28  H    9.625464   1.705214   0.000000
 Stoichiometry    C14H10N2O2
 Framework group  C1[X(C14H10N2O2)]
 Deg. of freedom    78
 Full point group                 C1      NOp   1
 Largest Abelian subgroup         C1      NOp   1
 Largest concise Abelian subgroup C1      NOp   1
                         Standard orientation:                         
 ---------------------------------------------------------------------
 Center     Atomic      Atomic             Coordinates (Angstroms)
 Number     Number       Type             X           Y           Z
 ---------------------------------------------------------------------
      1          6           0        0.000000   -1.254727   -0.000036
      2          6           0       -1.273523   -0.506918   -0.000022
      3          6           0        1.273524   -0.506919   -0.000017
      4          8           0        0.000004   -2.479700   -0.000069
      5          6           0        0.000002    1.634964   -0.000023
      6          6           0        1.273193    0.887624   -0.000006
      7          8           0        0.000005    2.860518   -0.000040
      8          6           0       -1.273194    0.887629   -0.000022
      9          6           0       -2.487151   -1.204257    0.000001
     10          6           0        2.487191    1.589055    0.000021
     11          6           0       -2.487192    1.589063   -0.000007
     12          6           0        2.487143   -1.204255   -0.000011
     13          6           0       -3.685850   -0.498122    0.000027
     14          6           0       -3.697967    0.893387    0.000017
     15          6           0        3.685849   -0.498126    0.000018
     16          6           0        3.697972    0.893386    0.000038
     17          1           0       -2.502072   -2.292238    0.000008
     18          1           0        2.492269    2.677940    0.000034
     19          1           0       -2.492265    2.677941   -0.000005
     20          1           0        2.502071   -2.292238   -0.000023
     21          1           0       -4.630709    1.449885    0.000034
     22          1           0        4.630710    1.449890    0.000068
     23          7           0       -4.843731   -1.216152    0.000057
     24          7           0        4.843723   -1.216151    0.000038
     25          1           0        5.711404   -0.750989    0.000057
     26          1           0        4.812729   -2.200165    0.000029
     27          1           0       -5.711409   -0.750983    0.000075
     28          1           0       -4.812734   -2.200169    0.000058
 ---------------------------------------------------------------------
 Rotational constants (GHZ):      0.9960690      0.2707078      0.2128581
 Standard basis: VSTO-6G (5D, 7F)
 There are    82 symmetry adapted cartesian basis functions of A   symmetry.
 There are    82 symmetry adapted basis functions of A   symmetry.
    82 basis functions,   492 primitive gaussians,    82 cartesian basis functions
    44 alpha electrons       44 beta electrons
       nuclear repulsion energy       652.8690244173 Hartrees.
 Integral buffers will be    131072 words long.
 Regular integral format.
 Two-electron integral symmetry is turned off.
 Do NDO integrals.
 One-electron integrals computed using PRISM.
 NBasis=    82 RedAO= F EigKep=  0.00D+00  NBF=    82
 NBsUse=    82 1.00D-04 EigRej=  0.00D+00 NBFU=    82
 Simple Huckel Guess.
 Overlap will be assumed to be unity.
 Keep J ints in memory in canonical form, NReq=936458.
 Requested convergence on RMS density matrix=1.00D-08 within 128 cycles.
 Requested convergence on MAX density matrix=1.00D-06.
 Requested convergence on             energy=1.00D-06.
 No special actions if energy rises.
 SCF Done:  E(RAM1) = -0.647919724054E-02 A.U. after   15 cycles
            NFock= 14  Conv=0.82D-08     -V/T= 0.9999

 **********************************************************************

            Population analysis using the SCF density.

 **********************************************************************

 Orbital symmetries:
       Occupied  (A) (A) (A) (A) (A) (A) (A) (A) (A) (A) (A) (A)
                 (A) (A) (A) (A) (A) (A) (A) (A) (A) (A) (A) (A)
                 (A) (A) (A) (A) (A) (A) (A) (A) (A) (A) (A) (A)
                 (A) (A) (A) (A) (A) (A) (A) (A)
       Virtual   (A) (A) (A) (A) (A) (A) (A) (A) (A) (A) (A) (A)
                 (A) (A) (A) (A) (A) (A) (A) (A) (A) (A) (A) (A)
                 (A) (A) (A) (A) (A) (A) (A) (A) (A) (A) (A) (A)
                 (A) (A)
 The electronic state is 1-A.
 Alpha  occ. eigenvalues --   -1.53375  -1.47513  -1.44784  -1.42552  -1.32077
 Alpha  occ. eigenvalues --   -1.30985  -1.19778  -1.17079  -1.12713  -1.07541
 Alpha  occ. eigenvalues --   -0.97561  -0.91487  -0.87879  -0.84454  -0.79746
 Alpha  occ. eigenvalues --   -0.74789  -0.70070  -0.67578  -0.65975  -0.64651
 Alpha  occ. eigenvalues --   -0.64190  -0.60155  -0.59192  -0.58403  -0.58237
 Alpha  occ. eigenvalues --   -0.54796  -0.54445  -0.53514  -0.53399  -0.53398
 Alpha  occ. eigenvalues --   -0.52974  -0.51245  -0.50386  -0.49495  -0.46375
 Alpha  occ. eigenvalues --   -0.45021  -0.43679  -0.42713  -0.40132  -0.38336
 Alpha  occ. eigenvalues --   -0.36721  -0.36488  -0.32247  -0.31722
 Alpha virt. eigenvalues --   -0.03410   0.00044   0.00804   0.01631   0.06285
 Alpha virt. eigenvalues --    0.06918   0.08974   0.09381   0.09826   0.10752
 Alpha virt. eigenvalues --    0.11738   0.11948   0.13626   0.14112   0.14124
 Alpha virt. eigenvalues --    0.14701   0.14987   0.15390   0.15580   0.16325
 Alpha virt. eigenvalues --    0.16379   0.17035   0.17721   0.17786   0.18363
 Alpha virt. eigenvalues --    0.18602   0.18633   0.19109   0.19287   0.20287
 Alpha virt. eigenvalues --    0.20687   0.20694   0.22799   0.22814   0.22962
 Alpha virt. eigenvalues --    0.22979   0.23798   0.25109
          Condensed to atoms (all electrons):
               1          2          3          4          5          6
     1  C    3.695396   0.000000   0.000000   0.000000   0.000000   0.000000
     2  C    0.000000   4.055965   0.000000   0.000000   0.000000   0.000000
     3  C    0.000000   0.000000   4.055962   0.000000   0.000000   0.000000
     4  O    0.000000   0.000000   0.000000   6.285496   0.000000   0.000000
     5  C    0.000000   0.000000   0.000000   0.000000   3.681493   0.000000
     6  C    0.000000   0.000000   0.000000   0.000000   0.000000   4.172142
     7  O    0.000000   0.000000   0.000000   0.000000   0.000000   0.000000
     8  C    0.000000   0.000000   0.000000   0.000000   0.000000   0.000000
     9  C    0.000000   0.000000   0.000000   0.000000   0.000000   0.000000
    10  C    0.000000   0.000000   0.000000   0.000000   0.000000   0.000000
    11  C    0.000000   0.000000   0.000000   0.000000   0.000000   0.000000
    12  C    0.000000   0.000000   0.000000   0.000000   0.000000   0.000000
    13  C    0.000000   0.000000   0.000000   0.000000   0.000000   0.000000
    14  C    0.000000   0.000000   0.000000   0.000000   0.000000   0.000000
    15  C    0.000000   0.000000   0.000000   0.000000   0.000000   0.000000
    16  C    0.000000   0.000000   0.000000   0.000000   0.000000   0.000000
    17  H    0.000000   0.000000   0.000000   0.000000   0.000000   0.000000
    18  H    0.000000   0.000000   0.000000   0.000000   0.000000   0.000000
    19  H    0.000000   0.000000   0.000000   0.000000   0.000000   0.000000
    20  H    0.000000   0.000000   0.000000   0.000000   0.000000   0.000000
    21  H    0.000000   0.000000   0.000000   0.000000   0.000000   0.000000
    22  H    0.000000   0.000000   0.000000   0.000000   0.000000   0.000000
    23  N    0.000000   0.000000   0.000000   0.000000   0.000000   0.000000
    24  N    0.000000   0.000000   0.000000   0.000000   0.000000   0.000000
    25  H    0.000000   0.000000   0.000000   0.000000   0.000000   0.000000
    26  H    0.000000   0.000000   0.000000   0.000000   0.000000   0.000000
    27  H    0.000000   0.000000   0.000000   0.000000   0.000000   0.000000
    28  H    0.000000   0.000000   0.000000   0.000000   0.000000   0.000000
               7          8          9         10         11         12
     1  C    0.000000   0.000000   0.000000   0.000000   0.000000   0.000000
     2  C    0.000000   0.000000   0.000000   0.000000   0.000000   0.000000
     3  C    0.000000   0.000000   0.000000   0.000000   0.000000   0.000000
     4  O    0.000000   0.000000   0.000000   0.000000   0.000000   0.000000
     5  C    0.000000   0.000000   0.000000   0.000000   0.000000   0.000000
     6  C    0.000000   0.000000   0.000000   0.000000   0.000000   0.000000
     7  O    6.307155   0.000000   0.000000   0.000000   0.000000   0.000000
     8  C    0.000000   4.172138   0.000000   0.000000   0.000000   0.000000
     9  C    0.000000   0.000000   4.179622   0.000000   0.000000   0.000000
    10  C    0.000000   0.000000   0.000000   4.031309   0.000000   0.000000
    11  C    0.000000   0.000000   0.000000   0.000000   4.031310   0.000000
    12  C    0.000000   0.000000   0.000000   0.000000   0.000000   4.179624
    13  C    0.000000   0.000000   0.000000   0.000000   0.000000   0.000000
    14  C    0.000000   0.000000   0.000000   0.000000   0.000000   0.000000
    15  C    0.000000   0.000000   0.000000   0.000000   0.000000   0.000000
    16  C    0.000000   0.000000   0.000000   0.000000   0.000000   0.000000
    17  H    0.000000   0.000000   0.000000   0.000000   0.000000   0.000000
    18  H    0.000000   0.000000   0.000000   0.000000   0.000000   0.000000
    19  H    0.000000   0.000000   0.000000   0.000000   0.000000   0.000000
    20  H    0.000000   0.000000   0.000000   0.000000   0.000000   0.000000
    21  H    0.000000   0.000000   0.000000   0.000000   0.000000   0.000000
    22  H    0.000000   0.000000   0.000000   0.000000   0.000000   0.000000
    23  N    0.000000   0.000000   0.000000   0.000000   0.000000   0.000000
    24  N    0.000000   0.000000   0.000000   0.000000   0.000000   0.000000
    25  H    0.000000   0.000000   0.000000   0.000000   0.000000   0.000000
    26  H    0.000000   0.000000   0.000000   0.000000   0.000000   0.000000
    27  H    0.000000   0.000000   0.000000   0.000000   0.000000   0.000000
    28  H    0.000000   0.000000   0.000000   0.000000   0.000000   0.000000
              13         14         15         16         17         18
     1  C    0.000000   0.000000   0.000000   0.000000   0.000000   0.000000
     2  C    0.000000   0.000000   0.000000   0.000000   0.000000   0.000000
     3  C    0.000000   0.000000   0.000000   0.000000   0.000000   0.000000
     4  O    0.000000   0.000000   0.000000   0.000000   0.000000   0.000000
     5  C    0.000000   0.000000   0.000000   0.000000   0.000000   0.000000
     6  C    0.000000   0.000000   0.000000   0.000000   0.000000   0.000000
     7  O    0.000000   0.000000   0.000000   0.000000   0.000000   0.000000
     8  C    0.000000   0.000000   0.000000   0.000000   0.000000   0.000000
     9  C    0.000000   0.000000   0.000000   0.000000   0.000000   0.000000
    10  C    0.000000   0.000000   0.000000   0.000000   0.000000   0.000000
    11  C    0.000000   0.000000   0.000000   0.000000   0.000000   0.000000
    12  C    0.000000   0.000000   0.000000   0.000000   0.000000   0.000000
    13  C    3.863006   0.000000   0.000000   0.000000   0.000000   0.000000
    14  C    0.000000   4.213232   0.000000   0.000000   0.000000   0.000000
    15  C    0.000000   0.000000   3.863004   0.000000   0.000000   0.000000
    16  C    0.000000   0.000000   0.000000   4.213237   0.000000   0.000000
    17  H    0.000000   0.000000   0.000000   0.000000   0.845891   0.000000
    18  H    0.000000   0.000000   0.000000   0.000000   0.000000   0.843671
    19  H    0.000000   0.000000   0.000000   0.000000   0.000000   0.000000
    20  H    0.000000   0.000000   0.000000   0.000000   0.000000   0.000000
    21  H    0.000000   0.000000   0.000000   0.000000   0.000000   0.000000
    22  H    0.000000   0.000000   0.000000   0.000000   0.000000   0.000000
    23  N    0.000000   0.000000   0.000000   0.000000   0.000000   0.000000
    24  N    0.000000   0.000000   0.000000   0.000000   0.000000   0.000000
    25  H    0.000000   0.000000   0.000000   0.000000   0.000000   0.000000
    26  H    0.000000   0.000000   0.000000   0.000000   0.000000   0.000000
    27  H    0.000000   0.000000   0.000000   0.000000   0.000000   0.000000
    28  H    0.000000   0.000000   0.000000   0.000000   0.000000   0.000000
              19         20         21         22         23         24
     1  C    0.000000   0.000000   0.000000   0.000000   0.000000   0.000000
     2  C    0.000000   0.000000   0.000000   0.000000   0.000000   0.000000
     3  C    0.000000   0.000000   0.000000   0.000000   0.000000   0.000000
     4  O    0.000000   0.000000   0.000000   0.000000   0.000000   0.000000
     5  C    0.000000   0.000000   0.000000   0.000000   0.000000   0.000000
     6  C    0.000000   0.000000   0.000000   0.000000   0.000000   0.000000
     7  O    0.000000   0.000000   0.000000   0.000000   0.000000   0.000000
     8  C    0.000000   0.000000   0.000000   0.000000   0.000000   0.000000
     9  C    0.000000   0.000000   0.000000   0.000000   0.000000   0.000000
    10  C    0.000000   0.000000   0.000000   0.000000   0.000000   0.000000
    11  C    0.000000   0.000000   0.000000   0.000000   0.000000   0.000000
    12  C    0.000000   0.000000   0.000000   0.000000   0.000000   0.000000
    13  C    0.000000   0.000000   0.000000   0.000000   0.000000   0.000000
    14  C    0.000000   0.000000   0.000000   0.000000   0.000000   0.000000
    15  C    0.000000   0.000000   0.000000   0.000000   0.000000   0.000000
    16  C    0.000000   0.000000   0.000000   0.000000   0.000000   0.000000
    17  H    0.000000   0.000000   0.000000   0.000000   0.000000   0.000000
    18  H    0.000000   0.000000   0.000000   0.000000   0.000000   0.000000
    19  H    0.843671   0.000000   0.000000   0.000000   0.000000   0.000000
    20  H    0.000000   0.845891   0.000000   0.000000   0.000000   0.000000
    21  H    0.000000   0.000000   0.861968   0.000000   0.000000   0.000000
    22  H    0.000000   0.000000   0.000000   0.861967   0.000000   0.000000
    23  N    0.000000   0.000000   0.000000   0.000000   5.402185   0.000000
    24  N    0.000000   0.000000   0.000000   0.000000   0.000000   5.402179
    25  H    0.000000   0.000000   0.000000   0.000000   0.000000   0.000000
    26  H    0.000000   0.000000   0.000000   0.000000   0.000000   0.000000
    27  H    0.000000   0.000000   0.000000   0.000000   0.000000   0.000000
    28  H    0.000000   0.000000   0.000000   0.000000   0.000000   0.000000
              25         26         27         28
     1  C    0.000000   0.000000   0.000000   0.000000
     2  C    0.000000   0.000000   0.000000   0.000000
     3  C    0.000000   0.000000   0.000000   0.000000
     4  O    0.000000   0.000000   0.000000   0.000000
     5  C    0.000000   0.000000   0.000000   0.000000
     6  C    0.000000   0.000000   0.000000   0.000000
     7  O    0.000000   0.000000   0.000000   0.000000
     8  C    0.000000   0.000000   0.000000   0.000000
     9  C    0.000000   0.000000   0.000000   0.000000
    10  C    0.000000   0.000000   0.000000   0.000000
    11  C    0.000000   0.000000   0.000000   0.000000
    12  C    0.000000   0.000000   0.000000   0.000000
    13  C    0.000000   0.000000   0.000000   0.000000
    14  C    0.000000   0.000000   0.000000   0.000000
    15  C    0.000000   0.000000   0.000000   0.000000
    16  C    0.000000   0.000000   0.000000   0.000000
    17  H    0.000000   0.000000   0.000000   0.000000
    18  H    0.000000   0.000000   0.000000   0.000000
    19  H    0.000000   0.000000   0.000000   0.000000
    20  H    0.000000   0.000000   0.000000   0.000000
    21  H    0.000000   0.000000   0.000000   0.000000
    22  H    0.000000   0.000000   0.000000   0.000000
    23  N    0.000000   0.000000   0.000000   0.000000
    24  N    0.000000   0.000000   0.000000   0.000000
    25  H    0.775577   0.000000   0.000000   0.000000
    26  H    0.000000   0.770667   0.000000   0.000000
    27  H    0.000000   0.000000   0.775577   0.000000
    28  H    0.000000   0.000000   0.000000   0.770666
 Mulliken charges:
               1
     1  C    0.304604
     2  C   -0.055965
     3  C   -0.055962
     4  O   -0.285496
     5  C    0.318507
     6  C   -0.172142
     7  O   -0.307155
     8  C   -0.172138
     9  C   -0.179622
    10  C   -0.031309
    11  C   -0.031310
    12  C   -0.179624
    13  C    0.136994
    14  C   -0.213232
    15  C    0.136996
    16  C   -0.213237
    17  H    0.154109
    18  H    0.156329
    19  H    0.156329
    20  H    0.154109
    21  H    0.138032
    22  H    0.138033
    23  N   -0.402185
    24  N   -0.402179
    25  H    0.224423
    26  H    0.229333
    27  H    0.224423
    28  H    0.229334
 Sum of Mulliken charges =  -0.00000
 Mulliken charges with hydrogens summed into heavy atoms:
               1
     1  C    0.304604
     2  C   -0.055965
     3  C   -0.055962
     4  O   -0.285496
     5  C    0.318507
     6  C   -0.172142
     7  O   -0.307155
     8  C   -0.172138
     9  C   -0.025513
    10  C    0.125019
    11  C    0.125019
    12  C   -0.025515
    13  C    0.136994
    14  C   -0.075200
    15  C    0.136996
    16  C   -0.075204
    23  N    0.051573
    24  N    0.051577
 Charge=             -0.0000 electrons
 Dipole moment (field-independent basis, Debye):
    X=              0.0001    Y=             -1.9615    Z=              0.0002  Tot=              1.9615
 N-N= 6.528690244173D+02 E-N=-1.178461460976D+03  KE=-6.209252066921D+01
 Calling FoFJK, ICntrl=      2127 FMM=F ISym2X=0 I1Cent= 0 IOpClX= 0 NMat=1 NMatS=1 NMatT=0.
 ***** Axes restored to original set *****
 -------------------------------------------------------------------
 Center     Atomic                   Forces (Hartrees/Bohr)
 Number     Number              X              Y              Z
 -------------------------------------------------------------------
      1        6          -0.000077036   -0.016810816   -0.000004334
      2        6           0.005914057    0.006078338    0.000002458
      3        6          -0.005850741    0.006132524    0.000001134
      4        8           0.000171718    0.036804768    0.000007580
      5        6           0.000105867    0.022618417    0.000004451
      6        6           0.005066529   -0.007799384   -0.000001199
      7        8          -0.000177824   -0.038376975   -0.000008791
      8        6          -0.005140104   -0.007747792   -0.000001306
      9        6          -0.040507318   -0.000738323   -0.000001146
     10        6          -0.006056068    0.013463963    0.000003040
     11        6           0.006177442    0.013413882    0.000003708
     12        6           0.040488316   -0.001109445    0.000000125
     13        6           0.018295175    0.010803879    0.000002136
     14        6          -0.018481304   -0.029907719   -0.000007073
     15        6          -0.018187034    0.010964596    0.000003052
     16        6           0.018208007   -0.030075793   -0.000006617
     17        1          -0.005485522    0.010649449    0.000001897
     18        1           0.001900294   -0.009110065   -0.000002030
     19        1          -0.001984207   -0.009096814   -0.000002403
     20        1           0.005584739    0.010597423    0.000002179
     21        1           0.008557374   -0.005282948   -0.000001029
     22        1          -0.008606244   -0.005202689   -0.000001240
     23        7           0.025742978    0.006977613    0.000002830
     24        7          -0.025684330    0.007221797    0.000001400
     25        1          -0.002226987    0.000606236    0.000000069
     26        1          -0.001647439    0.002178565    0.000000350
     27        1           0.002231857    0.000586988    0.000000192
     28        1           0.001667804    0.002160324    0.000000565
 -------------------------------------------------------------------
 Cartesian Forces:  Max     0.040507318 RMS     0.012508204

 GradGradGradGradGradGradGradGradGradGradGradGradGradGradGradGradGradGrad
 Berny optimization.
 FormGI is forming the generalized inverse of G from B-inverse, IUseBI=4.
 Internal  Forces:  Max     0.041251522 RMS     0.009377872
 Search for a local minimum.
 Step number   1 out of a maximum of  160
 All quantities printed in internal units (Hartrees-Bohrs-Radians)
 Mixed Optimization -- RFO/linear search
 Second derivative matrix not updated -- first step.
 ITU=  0
     Eigenvalues ---    0.01072   0.01076   0.01079   0.01561   0.01647
     Eigenvalues ---    0.01775   0.01814   0.01891   0.01925   0.02097
     Eigenvalues ---    0.02097   0.02115   0.02115   0.02144   0.02144
     Eigenvalues ---    0.02168   0.02168   0.02183   0.02183   0.02189
     Eigenvalues ---    0.02189   0.02189   0.02189   0.02200   0.02200
     Eigenvalues ---    0.16000   0.16000   0.16000   0.16000   0.16000
     Eigenvalues ---    0.16000   0.16000   0.16000   0.16000   0.16000
     Eigenvalues ---    0.22430   0.22457   0.23519   0.23523   0.24611
     Eigenvalues ---    0.24635   0.25000   0.25000   0.25000   0.25000
     Eigenvalues ---    0.25000   0.25000   0.25000   0.33245   0.33971
     Eigenvalues ---    0.34940   0.34941   0.34964   0.34964   0.35035
     Eigenvalues ---    0.35035   0.35263   0.35263   0.40275   0.41817
     Eigenvalues ---    0.41863   0.42240   0.45132   0.45737   0.45973
     Eigenvalues ---    0.46008   0.46301   0.46719   0.46922   0.46935
     Eigenvalues ---    0.50520   0.50520   0.50520   0.50520   0.52456
     Eigenvalues ---    0.52458   0.92965   0.93213
 RFO step:  Lambda=-2.69518483D-02 EMin= 1.07220609D-02
 Linear search not attempted -- first point.
 Iteration  1 RMS(Cart)=  0.04830698 RMS(Int)=  0.00053063
 Iteration  2 RMS(Cart)=  0.00076585 RMS(Int)=  0.00008433
 Iteration  3 RMS(Cart)=  0.00000051 RMS(Int)=  0.00008433
 Variable       Old X    -DE/DX   Delta X   Delta X   Delta X     New X
                                 (Linear)    (Quad)   (Total)
    R1        2.79084   0.00487   0.00000   0.01350   0.01352   2.80436
    R2        2.79084   0.00488   0.00000   0.01351   0.01353   2.80437
    R3        2.31486   0.03681   0.00000   0.03838   0.03838   2.35324
    R4        2.63531   0.01438   0.00000   0.02687   0.02670   2.66201
    R5        2.64506  -0.00509   0.00000  -0.00980  -0.00982   2.63524
    R6        2.63531   0.01439   0.00000   0.02688   0.02671   2.66202
    R7        2.64504  -0.00509   0.00000  -0.00978  -0.00980   2.63524
    R8        2.78985   0.00159   0.00000   0.00367   0.00364   2.79349
    R9        2.31596   0.03838   0.00000   0.04012   0.04012   2.35608
   R10        2.78985   0.00159   0.00000   0.00367   0.00364   2.79349
   R11        2.64953   0.00032   0.00000  -0.00247  -0.00262   2.64691
   R12        2.64953   0.00032   0.00000  -0.00247  -0.00262   2.64691
   R13        2.62903   0.04125   0.00000   0.08587   0.08601   2.71504
   R14        2.05618   0.01055   0.00000   0.02795   0.02795   2.08413
   R15        2.63882  -0.00419   0.00000  -0.00930  -0.00928   2.62955
   R16        2.05772   0.00909   0.00000   0.02416   0.02416   2.08188
   R17        2.63882  -0.00419   0.00000  -0.00929  -0.00927   2.62954
   R18        2.05770   0.00910   0.00000   0.02417   0.02417   2.08187
   R19        2.62904   0.04125   0.00000   0.08586   0.08601   2.71505
   R20        2.05618   0.01055   0.00000   0.02795   0.02795   2.08413
   R21        2.62967   0.03211   0.00000   0.06689   0.06705   2.69672
   R22        2.57465   0.03035   0.00000   0.05503   0.05503   2.62968
   R23        2.05251   0.01006   0.00000   0.02649   0.02649   2.07900
   R24        2.62967   0.03211   0.00000   0.06689   0.06705   2.69673
   R25        2.57463   0.03036   0.00000   0.05505   0.05505   2.62968
   R26        2.05250   0.01006   0.00000   0.02649   0.02649   2.07900
   R27        1.86044   0.00168   0.00000   0.00316   0.00316   1.86360
   R28        1.86044   0.00211   0.00000   0.00397   0.00397   1.86442
   R29        1.86044   0.00168   0.00000   0.00316   0.00316   1.86360
   R30        1.86044   0.00212   0.00000   0.00398   0.00398   1.86442
    A1        2.07969  -0.00903   0.00000  -0.03357  -0.03361   2.04608
    A2        2.10175   0.00452   0.00000   0.01678   0.01680   2.11855
    A3        2.10174   0.00452   0.00000   0.01679   0.01681   2.11855
    A4        2.10151   0.00372   0.00000   0.01373   0.01377   2.11528
    A5        2.08911  -0.00710   0.00000  -0.02267  -0.02254   2.06658
    A6        2.09256   0.00338   0.00000   0.00894   0.00877   2.10132
    A7        2.10151   0.00372   0.00000   0.01373   0.01377   2.11528
    A8        2.08911  -0.00709   0.00000  -0.02267  -0.02253   2.06658
    A9        2.09256   0.00338   0.00000   0.00894   0.00876   2.10132
   A10        2.10159   0.00401   0.00000   0.01650   0.01657   2.11816
   A11        2.08001  -0.00801   0.00000  -0.03299  -0.03314   2.04687
   A12        2.10159   0.00400   0.00000   0.01650   0.01657   2.11815
   A13        2.10183   0.00480   0.00000   0.01955   0.01960   2.12143
   A14        2.09448   0.00127   0.00000  -0.00473  -0.00501   2.08948
   A15        2.08688  -0.00607   0.00000  -0.01482  -0.01459   2.07228
   A16        2.10182   0.00480   0.00000   0.01955   0.01960   2.12143
   A17        2.09449   0.00127   0.00000  -0.00473  -0.00501   2.08948
   A18        2.08688  -0.00607   0.00000  -0.01482  -0.01459   2.07228
   A19        2.08771   0.00143   0.00000   0.01210   0.01221   2.09992
   A20        2.10604  -0.00655   0.00000  -0.03729  -0.03734   2.06870
   A21        2.08944   0.00513   0.00000   0.02519   0.02513   2.11457
   A22        2.09616   0.00645   0.00000   0.01713   0.01699   2.11315
   A23        2.09938  -0.00527   0.00000  -0.01949  -0.01942   2.07996
   A24        2.08764  -0.00118   0.00000   0.00236   0.00243   2.09007
   A25        2.09615   0.00645   0.00000   0.01714   0.01700   2.11315
   A26        2.09938  -0.00527   0.00000  -0.01949  -0.01942   2.07996
   A27        2.08765  -0.00118   0.00000   0.00235   0.00242   2.09007
   A28        2.08772   0.00142   0.00000   0.01210   0.01220   2.09992
   A29        2.10604  -0.00655   0.00000  -0.03729  -0.03734   2.06870
   A30        2.08942   0.00513   0.00000   0.02519   0.02514   2.11456
   A31        2.11186  -0.01555   0.00000  -0.04766  -0.04735   2.06450
   A32        2.05415   0.01720   0.00000   0.05786   0.05771   2.11186
   A33        2.11717  -0.00165   0.00000  -0.01020  -0.01036   2.10682
   A34        2.08360   0.00303   0.00000   0.01422   0.01439   2.09799
   A35        2.08215  -0.00162   0.00000  -0.00769  -0.00778   2.07437
   A36        2.11744  -0.00141   0.00000  -0.00653  -0.00662   2.11082
   A37        2.11186  -0.01555   0.00000  -0.04766  -0.04735   2.06450
   A38        2.05416   0.01720   0.00000   0.05786   0.05770   2.11186
   A39        2.11717  -0.00165   0.00000  -0.01019  -0.01035   2.10682
   A40        2.08359   0.00303   0.00000   0.01423   0.01440   2.09799
   A41        2.08215  -0.00162   0.00000  -0.00769  -0.00778   2.07437
   A42        2.11745  -0.00141   0.00000  -0.00654  -0.00663   2.11082
   A43        2.09439   0.00089   0.00000   0.00476   0.00476   2.09915
   A44        2.09439   0.00116   0.00000   0.00621   0.00621   2.10060
   A45        2.09440  -0.00205   0.00000  -0.01096  -0.01096   2.08344
   A46        2.09440   0.00089   0.00000   0.00475   0.00475   2.09915
   A47        2.09439   0.00116   0.00000   0.00621   0.00621   2.10060
   A48        2.09439  -0.00205   0.00000  -0.01096  -0.01096   2.08343
    D1        0.00003   0.00000   0.00000   0.00000   0.00000   0.00003
    D2       -3.14156  -0.00000   0.00000  -0.00000  -0.00000  -3.14156
    D3       -3.14156  -0.00000   0.00000  -0.00000  -0.00000  -3.14157
    D4        0.00004  -0.00000   0.00000  -0.00001  -0.00001   0.00003
    D5       -0.00002  -0.00000   0.00000  -0.00001  -0.00001  -0.00002
    D6        3.14158  -0.00000   0.00000  -0.00001  -0.00001   3.14157
    D7        3.14157   0.00000   0.00000   0.00000   0.00000   3.14157
    D8       -0.00002   0.00000   0.00000   0.00000   0.00000  -0.00002
    D9       -0.00001   0.00000   0.00000   0.00000   0.00000  -0.00001
   D10       -3.14159  -0.00000   0.00000  -0.00000  -0.00000   3.14159
   D11        3.14157   0.00000   0.00000   0.00001   0.00001   3.14158
   D12       -0.00001   0.00000   0.00000   0.00000   0.00000  -0.00001
   D13        3.14158   0.00000   0.00000   0.00001   0.00001   3.14159
   D14       -0.00000  -0.00000   0.00000   0.00000   0.00000  -0.00000
   D15       -0.00000   0.00000   0.00000   0.00000   0.00000   0.00000
   D16       -3.14158  -0.00000   0.00000  -0.00001  -0.00001  -3.14159
   D17       -0.00001   0.00000   0.00000   0.00000   0.00000  -0.00001
   D18        3.14158   0.00000   0.00000   0.00000   0.00000   3.14159
   D19        3.14159   0.00000   0.00000   0.00000   0.00000   3.14159
   D20       -0.00001   0.00000   0.00000   0.00000   0.00000  -0.00001
   D21       -3.14158  -0.00000   0.00000  -0.00000  -0.00000  -3.14159
   D22        0.00000   0.00000   0.00000   0.00000   0.00000   0.00000
   D23        0.00001  -0.00000   0.00000  -0.00000  -0.00000   0.00001
   D24       -3.14159   0.00000   0.00000   0.00000   0.00000  -3.14159
   D25       -3.14157  -0.00000   0.00000  -0.00000  -0.00000  -3.14157
   D26        0.00003  -0.00000   0.00000  -0.00000  -0.00000   0.00002
   D27        0.00002   0.00000   0.00000   0.00000   0.00000   0.00003
   D28       -3.14157   0.00000   0.00000   0.00000   0.00000  -3.14157
   D29       -0.00001  -0.00000   0.00000  -0.00001  -0.00001  -0.00002
   D30        3.14157  -0.00000   0.00000  -0.00000  -0.00000   3.14157
   D31        3.14158   0.00000   0.00000   0.00000   0.00000   3.14158
   D32       -0.00003   0.00000   0.00000   0.00001   0.00001  -0.00002
   D33        0.00000  -0.00000   0.00000  -0.00000  -0.00000   0.00000
   D34       -3.14159  -0.00000   0.00000  -0.00000  -0.00000  -3.14159
   D35        3.14159   0.00000   0.00000   0.00000   0.00000  -3.14159
   D36        0.00000  -0.00000   0.00000  -0.00000  -0.00000   0.00000
   D37        0.00001  -0.00000   0.00000  -0.00000  -0.00000   0.00000
   D38        3.14159   0.00000   0.00000   0.00000   0.00000  -3.14159
   D39       -3.14157  -0.00000   0.00000  -0.00001  -0.00001  -3.14158
   D40        0.00001  -0.00000   0.00000  -0.00000  -0.00000   0.00001
   D41        0.00001  -0.00000   0.00000  -0.00001  -0.00001   0.00001
   D42       -3.14159  -0.00000   0.00000  -0.00000  -0.00000  -3.14159
   D43       -3.14159   0.00000   0.00000   0.00000   0.00000  -3.14159
   D44       -0.00000   0.00000   0.00000   0.00000   0.00000   0.00000
   D45        0.00001  -0.00000   0.00000  -0.00000  -0.00000   0.00000
   D46       -3.14158  -0.00000   0.00000  -0.00000  -0.00000  -3.14159
   D47       -3.14159   0.00000   0.00000   0.00000   0.00000  -3.14159
   D48        0.00001  -0.00000   0.00000  -0.00000  -0.00000   0.00000
   D49        0.00000   0.00000   0.00000  -0.00000  -0.00000   0.00000
   D50        3.14159   0.00000   0.00000   0.00000   0.00000   3.14159
   D51       -3.14158  -0.00000   0.00000  -0.00001  -0.00001  -3.14159
   D52        0.00000  -0.00000   0.00000  -0.00000  -0.00000   0.00000
   D53       -0.00000  -0.00000   0.00000   0.00000   0.00000  -0.00000
   D54        3.14158   0.00000   0.00000   0.00001   0.00001   3.14159
   D55       -3.14159  -0.00000   0.00000  -0.00000  -0.00000   3.14159
   D56       -0.00001   0.00000   0.00000   0.00000   0.00000  -0.00000
   D57       -0.00001   0.00000   0.00000   0.00001   0.00000  -0.00001
   D58        3.14159   0.00000   0.00000  -0.00000  -0.00000   3.14159
   D59        3.14159   0.00000   0.00000   0.00000   0.00000   3.14159
   D60        0.00000  -0.00000   0.00000  -0.00000  -0.00000  -0.00000
   D61       -3.14159  -0.00000   0.00000  -0.00000  -0.00000   3.14159
   D62       -0.00000  -0.00000   0.00000  -0.00000  -0.00000  -0.00000
   D63       -0.00000   0.00000   0.00000   0.00000   0.00000  -0.00000
   D64        3.14159   0.00000   0.00000   0.00000   0.00000   3.14159
   D65       -0.00001   0.00000   0.00000   0.00000   0.00000  -0.00000
   D66        3.14158   0.00000   0.00000   0.00000   0.00000   3.14159
   D67       -3.14159  -0.00000   0.00000  -0.00000  -0.00000  -3.14159
   D68        0.00000  -0.00000   0.00000  -0.00000  -0.00000  -0.00000
   D69        3.14159  -0.00000   0.00000  -0.00000  -0.00000   3.14159
   D70        0.00000  -0.00000   0.00000  -0.00000  -0.00000   0.00000
   D71       -0.00001   0.00000   0.00000   0.00000   0.00000  -0.00001
   D72        3.14159   0.00000   0.00000   0.00001   0.00001   3.14159
         Item               Value     Threshold  Converged?
 Maximum Force            0.041252     0.000450     NO 
 RMS     Force            0.009378     0.000300     NO 
 Maximum Displacement     0.255621     0.001800     NO 
 RMS     Displacement     0.048368     0.001200     NO 
 Predicted change in Energy=-1.432261D-02
 GradGradGradGradGradGradGradGradGradGradGradGradGradGradGradGradGradGrad

                          Input orientation:                          
 ---------------------------------------------------------------------
 Center     Atomic      Atomic             Coordinates (Angstroms)
 Number     Number       Type             X           Y           Z
 ---------------------------------------------------------------------
      1          6           0        0.004380    1.484135    0.000290
      2          6           0        1.267666    0.705434    0.000160
      3          6           0       -1.266084    0.717193    0.000117
      4          8           0        0.010161    2.729402    0.000538
      5          6           0       -0.009315   -1.466668   -0.000354
      6          6           0       -1.268015   -0.691485   -0.000187
      7          8           0       -0.015100   -2.713437   -0.000646
      8          6           0        1.256524   -0.703200   -0.000153
      9          6           0        2.476029    1.401503    0.000358
     10          6           0       -2.485424   -1.384183   -0.000339
     11          6           0        2.467452   -1.407169   -0.000272
     12          6           0       -2.467936    1.424447    0.000260
     13          6           0        3.723533    0.688795    0.000245
     14          6           0        3.687367   -0.737792   -0.000080
     15          6           0       -3.722003    0.723347    0.000107
     16          6           0       -3.699076   -0.703515   -0.000195
     17          1           0        2.448771    2.504042    0.000604
     18          1           0       -2.476456   -2.485828   -0.000576
     19          1           0        2.448257   -2.508682   -0.000519
     20          1           0       -2.430454    2.526687    0.000493
     21          1           0        4.616329   -1.327180   -0.000181
     22          1           0       -4.633465   -1.284259   -0.000318
     23          7           0        4.937556    1.368947    0.000443
     24          7           0       -4.929662    1.414736    0.000254
     25          1           0       -5.784265    0.922600    0.000142
     26          1           0       -4.939379    2.401296    0.000464
     27          1           0        5.787553    0.868899    0.000363
     28          1           0        4.956424    2.355374    0.000663
 ---------------------------------------------------------------------
                    Distance matrix (angstroms):
                    1          2          3          4          5
     1  C    0.000000
     2  C    1.484005   0.000000
     3  C    1.484007   2.533778   0.000000
     4  O    1.245281   2.382807   2.382810   0.000000
     5  C    2.950835   2.519664   2.519666   4.196115   0.000000
     6  C    2.520379   2.895006   1.408680   3.651876   1.478253
     7  O    4.197618   3.651598   3.651601   5.442898   1.246783
     8  C    2.520377   1.408677   2.895008   3.651873   1.478253
     9  C    2.473030   1.394508   3.804168   2.800682   3.795173
    10  C    3.798206   4.295601   2.429521   4.811396   2.477482
    11  C    3.798206   2.429522   4.295604   4.811393   2.477482
    12  C    2.473036   3.804170   1.394509   2.800691   3.795176
    13  C    3.803245   2.455923   4.989699   4.237123   4.310473
    14  C    4.301320   2.817419   5.162719   5.054036   3.767854
    15  C    3.803252   4.989702   2.455927   4.237134   4.310478
    16  C    4.301325   5.162719   2.817421   5.054043   3.767856
    17  H    2.648634   2.151744   4.122254   2.449001   4.669981
    18  H    4.681362   4.919614   3.424083   5.777706   2.669358
    19  H    4.681359   3.424082   4.919615   5.777702   2.669355
    20  H    2.648647   4.122264   2.151749   2.449019   4.669989
    21  H    5.401256   3.917277   6.227540   6.137804   4.627747
    22  H    5.401260   6.227538   3.917278   6.137812   4.627746
    23  N    4.934521   3.729388   6.237783   5.111757   5.701951
    24  N    4.934530   6.237787   3.729392   5.111770   5.701956
    25  H    5.815817   7.055275   4.522848   6.069589   6.249692
    26  H    5.028114   6.434544   4.040952   4.960403   6.266313
    27  H    5.815807   4.522842   7.055269   6.069574   6.249684
    28  H    5.028101   4.040945   6.434536   4.960385   6.266305
                    6          7          8          9         10
     6  C    0.000000
     7  O    2.378674   0.000000
     8  C    2.524566   2.378673   0.000000
     9  C    4.289343   4.810245   2.432482   0.000000
    10  C    1.400685   2.805248   3.803408   5.689997   0.000000
    11  C    3.803408   2.805245   1.400685   2.808685   4.952929
    12  C    2.432484   4.810249   4.289346   4.944018   2.808685
    13  C    5.178873   5.054954   2.832628   1.436740   6.545868
    14  C    4.955598   4.196598   2.431089   2.458439   6.206543
    15  C    2.832633   5.054960   5.178878   6.235022   2.443525
    16  C    2.431091   4.196602   4.955600   6.524034   1.391496
    17  H    4.901621   5.769987   3.421674   1.102876   6.282084
    18  H    2.163330   2.471858   4.136775   6.295907   1.101681
    19  H    4.136772   2.471852   2.163329   3.910284   5.060208
    20  H    3.421680   5.769995   4.901630   5.033847   3.911256
    21  H    5.918582   4.834444   3.417256   3.467938   7.101982
    22  H    3.417256   4.834444   5.918581   7.599883   2.150364
    23  N    6.538691   6.418306   4.224190   2.461742   7.917092
    24  N    4.224196   6.418313   6.538697   7.405703   3.715945
    25  H    4.796018   6.819387   7.226060   8.274165   4.025370
    26  H    4.800439   7.099932   6.930160   7.482503   4.511292
    27  H    7.226052   6.819378   4.796010   3.354081   8.574295
    28  H    6.930151   7.099923   4.800431   2.657486   8.328589
                   11         12         13         14         15
    11  C    0.000000
    12  C    5.690001   0.000000
    13  C    2.443523   6.235020   0.000000
    14  C    1.391495   6.524035   1.427045   0.000000
    15  C    6.545873   1.436742   7.445617   7.552066   0.000000
    16  C    6.206545   2.458440   7.552063   7.386522   1.427046
    17  H    3.911256   5.033839   2.218139   3.470390   6.422564
    18  H    5.060211   3.910284   6.965493   6.406898   3.442411
    19  H    1.101680   6.295909   3.442410   2.161353   6.965496
    20  H    6.282094   1.102876   6.422570   6.934303   2.218137
    21  H    2.150365   7.599886   2.204821   1.100159   8.586760
    22  H    7.101981   3.467940   8.586755   8.338757   2.204823
    23  N    3.715943   7.405700   1.391566   2.449759   8.683592
    24  N    7.917098   2.461745   8.683593   8.881811   1.391567
    25  H    8.574303   3.354085   9.510673   9.616066   2.071865
    26  H    8.328598   2.657492   8.830555   9.180121   2.073045
    27  H    4.025364   8.274161   2.071863   2.644284   9.510670
    28  H    4.511287   7.482496   2.073043   3.343379   8.830550
                   16         17         18         19         20
    16  C    0.000000
    17  H    6.934295   0.000000
    18  H    2.161351   7.011181   0.000000
    19  H    6.406897   5.012724   4.924766   0.000000
    20  H    3.470389   4.879278   5.012726   7.011188   0.000000
    21  H    8.338760   4.401882   7.186798   2.469106   8.031777
    22  H    1.100158   8.031768   2.469100   7.186793   4.401882
    23  N    8.881807   2.735414   8.356247   4.607886   7.458413
    24  N    2.449761   7.458409   4.607887   8.356249   2.735411
    25  H    2.644289   8.383546   4.749630   8.918976   3.717680
    26  H    3.343382   7.388864   5.472657   8.870460   2.512056
    27  H    9.616060   3.717682   8.918971   4.749626   8.383550
    28  H    9.180113   2.512056   8.870453   5.472654   7.388865
                   21         22         23         24         25
    21  H    0.000000
    22  H    9.249894   0.000000
    23  N    2.715195   9.931965   0.000000
    24  N    9.931971   2.715200   9.867324   0.000000
    25  H   10.641141   2.488890  10.731108   0.986177   0.000000
    26  H   10.257343   3.698230   9.930739   0.986608   1.703049
    27  H    2.488880  10.641133   0.986176  10.731106  11.571943
    28  H    3.698225  10.257334   0.986608   9.930735  10.835832
                   26         27         28
    26  H    0.000000
    27  H   10.835834   0.000000
    28  H    9.895909   1.703051   0.000000
 Stoichiometry    C14H10N2O2
 Framework group  C1[X(C14H10N2O2)]
 Deg. of freedom    78
 Full point group                 C1      NOp   1
 Largest Abelian subgroup         C1      NOp   1
 Largest concise Abelian subgroup C1      NOp   1
                         Standard orientation:                         
 ---------------------------------------------------------------------
 Center     Atomic      Atomic             Coordinates (Angstroms)
 Number     Number       Type             X           Y           Z
 ---------------------------------------------------------------------
      1          6           0       -0.000002   -1.291475   -0.000036
      2          6           0       -1.266889   -0.518645   -0.000017
      3          6           0        1.266889   -0.518646   -0.000016
      4          8           0       -0.000004   -2.536756   -0.000065
      5          6           0       -0.000001    1.659359   -0.000024
      6          6           0        1.262282    0.890026   -0.000007
      7          8           0       -0.000002    2.906142   -0.000040
      8          6           0       -1.262284    0.890025   -0.000017
      9          6           0       -2.472008   -1.220315    0.000003
     10          6           0        2.476464    1.588366    0.000018
     11          6           0       -2.476466    1.588367   -0.000002
     12          6           0        2.472010   -1.220315   -0.000007
     13          6           0       -3.722807   -0.513403    0.000025
     14          6           0       -3.693261    0.913336    0.000018
     15          6           0        3.722810   -0.513403    0.000020
     16          6           0        3.693261    0.913337    0.000034
     17          1           0       -2.439634   -2.322715    0.000004
     18          1           0        2.462384    2.689957    0.000026
     19          1           0       -2.462383    2.689957   -0.000004
     20          1           0        2.439644   -2.322717   -0.000019
     21          1           0       -4.624949    1.498406    0.000030
     22          1           0        4.624945    1.498412    0.000058
     23          7           0       -4.933659   -1.199182    0.000049
     24          7           0        4.933664   -1.199180    0.000036
     25          1           0        5.785975   -0.703084    0.000049
     26          1           0        4.947959   -2.185685    0.000027
     27          1           0       -5.785968   -0.703084    0.000064
     28          1           0       -4.947950   -2.185686    0.000050
 ---------------------------------------------------------------------
 Rotational constants (GHZ):      0.9717996      0.2664861      0.2091368
 Standard basis: VSTO-6G (5D, 7F)
 There are    82 symmetry adapted cartesian basis functions of A   symmetry.
 There are    82 symmetry adapted basis functions of A   symmetry.
    82 basis functions,   492 primitive gaussians,    82 cartesian basis functions
    44 alpha electrons       44 beta electrons
       nuclear repulsion energy       648.4081014728 Hartrees.
 Integral buffers will be    131072 words long.
 Regular integral format.
 Two-electron integral symmetry is turned off.
 Do NDO integrals.
 One-electron integrals computed using PRISM.
 NBasis=    82 RedAO= F EigKep=  0.00D+00  NBF=    82
 NBsUse=    82 1.00D-04 EigRej=  0.00D+00 NBFU=    82
 Initial guess from the checkpoint file:  "anthracene-2-7-opt.chk"
 B after Tr=    -0.000000   -0.000000   -0.000000
         Rot=    1.000000    0.000000    0.000000   -0.000000 Ang=   0.00 deg.
 Overlap will be assumed to be unity.
 Keep J ints in memory in canonical form, NReq=936458.
 Requested convergence on RMS density matrix=1.00D-08 within 128 cycles.
 Requested convergence on MAX density matrix=1.00D-06.
 Requested convergence on             energy=1.00D-06.
 No special actions if energy rises.
 SCF Done:  E(RAM1) = -0.139920330399E-01 A.U. after   13 cycles
            NFock= 12  Conv=0.83D-08     -V/T= 0.9998
 Calling FoFJK, ICntrl=      2127 FMM=F ISym2X=0 I1Cent= 0 IOpClX= 0 NMat=1 NMatS=1 NMatT=0.
 ***** Axes restored to original set *****
 -------------------------------------------------------------------
 Center     Atomic                   Forces (Hartrees/Bohr)
 Number     Number              X              Y              Z
 -------------------------------------------------------------------
      1        6           0.000029002    0.006697765    0.000001344
      2        6           0.003552627   -0.001562231   -0.000000058
      3        6          -0.003566694   -0.001529032   -0.000000636
      4        8          -0.000054622   -0.011667577   -0.000002345
      5        6          -0.000019410   -0.004172073   -0.000000970
      6        6           0.005025031   -0.000247079   -0.000000083
      7        8           0.000047408    0.010266761    0.000002383
      8        6          -0.005027545   -0.000202724    0.000000008
      9        6           0.011933560   -0.011139090   -0.000001874
     10        6          -0.003172046    0.008155777    0.000001753
     11        6           0.003247026    0.008126682    0.000002029
     12        6          -0.012036360   -0.011028661   -0.000002241
     13        6           0.003919945    0.005239807    0.000000860
     14        6          -0.004141080    0.010541204    0.000002450
     15        6          -0.003870198    0.005275081    0.000001462
     16        6           0.004239464    0.010504125    0.000002177
     17        1           0.001908975   -0.001315485   -0.000000325
     18        1           0.000672070   -0.001121604   -0.000000255
     19        1          -0.000682177   -0.001115673   -0.000000354
     20        1          -0.001920332   -0.001298352   -0.000000248
     21        1           0.000328311    0.002038270    0.000000438
     22        1          -0.000310025    0.002041199    0.000000324
     23        7          -0.019796465   -0.008938827   -0.000002669
     24        7           0.019712809   -0.009122214   -0.000001903
     25        1           0.001898742   -0.000871900   -0.000000223
     26        1           0.001747708   -0.001358456   -0.000000378
     27        1          -0.001906140   -0.000853814   -0.000000301
     28        1          -0.001759585   -0.001341877   -0.000000367
 -------------------------------------------------------------------
 Cartesian Forces:  Max     0.019796465 RMS     0.005342721

 GradGradGradGradGradGradGradGradGradGradGradGradGradGradGradGradGradGrad
 Berny optimization.
 Using GEDIIS/GDIIS optimizer.
 FormGI is forming the generalized inverse of G from B-inverse, IUseBI=4.
 GSVD:  received Info=                   1 from GESDD.
 Internal  Forces:  Max     0.025912557 RMS     0.004815999
 Search for a local minimum.
 Step number   2 out of a maximum of  160
 All quantities printed in internal units (Hartrees-Bohrs-Radians)
 Mixed Optimization -- RFO/linear search
 Update second derivatives using D2CorX and points    1    2
 DE= -7.51D-03 DEPred=-1.43D-02 R= 5.25D-01
 TightC=F SS=  1.41D+00  RLast= 2.52D-01 DXNew= 5.0454D-01 7.5589D-01
 Trust test= 5.25D-01 RLast= 2.52D-01 DXMaxT set to 5.05D-01
 ITU=  1  0
 Use linear search instead of GDIIS.
     Eigenvalues ---    0.01072   0.01076   0.01079   0.01572   0.01646
     Eigenvalues ---    0.01778   0.01814   0.01897   0.01929   0.02098
     Eigenvalues ---    0.02098   0.02115   0.02115   0.02147   0.02147
     Eigenvalues ---    0.02168   0.02168   0.02181   0.02181   0.02189
     Eigenvalues ---    0.02189   0.02189   0.02189   0.02200   0.02200
     Eigenvalues ---    0.15895   0.16000   0.16000   0.16000   0.16000
     Eigenvalues ---    0.16000   0.16000   0.16000   0.16000   0.16216
     Eigenvalues ---    0.22396   0.22453   0.23276   0.23509   0.24192
     Eigenvalues ---    0.24610   0.24892   0.25000   0.25000   0.25000
     Eigenvalues ---    0.25000   0.25000   0.25130   0.33270   0.33913
     Eigenvalues ---    0.34396   0.34941   0.34964   0.34984   0.35035
     Eigenvalues ---    0.35157   0.35263   0.35327   0.40366   0.41907
     Eigenvalues ---    0.41913   0.42550   0.45133   0.45161   0.45943
     Eigenvalues ---    0.45973   0.46318   0.46911   0.46913   0.49419
     Eigenvalues ---    0.50520   0.50520   0.50520   0.50536   0.52457
     Eigenvalues ---    0.72674   0.93057   0.98876
 RFO step:  Lambda=-1.27225971D-03 EMin= 1.07220609D-02
 Quartic linear search produced a step of -0.30493.
 Iteration  1 RMS(Cart)=  0.02004702 RMS(Int)=  0.00005183
 Iteration  2 RMS(Cart)=  0.00008798 RMS(Int)=  0.00002349
 Iteration  3 RMS(Cart)=  0.00000000 RMS(Int)=  0.00002349
 Variable       Old X    -DE/DX   Delta X   Delta X   Delta X     New X
                                 (Linear)    (Quad)   (Total)
    R1        2.80436  -0.00445  -0.00412  -0.00425  -0.00839   2.79598
    R2        2.80437  -0.00446  -0.00413  -0.00426  -0.00839   2.79598
    R3        2.35324  -0.01167  -0.01170   0.00469  -0.00702   2.34622
    R4        2.66201  -0.00705  -0.00814  -0.00050  -0.00859   2.65342
    R5        2.63524  -0.00587   0.00299  -0.01252  -0.00952   2.62572
    R6        2.66202  -0.00705  -0.00815  -0.00050  -0.00859   2.65343
    R7        2.63524  -0.00587   0.00299  -0.01252  -0.00952   2.62572
    R8        2.79349  -0.00561  -0.00111  -0.00981  -0.01091   2.78258
    R9        2.35608  -0.01027  -0.01223   0.00632  -0.00592   2.35016
   R10        2.79349  -0.00561  -0.00111  -0.00981  -0.01091   2.78259
   R11        2.64691  -0.00378   0.00080  -0.00564  -0.00481   2.64211
   R12        2.64691  -0.00378   0.00080  -0.00564  -0.00481   2.64211
   R13        2.71504  -0.02109  -0.02623  -0.00237  -0.02863   2.68641
   R14        2.08413  -0.00136  -0.00852   0.00688  -0.00164   2.08249
   R15        2.62955  -0.00525   0.00283  -0.01084  -0.00802   2.62152
   R16        2.08188   0.00113  -0.00737   0.01050   0.00314   2.08501
   R17        2.62954  -0.00525   0.00283  -0.01084  -0.00802   2.62152
   R18        2.08187   0.00113  -0.00737   0.01051   0.00314   2.08501
   R19        2.71505  -0.02109  -0.02623  -0.00237  -0.02863   2.68641
   R20        2.08413  -0.00136  -0.00852   0.00688  -0.00165   2.08249
   R21        2.69672  -0.01536  -0.02045  -0.00029  -0.02078   2.67594
   R22        2.62968  -0.02591  -0.01678  -0.01522  -0.03200   2.59768
   R23        2.07900  -0.00081  -0.00808   0.00747  -0.00060   2.07839
   R24        2.69673  -0.01536  -0.02045  -0.00029  -0.02079   2.67594
   R25        2.62968  -0.02591  -0.01679  -0.01522  -0.03200   2.59768
   R26        2.07900  -0.00081  -0.00808   0.00747  -0.00060   2.07839
   R27        1.86360  -0.00121  -0.00096  -0.00057  -0.00153   1.86207
   R28        1.86442  -0.00138  -0.00121  -0.00051  -0.00173   1.86269
[...]
    16  C    0.000000
    17  H    6.917155   0.000000
    18  H    2.161412   7.000933   0.000000
    19  H    6.404179   4.994931   4.929844   0.000000
    20  H    3.444351   4.881236   4.994931   7.000933   0.000000
    21  H    8.332952   4.366903   7.195897   2.480687   8.015428
    22  H    1.099995   8.015428   2.480687   7.195897   4.366903
    23  N    8.836131   2.690253   8.325815   4.588920   7.417724
    24  N    2.431158   7.417724   4.588920   8.325815   2.690252
    25  H    2.625634   8.344764   4.732021   8.893674   3.672707
    26  H    3.322333   7.334261   5.449584   8.828291   2.454849
    27  H    9.575379   3.672707   8.893674   4.732021   8.344764
    28  H    9.119993   2.454849   8.828291   5.449584   7.334261
                   21         22         23         24         25
    21  H    0.000000
    22  H    9.255288   0.000000
    23  N    2.691013   9.891753   0.000000
    24  N    9.891753   2.691013   9.789563   0.000000
    25  H   10.607342   2.461091  10.657202   0.985772   0.000000
    26  H   10.201030   3.673395   9.837057   0.986099   1.705948
    27  H    2.461090  10.607341   0.985772  10.657202  11.502476
    28  H    3.673395  10.201030   0.986099   9.837057  10.745567
                   26         27         28
    26  H    0.000000
    27  H   10.745566   0.000000
    28  H    9.785453   1.705948   0.000000
 Stoichiometry    C14H10N2O2
 Framework group  C1[X(C14H10N2O2)]
 Deg. of freedom    78
 Full point group                 C1      NOp   1
 Largest Abelian subgroup         C1      NOp   1
 Largest concise Abelian subgroup C1      NOp   1
                         Standard orientation:                         
 ---------------------------------------------------------------------
 Center     Atomic      Atomic             Coordinates (Angstroms)
 Number     Number       Type             X           Y           Z
 ---------------------------------------------------------------------
      1          6           0        0.000000   -1.282241   -0.000070
      2          6           0       -1.263864   -0.509420   -0.000031
      3          6           0        1.263864   -0.509420   -0.000031
      4          8           0        0.000000   -2.522112   -0.000061
      5          6           0        0.000000    1.664569   -0.000053
      6          6           0        1.255678    0.895029   -0.000024
      7          8           0       -0.000000    2.906834   -0.000027
      8          6           0       -1.255678    0.895029   -0.000024
      9          6           0       -2.466983   -1.208406   -0.000004
     10          6           0        2.477463    1.580309    0.000011
     11          6           0       -2.477463    1.580309    0.000009
     12          6           0        2.466983   -1.208406   -0.000005
     13          6           0       -3.707690   -0.517012    0.000031
     14          6           0       -3.685899    0.900679    0.000036
     15          6           0        3.707690   -0.517012    0.000031
     16          6           0        3.685899    0.900679    0.000038
     17          1           0       -2.440618   -2.310680   -0.000011
     18          1           0        2.464922    2.684192    0.000015
     19          1           0       -2.464922    2.684192    0.000012
     20          1           0        2.440618   -2.310680   -0.000013
     21          1           0       -4.627644    1.469103    0.000062
     22          1           0        4.627644    1.469103    0.000065
     23          7           0       -4.894781   -1.208617    0.000059
     24          7           0        4.894781   -1.208618    0.000059
     25          1           0        5.751238   -0.720532    0.000073
     26          1           0        4.892726   -2.194715    0.000045
     27          1           0       -5.751238   -0.720532    0.000080
     28          1           0       -4.892726   -2.194715    0.000051
 ---------------------------------------------------------------------
 Rotational constants (GHZ):      0.9766179      0.2689795      0.2108950

 **********************************************************************

            Population analysis using the SCF density.

 **********************************************************************

 Orbital symmetries:
       Occupied  (A) (A) (A) (A) (A) (A) (A) (A) (A) (A) (A) (A)
                 (A) (A) (A) (A) (A) (A) (A) (A) (A) (A) (A) (A)
                 (A) (A) (A) (A) (A) (A) (A) (A) (A) (A) (A) (A)
                 (A) (A) (A) (A) (A) (A) (A) (A)
       Virtual   (A) (A) (A) (A) (A) (A) (A) (A) (A) (A) (A) (A)
                 (A) (A) (A) (A) (A) (A) (A) (A) (A) (A) (A) (A)
                 (A) (A) (A) (A) (A) (A) (A) (A) (A) (A) (A) (A)
                 (A) (A)
 The electronic state is 1-A.
 Alpha  occ. eigenvalues --   -1.52186  -1.45817  -1.43398  -1.40731  -1.31427
 Alpha  occ. eigenvalues --   -1.30487  -1.19427  -1.16757  -1.12804  -1.07148
 Alpha  occ. eigenvalues --   -0.97382  -0.91073  -0.87258  -0.83782  -0.79568
 Alpha  occ. eigenvalues --   -0.74765  -0.69774  -0.67412  -0.66012  -0.64458
 Alpha  occ. eigenvalues --   -0.63740  -0.60286  -0.58577  -0.58284  -0.57791
 Alpha  occ. eigenvalues --   -0.54383  -0.54131  -0.53330  -0.53246  -0.52814
 Alpha  occ. eigenvalues --   -0.52361  -0.50577  -0.50485  -0.49411  -0.45672
 Alpha  occ. eigenvalues --   -0.44558  -0.43616  -0.42607  -0.40138  -0.38282
 Alpha  occ. eigenvalues --   -0.36821  -0.36565  -0.32041  -0.31427
 Alpha virt. eigenvalues --   -0.03630   0.00064   0.00884   0.01555   0.06059
 Alpha virt. eigenvalues --    0.06745   0.08553   0.08948   0.09739   0.10756
 Alpha virt. eigenvalues --    0.11914   0.11937   0.13463   0.13831   0.13860
 Alpha virt. eigenvalues --    0.14476   0.14835   0.15114   0.15385   0.16142
 Alpha virt. eigenvalues --    0.16240   0.16903   0.17549   0.17681   0.18298
 Alpha virt. eigenvalues --    0.18594   0.18595   0.19205   0.19490   0.20425
 Alpha virt. eigenvalues --    0.20591   0.20625   0.22643   0.22665   0.22737
 Alpha virt. eigenvalues --    0.22749   0.23668   0.25121
          Condensed to atoms (all electrons):
               1          2          3          4          5          6
     1  C    3.697427   0.000000   0.000000   0.000000   0.000000   0.000000
     2  C    0.000000   4.053574   0.000000   0.000000   0.000000   0.000000
     3  C    0.000000   0.000000   4.053574   0.000000   0.000000   0.000000
     4  O    0.000000   0.000000   0.000000   6.291585   0.000000   0.000000
     5  C    0.000000   0.000000   0.000000   0.000000   3.678775   0.000000
     6  C    0.000000   0.000000   0.000000   0.000000   0.000000   4.172872
     7  O    0.000000   0.000000   0.000000   0.000000   0.000000   0.000000
     8  C    0.000000   0.000000   0.000000   0.000000   0.000000   0.000000
     9  C    0.000000   0.000000   0.000000   0.000000   0.000000   0.000000
    10  C    0.000000   0.000000   0.000000   0.000000   0.000000   0.000000
    11  C    0.000000   0.000000   0.000000   0.000000   0.000000   0.000000
    12  C    0.000000   0.000000   0.000000   0.000000   0.000000   0.000000
    13  C    0.000000   0.000000   0.000000   0.000000   0.000000   0.000000
    14  C    0.000000   0.000000   0.000000   0.000000   0.000000   0.000000
    15  C    0.000000   0.000000   0.000000   0.000000   0.000000   0.000000
    16  C    0.000000   0.000000   0.000000   0.000000   0.000000   0.000000
    17  H    0.000000   0.000000   0.000000   0.000000   0.000000   0.000000
    18  H    0.000000   0.000000   0.000000   0.000000   0.000000   0.000000
    19  H    0.000000   0.000000   0.000000   0.000000   0.000000   0.000000
    20  H    0.000000   0.000000   0.000000   0.000000   0.000000   0.000000
    21  H    0.000000   0.000000   0.000000   0.000000   0.000000   0.000000
    22  H    0.000000   0.000000   0.000000   0.000000   0.000000   0.000000
    23  N    0.000000   0.000000   0.000000   0.000000   0.000000   0.000000
    24  N    0.000000   0.000000   0.000000   0.000000   0.000000   0.000000
    25  H    0.000000   0.000000   0.000000   0.000000   0.000000   0.000000
    26  H    0.000000   0.000000   0.000000   0.000000   0.000000   0.000000
    27  H    0.000000   0.000000   0.000000   0.000000   0.000000   0.000000
    28  H    0.000000   0.000000   0.000000   0.000000   0.000000   0.000000
               7          8          9         10         11         12
     1  C    0.000000   0.000000   0.000000   0.000000   0.000000   0.000000
     2  C    0.000000   0.000000   0.000000   0.000000   0.000000   0.000000
     3  C    0.000000   0.000000   0.000000   0.000000   0.000000   0.000000
     4  O    0.000000   0.000000   0.000000   0.000000   0.000000   0.000000
     5  C    0.000000   0.000000   0.000000   0.000000   0.000000   0.000000
     6  C    0.000000   0.000000   0.000000   0.000000   0.000000   0.000000
     7  O    6.314739   0.000000   0.000000   0.000000   0.000000   0.000000
     8  C    0.000000   4.172872   0.000000   0.000000   0.000000   0.000000
     9  C    0.000000   0.000000   4.179523   0.000000   0.000000   0.000000
    10  C    0.000000   0.000000   0.000000   4.033726   0.000000   0.000000
    11  C    0.000000   0.000000   0.000000   0.000000   4.033726   0.000000
    12  C    0.000000   0.000000   0.000000   0.000000   0.000000   4.179523
    13  C    0.000000   0.000000   0.000000   0.000000   0.000000   0.000000
    14  C    0.000000   0.000000   0.000000   0.000000   0.000000   0.000000
    15  C    0.000000   0.000000   0.000000   0.000000   0.000000   0.000000
    16  C    0.000000   0.000000   0.000000   0.000000   0.000000   0.000000
    17  H    0.000000   0.000000   0.000000   0.000000   0.000000   0.000000
    18  H    0.000000   0.000000   0.000000   0.000000   0.000000   0.000000
    19  H    0.000000   0.000000   0.000000   0.000000   0.000000   0.000000
    20  H    0.000000   0.000000   0.000000   0.000000   0.000000   0.000000
    21  H    0.000000   0.000000   0.000000   0.000000   0.000000   0.000000
    22  H    0.000000   0.000000   0.000000   0.000000   0.000000   0.000000
    23  N    0.000000   0.000000   0.000000   0.000000   0.000000   0.000000
    24  N    0.000000   0.000000   0.000000   0.000000   0.000000   0.000000
    25  H    0.000000   0.000000   0.000000   0.000000   0.000000   0.000000
    26  H    0.000000   0.000000   0.000000   0.000000   0.000000   0.000000
    27  H    0.000000   0.000000   0.000000   0.000000   0.000000   0.000000
    28  H    0.000000   0.000000   0.000000   0.000000   0.000000   0.000000
              13         14         15         16         17         18
     1  C    0.000000   0.000000   0.000000   0.000000   0.000000   0.000000
     2  C    0.000000   0.000000   0.000000   0.000000   0.000000   0.000000
     3  C    0.000000   0.000000   0.000000   0.000000   0.000000   0.000000
     4  O    0.000000   0.000000   0.000000   0.000000   0.000000   0.000000
     5  C    0.000000   0.000000   0.000000   0.000000   0.000000   0.000000
     6  C    0.000000   0.000000   0.000000   0.000000   0.000000   0.000000
     7  O    0.000000   0.000000   0.000000   0.000000   0.000000   0.000000
     8  C    0.000000   0.000000   0.000000   0.000000   0.000000   0.000000
     9  C    0.000000   0.000000   0.000000   0.000000   0.000000   0.000000
    10  C    0.000000   0.000000   0.000000   0.000000   0.000000   0.000000
    11  C    0.000000   0.000000   0.000000   0.000000   0.000000   0.000000
    12  C    0.000000   0.000000   0.000000   0.000000   0.000000   0.000000
    13  C    3.863722   0.000000   0.000000   0.000000   0.000000   0.000000
    14  C    0.000000   4.214778   0.000000   0.000000   0.000000   0.000000
    15  C    0.000000   0.000000   3.863722   0.000000   0.000000   0.000000
    16  C    0.000000   0.000000   0.000000   4.214778   0.000000   0.000000
    17  H    0.000000   0.000000   0.000000   0.000000   0.844116   0.000000
    18  H    0.000000   0.000000   0.000000   0.000000   0.000000   0.842537
    19  H    0.000000   0.000000   0.000000   0.000000   0.000000   0.000000
    20  H    0.000000   0.000000   0.000000   0.000000   0.000000   0.000000
    21  H    0.000000   0.000000   0.000000   0.000000   0.000000   0.000000
    22  H    0.000000   0.000000   0.000000   0.000000   0.000000   0.000000
    23  N    0.000000   0.000000   0.000000   0.000000   0.000000   0.000000
    24  N    0.000000   0.000000   0.000000   0.000000   0.000000   0.000000
    25  H    0.000000   0.000000   0.000000   0.000000   0.000000   0.000000
    26  H    0.000000   0.000000   0.000000   0.000000   0.000000   0.000000
    27  H    0.000000   0.000000   0.000000   0.000000   0.000000   0.000000
    28  H    0.000000   0.000000   0.000000   0.000000   0.000000   0.000000
              19         20         21         22         23         24
     1  C    0.000000   0.000000   0.000000   0.000000   0.000000   0.000000
     2  C    0.000000   0.000000   0.000000   0.000000   0.000000   0.000000
     3  C    0.000000   0.000000   0.000000   0.000000   0.000000   0.000000
     4  O    0.000000   0.000000   0.000000   0.000000   0.000000   0.000000
     5  C    0.000000   0.000000   0.000000   0.000000   0.000000   0.000000
     6  C    0.000000   0.000000   0.000000   0.000000   0.000000   0.000000
     7  O    0.000000   0.000000   0.000000   0.000000   0.000000   0.000000
     8  C    0.000000   0.000000   0.000000   0.000000   0.000000   0.000000
     9  C    0.000000   0.000000   0.000000   0.000000   0.000000   0.000000
    10  C    0.000000   0.000000   0.000000   0.000000   0.000000   0.000000
    11  C    0.000000   0.000000   0.000000   0.000000   0.000000   0.000000
    12  C    0.000000   0.000000   0.000000   0.000000   0.000000   0.000000
    13  C    0.000000   0.000000   0.000000   0.000000   0.000000   0.000000
    14  C    0.000000   0.000000   0.000000   0.000000   0.000000   0.000000
    15  C    0.000000   0.000000   0.000000   0.000000   0.000000   0.000000
    16  C    0.000000   0.000000   0.000000   0.000000   0.000000   0.000000
    17  H    0.000000   0.000000   0.000000   0.000000   0.000000   0.000000
    18  H    0.000000   0.000000   0.000000   0.000000   0.000000   0.000000
    19  H    0.842537   0.000000   0.000000   0.000000   0.000000   0.000000
    20  H    0.000000   0.844116   0.000000   0.000000   0.000000   0.000000
    21  H    0.000000   0.000000   0.863146   0.000000   0.000000   0.000000
    22  H    0.000000   0.000000   0.000000   0.863146   0.000000   0.000000
    23  N    0.000000   0.000000   0.000000   0.000000   5.398391   0.000000
    24  N    0.000000   0.000000   0.000000   0.000000   0.000000   5.398391
    25  H    0.000000   0.000000   0.000000   0.000000   0.000000   0.000000
    26  H    0.000000   0.000000   0.000000   0.000000   0.000000   0.000000
    27  H    0.000000   0.000000   0.000000   0.000000   0.000000   0.000000
    28  H    0.000000   0.000000   0.000000   0.000000   0.000000   0.000000
              25         26         27         28
     1  C    0.000000   0.000000   0.000000   0.000000
     2  C    0.000000   0.000000   0.000000   0.000000
     3  C    0.000000   0.000000   0.000000   0.000000
     4  O    0.000000   0.000000   0.000000   0.000000
     5  C    0.000000   0.000000   0.000000   0.000000
     6  C    0.000000   0.000000   0.000000   0.000000
     7  O    0.000000   0.000000   0.000000   0.000000
     8  C    0.000000   0.000000   0.000000   0.000000
     9  C    0.000000   0.000000   0.000000   0.000000
    10  C    0.000000   0.000000   0.000000   0.000000
    11  C    0.000000   0.000000   0.000000   0.000000
    12  C    0.000000   0.000000   0.000000   0.000000
    13  C    0.000000   0.000000   0.000000   0.000000
    14  C    0.000000   0.000000   0.000000   0.000000
    15  C    0.000000   0.000000   0.000000   0.000000
    16  C    0.000000   0.000000   0.000000   0.000000
    17  H    0.000000   0.000000   0.000000   0.000000
    18  H    0.000000   0.000000   0.000000   0.000000
    19  H    0.000000   0.000000   0.000000   0.000000
    20  H    0.000000   0.000000   0.000000   0.000000
    21  H    0.000000   0.000000   0.000000   0.000000
    22  H    0.000000   0.000000   0.000000   0.000000
    23  N    0.000000   0.000000   0.000000   0.000000
    24  N    0.000000   0.000000   0.000000   0.000000
    25  H    0.772097   0.000000   0.000000   0.000000
    26  H    0.000000   0.770253   0.000000   0.000000
    27  H    0.000000   0.000000   0.772097   0.000000
    28  H    0.000000   0.000000   0.000000   0.770253
 Mulliken charges:
               1
     1  C    0.302573
     2  C   -0.053574
     3  C   -0.053574
     4  O   -0.291585
     5  C    0.321225
     6  C   -0.172872
     7  O   -0.314739
     8  C   -0.172872
     9  C   -0.179523
    10  C   -0.033726
    11  C   -0.033726
    12  C   -0.179523
    13  C    0.136278
    14  C   -0.214778
    15  C    0.136278
    16  C   -0.214778
    17  H    0.155884
    18  H    0.157463
    19  H    0.157463
    20  H    0.155884
    21  H    0.136854
    22  H    0.136854
    23  N   -0.398391
    24  N   -0.398391
    25  H    0.227903
    26  H    0.229747
    27  H    0.227903
    28  H    0.229747
 Sum of Mulliken charges =  -0.00000
 Mulliken charges with hydrogens summed into heavy atoms:
               1
     1  C    0.302573
     2  C   -0.053574
     3  C   -0.053574
     4  O   -0.291585
     5  C    0.321225
     6  C   -0.172872
     7  O   -0.314739
     8  C   -0.172872
     9  C   -0.023639
    10  C    0.123737
    11  C    0.123736
    12  C   -0.023639
    13  C    0.136278
    14  C   -0.077924
    15  C    0.136278
    16  C   -0.077924
    23  N    0.059258
    24  N    0.059258
 Charge=             -0.0000 electrons
 Dipole moment (field-independent basis, Debye):
    X=              0.0000    Y=             -2.1343    Z=              0.0001  Tot=              2.1343
 N-N= 6.502906074412D+02 E-N=-1.173859183451D+03  KE=-6.189858256237D+01
 1\1\GINC-GTX1080DELTA\FOpt\RAM1\ZDO\C14H10N2O2\MVEROT\12-Apr-2022\0\\#
 n AM1 Opt\\Geometry optimization\\0,1\C,0.0043196816,1.4718832999,0.00
 02521259\C,1.2645834946,0.6932060542,0.0001413109\C,-1.2631165102,0.70
 49357354,0.0000963422\O,0.0100731481,2.7117403935,0.0005364785\C,-0.00
 93546766,-1.4748951496,-0.0003872002\C,-1.2614478223,-0.699536732,-0.0
 002089615\O,-0.0151192363,-2.7171466222,-0.0006377875\C,1.2498803871,-
 0.7111903882,-0.0001651241\C,2.4709332889,1.3866014108,0.0003455407\C,
 -2.4864000814,-1.3791398424,-0.0003487141\C,2.4684727735,-1.4021326883
 ,-0.0002627016\C,-2.462979091,1.4094969701,0.0002570707\C,3.7084189181
 ,0.6894573925,0.0002483197\C,3.6800491914,-0.728117759,-0.0000624669\C
 ,-3.7068814784,0.7238676762,0.0001163782\C,-3.6916690269,-0.6939096304
 ,-0.0001917769\H,2.4496838273,2.4889854641,0.0005830963\H,-2.478981613
 ,-2.4830689223,-0.0005900096\H,2.4508092884,-2.5059453818,-0.000505661
 3\H,-2.4314997009,2.5116363327,0.0004948768\H,4.6191463983,-1.30090553
 31,-0.0001465035\H,-4.6360415989,-1.2579573505,-0.000307908\N,4.898706
 6465,1.375546735,0.0004517286\N,-4.8907505017,1.4209743099,0.000278025
 3\H,-5.7494631569,0.9368681747,0.0001679604\H,-4.884119708,2.407051323
 1,0.0004832662\H,5.7528894253,0.8834919079,0.0003793166\H,4.9012277311
 ,2.3616428198,0.0006629783\\Version=AM64L-G09RevD.01\State=1-A\HF=-0.0
 163819\RMSD=5.901e-09\RMSF=5.203e-05\Dipole=0.0038966,0.839706,0.00021
 37\PG=C01 [X(C14H10N2O2)]\\@


 LAWS OF PROGRAMMING DEFINITION:  A WORKING PROGRAM
                                  IS ONE THAT HAS
                                  ONLY UNOBSERVED
                                  BUGS.
 Job cpu time:       0 days  0 hours  0 minutes  4.1 seconds.
 File lengths (MBytes):  RWF=    132 Int=      0 D2E=      0 Chk=      4 Scr=      2
 Normal termination of Gaussian 09 at Tue Apr 12 01:07:51 2022.
