 Entering Gaussian System, Link 0=g09
 Input=/scratch/mverot/1-2-ethanediol-opt/1-2-ethanediol-opt.com
 Output=/scratch/mverot/1-2-ethanediol-opt/1-2-ethanediol-opt.log
 Initial command:
 /opt/g09/l1.exe "/scratch/mverot/1-2-ethanediol-opt/Gau-1473514.inp" -scrdir="/scratch/mverot/1-2-ethanediol-opt/"
 Entering Link 1 = /opt/g09/l1.exe PID=   1473516.
  
 Copyright (c) 1988,1990,1992,1993,1995,1998,2003,2009,2013,
            Gaussian, Inc.  All Rights Reserved.
  
 This is part of the Gaussian(R) 09 program.  It is based on
 the Gaussian(R) 03 system (copyright 2003, Gaussian, Inc.),
 the Gaussian(R) 98 system (copyright 1998, Gaussian, Inc.),
 the Gaussian(R) 94 system (copyright 1995, Gaussian, Inc.),
 the Gaussian 92(TM) system (copyright 1992, Gaussian, Inc.),
 the Gaussian 90(TM) system (copyright 1990, Gaussian, Inc.),
 the Gaussian 88(TM) system (copyright 1988, Gaussian, Inc.),
 the Gaussian 86(TM) system (copyright 1986, Carnegie Mellon
 University), and the Gaussian 82(TM) system (copyright 1983,
 Carnegie Mellon University). Gaussian is a federally registered
 trademark of Gaussian, Inc.
  
 This software contains proprietary and confidential information,
 including trade secrets, belonging to Gaussian, Inc.
  
 This software is provided under written license and may be
 used, copied, transmitted, or stored only in accord with that
 written license.
  
 The following legend is applicable only to US Government
 contracts under FAR:
  
                    RESTRICTED RIGHTS LEGEND
  
 Use, reproduction and disclosure by the US Government is
 subject to restrictions as set forth in subparagraphs (a)
 and (c) of the Commercial Computer Software - Restricted
 Rights clause in FAR 52.227-19.
  
 Gaussian, Inc.
 340 Quinnipiac St., Bldg. 40, Wallingford CT 06492
  
  
 ---------------------------------------------------------------
 Warning -- This program may not be used in any manner that
 competes with the business of Gaussian, Inc. or will provide
 assistance to any competitor of Gaussian, Inc.  The licensee
 of this program is prohibited from giving any competitor of
 Gaussian, Inc. access to this program.  By using this program,
 the user acknowledges that Gaussian, Inc. is engaged in the
 business of creating and licensing software in the field of
 computational chemistry and represents and warrants to the
 licensee that it is not a competitor of Gaussian, Inc. and that
 it will not use this program in any manner prohibited above.
 ---------------------------------------------------------------
  

 Cite this work as:
 Gaussian 09, Revision D.01,
 M. J. Frisch, G. W. Trucks, H. B. Schlegel, G. E. Scuseria, 
 M. A. Robb, J. R. Cheeseman, G. Scalmani, V. Barone, B. Mennucci, 
 G. A. Petersson, H. Nakatsuji, M. Caricato, X. Li, H. P. Hratchian, 
 A. F. Izmaylov, J. Bloino, G. Zheng, J. L. Sonnenberg, M. Hada, 
 M. Ehara, K. Toyota, R. Fukuda, J. Hasegawa, M. Ishida, T. Nakajima, 
 Y. Honda, O. Kitao, H. Nakai, T. Vreven, J. A. Montgomery, Jr., 
 J. E. Peralta, F. Ogliaro, M. Bearpark, J. J. Heyd, E. Brothers, 
 K. N. Kudin, V. N. Staroverov, T. Keith, R. Kobayashi, J. Normand, 
 K. Raghavachari, A. Rendell, J. C. Burant, S. S. Iyengar, J. Tomasi, 
 M. Cossi, N. Rega, J. M. Millam, M. Klene, J. E. Knox, J. B. Cross, 
 V. Bakken, C. Adamo, J. Jaramillo, R. Gomperts, R. E. Stratmann, 
 O. Yazyev, A. J. Austin, R. Cammi, C. Pomelli, J. W. Ochterski, 
 R. L. Martin, K. Morokuma, V. G. Zakrzewski, G. A. Voth, 
 P. Salvador, J. J. Dannenberg, S. Dapprich, A. D. Daniels, 
 O. Farkas, J. B. Foresman, J. V. Ortiz, J. Cioslowski, 
 and D. J. Fox, Gaussian, Inc., Wallingford CT, 2013.
 
 ******************************************
 Gaussian 09:  AM64L-G09RevD.01 24-Apr-2013
                17-Apr-2022 
 ******************************************
 %chk=1-2-ethanediol-opt
 ----------
 #n PM3 Opt
 ----------
 1/14=-1,18=20,19=15,26=1,38=1/1,3;
 2/9=110,12=2,17=6,18=5,40=1/2;
 3/5=2,16=1,25=1,41=800000,71=1/1,2,3;
 4/35=1/1;
 5/5=2,35=1,38=5/2;
 6/7=2,8=2,9=2,10=2,28=1/1;
 7//1,2,3,16;
 1/14=-1,18=20,19=15,26=1/3(2);
 2/9=110/2;
 99//99;
 2/9=110/2;
 3/5=2,16=1,25=1,41=800000,71=1,135=20/1,2,3;
 4/5=5,16=3,35=1/1;
 5/5=2,35=1,38=5/2;
 7//1,2,3,16;
 1/14=-1,18=20,19=15,26=1/3(-5);
 2/9=110/2;
 6/7=2,8=2,9=2,10=2,19=2,28=1/1;
 99/9=1/99;
 -------------------------
 Optimisation de geometrie
 -------------------------
 Symbolic Z-matrix:
 Charge =  0 Multiplicity = 1
 C                     1.0379    2.1554    1.623 
 O                     1.6569    2.075     2.9094 
 C                     1.3393    0.836     0.929 
 O                     2.7356    0.6333    0.8072 
 H                     1.4617    2.9816    1.0336 
 H                    -0.0497    2.3075    1.709 
 H                     1.6972    2.965     3.2882 
 H                     0.9208    0.8398   -0.083 
 H                     0.8609    0.0177    1.4923 
 H                     3.0927    0.8053    1.6951 
 

 GradGradGradGradGradGradGradGradGradGradGradGradGradGradGradGradGradGrad
 Berny optimization.
 Initialization pass.
                           ----------------------------
                           !    Initial Parameters    !
                           ! (Angstroms and Degrees)  !
 --------------------------                            --------------------------
 ! Name  Definition              Value          Derivative Info.                !
 --------------------------------------------------------------------------------
 ! R1    R(1,2)                  1.4298         estimate D2E/DX2                !
 ! R2    R(1,3)                  1.521          estimate D2E/DX2                !
 ! R3    R(1,5)                  1.0998         estimate D2E/DX2                !
 ! R4    R(1,6)                  1.1015         estimate D2E/DX2                !
 ! R5    R(2,7)                  0.9681         estimate D2E/DX2                !
 ! R6    R(3,4)                  1.4162         estimate D2E/DX2                !
 ! R7    R(3,8)                  1.0951         estimate D2E/DX2                !
 ! R8    R(3,9)                  1.1026         estimate D2E/DX2                !
 ! R9    R(4,10)                 0.9724         estimate D2E/DX2                !
 ! A1    A(2,1,3)              106.0187         estimate D2E/DX2                !
 ! A2    A(2,1,5)              110.9508         estimate D2E/DX2                !
 ! A3    A(2,1,6)              111.405          estimate D2E/DX2                !
 ! A4    A(3,1,5)              109.3158         estimate D2E/DX2                !
 ! A5    A(3,1,6)              110.5522         estimate D2E/DX2                !
 ! A6    A(5,1,6)              108.5765         estimate D2E/DX2                !
 ! A7    A(1,2,7)              108.5636         estimate D2E/DX2                !
 ! A8    A(1,3,4)              111.026          estimate D2E/DX2                !
 ! A9    A(1,3,8)              110.0549         estimate D2E/DX2                !
 ! A10   A(1,3,9)              108.9477         estimate D2E/DX2                !
 ! A11   A(4,3,8)              107.3256         estimate D2E/DX2                !
 ! A12   A(4,3,9)              111.4381         estimate D2E/DX2                !
 ! A13   A(8,3,9)              107.9908         estimate D2E/DX2                !
 ! A14   A(3,4,10)             104.9658         estimate D2E/DX2                !
 ! D1    D(3,1,2,7)            164.9577         estimate D2E/DX2                !
 ! D2    D(5,1,2,7)             46.3753         estimate D2E/DX2                !
 ! D3    D(6,1,2,7)            -74.7213         estimate D2E/DX2                !
 ! D4    D(2,1,3,4)            -59.4136         estimate D2E/DX2                !
 ! D5    D(2,1,3,8)           -178.0964         estimate D2E/DX2                !
 ! D6    D(2,1,3,9)             63.6768         estimate D2E/DX2                !
 ! D7    D(5,1,3,4)             60.2449         estimate D2E/DX2                !
 ! D8    D(5,1,3,8)            -58.4379         estimate D2E/DX2                !
 ! D9    D(5,1,3,9)           -176.6647         estimate D2E/DX2                !
 ! D10   D(6,1,3,4)            179.7124         estimate D2E/DX2                !
 ! D11   D(6,1,3,8)             61.0297         estimate D2E/DX2                !
 ! D12   D(6,1,3,9)            -57.1972         estimate D2E/DX2                !
 ! D13   D(1,3,4,10)            49.1359         estimate D2E/DX2                !
 ! D14   D(8,3,4,10)           169.4508         estimate D2E/DX2                !
 ! D15   D(9,3,4,10)           -72.5093         estimate D2E/DX2                !
 --------------------------------------------------------------------------------
 Trust Radius=3.00D-01 FncErr=1.00D-07 GrdErr=1.00D-07
 Number of steps in this run=     48 maximum allowed number of steps=    100.
 GradGradGradGradGradGradGradGradGradGradGradGradGradGradGradGradGradGrad

                          Input orientation:                          
 ---------------------------------------------------------------------
 Center     Atomic      Atomic             Coordinates (Angstroms)
 Number     Number       Type             X           Y           Z
 ---------------------------------------------------------------------
      1          6           0        1.037900    2.155400    1.623000
      2          8           0        1.656900    2.075000    2.909400
      3          6           0        1.339300    0.836000    0.929000
      4          8           0        2.735600    0.633300    0.807200
      5          1           0        1.461700    2.981600    1.033600
      6          1           0       -0.049700    2.307500    1.709000
      7          1           0        1.697200    2.965000    3.288200
      8          1           0        0.920800    0.839800   -0.083000
      9          1           0        0.860900    0.017700    1.492300
     10          1           0        3.092700    0.805300    1.695100
 ---------------------------------------------------------------------
                    Distance matrix (angstroms):
                    1          2          3          4          5
     1  C    0.000000
     2  O    1.429843   0.000000
     3  C    1.520952   2.357536   0.000000
     4  O    2.421674   2.767912   1.416184   0.000000
     5  H    1.099821   2.092523   2.151632   2.681155   0.000000
     6  H    1.101546   2.099405   2.168648   3.372549   1.787430
     7  H    1.965457   0.968098   3.197899   3.559559   2.266927
     8  H    2.157534   3.319943   1.095126   2.031895   2.475212
     9  H    2.148993   2.621883   1.102628   2.088738   3.058769
    10  H    2.459710   2.268961   1.913704   0.972353   2.798933
                    6          7          8          9         10
     6  H    0.000000
     7  H    2.444962   0.000000
     8  H    2.511429   4.060081   0.000000
     9  H    2.473729   3.551230   1.777922   0.000000
    10  H    3.483027   3.024846   2.807130   2.375368   0.000000
 Stoichiometry    C2H6O2
 Framework group  C1[X(C2H6O2)]
 Deg. of freedom    24
 Full point group                 C1      NOp   1
 Largest Abelian subgroup         C1      NOp   1
 Largest concise Abelian subgroup C1      NOp   1
                         Standard orientation:                         
 ---------------------------------------------------------------------
 Center     Atomic      Atomic             Coordinates (Angstroms)
 Number     Number       Type             X           Y           Z
 ---------------------------------------------------------------------
      1          6           0        0.684527    0.611474   -0.262380
      2          8           0        1.316614   -0.576038    0.222113
      3          6           0       -0.741473    0.573046    0.265198
      4          8           0       -1.420502   -0.583538   -0.189564
      5          1           0        0.665344    0.626165   -1.361935
      6          1           0        1.203588    1.516259    0.091657
      7          1           0        2.135630   -0.714104   -0.275245
      8          1           0       -1.299628    1.442666   -0.097466
      9          1           0       -0.717100    0.619137    1.366593
     10          1           0       -0.815056   -1.320637   -0.000906
 ---------------------------------------------------------------------
 Rotational constants (GHZ):     15.1386151      5.7121834      4.6692489
 Standard basis: VSTO-6G (5D, 7F)
 There are    22 symmetry adapted cartesian basis functions of A   symmetry.
 There are    22 symmetry adapted basis functions of A   symmetry.
    22 basis functions,   132 primitive gaussians,    22 cartesian basis functions
    13 alpha electrons       13 beta electrons
       nuclear repulsion energy       101.3621197472 Hartrees.
 Integral buffers will be    131072 words long.
 Regular integral format.
 Two-electron integral symmetry is turned off.
 Do NDO integrals.
 One-electron integrals computed using PRISM.
 NBasis=    22 RedAO= F EigKep=  0.00D+00  NBF=    22
 NBsUse=    22 1.00D-04 EigRej=  0.00D+00 NBFU=    22
 Simple Huckel Guess.
 Overlap will be assumed to be unity.
 Keep J ints in memory in canonical form, NReq=887849.
 Requested convergence on RMS density matrix=1.00D-08 within 128 cycles.
 Requested convergence on MAX density matrix=1.00D-06.
 Requested convergence on             energy=1.00D-06.
 No special actions if energy rises.
 SCF Done:  E(RPM3) = -0.151488500065     A.U. after   13 cycles
            NFock= 12  Conv=0.53D-08     -V/T= 0.9918

 **********************************************************************

            Population analysis using the SCF density.

 **********************************************************************

 Orbital symmetries:
       Occupied  (A) (A) (A) (A) (A) (A) (A) (A) (A) (A) (A) (A)
                 (A)
       Virtual   (A) (A) (A) (A) (A) (A) (A) (A) (A)
 The electronic state is 1-A.
 Alpha  occ. eigenvalues --   -1.46016  -1.31760  -1.07060  -0.81213  -0.68680
 Alpha  occ. eigenvalues --   -0.63099  -0.60870  -0.57303  -0.53246  -0.49566
 Alpha  occ. eigenvalues --   -0.46090  -0.41911  -0.40540
 Alpha virt. eigenvalues --    0.10578   0.12452   0.12994   0.13535   0.14603
 Alpha virt. eigenvalues --    0.16095   0.17286   0.19259   0.20702
          Condensed to atoms (all electrons):
               1          2          3          4          5          6
     1  C    3.976049   0.000000   0.000000   0.000000   0.000000   0.000000
     2  O    0.000000   6.325093   0.000000   0.000000   0.000000   0.000000
     3  C    0.000000   0.000000   3.943399   0.000000   0.000000   0.000000
     4  O    0.000000   0.000000   0.000000   6.315764   0.000000   0.000000
     5  H    0.000000   0.000000   0.000000   0.000000   0.964813   0.000000
     6  H    0.000000   0.000000   0.000000   0.000000   0.000000   0.962120
     7  H    0.000000   0.000000   0.000000   0.000000   0.000000   0.000000
     8  H    0.000000   0.000000   0.000000   0.000000   0.000000   0.000000
     9  H    0.000000   0.000000   0.000000   0.000000   0.000000   0.000000
    10  H    0.000000   0.000000   0.000000   0.000000   0.000000   0.000000
               7          8          9         10
     1  C    0.000000   0.000000   0.000000   0.000000
     2  O    0.000000   0.000000   0.000000   0.000000
     3  C    0.000000   0.000000   0.000000   0.000000
     4  O    0.000000   0.000000   0.000000   0.000000
     5  H    0.000000   0.000000   0.000000   0.000000
     6  H    0.000000   0.000000   0.000000   0.000000
     7  H    0.805838   0.000000   0.000000   0.000000
     8  H    0.000000   0.945425   0.000000   0.000000
     9  H    0.000000   0.000000   0.963806   0.000000
    10  H    0.000000   0.000000   0.000000   0.797692
 Mulliken charges:
               1
     1  C    0.023951
     2  O   -0.325093
     3  C    0.056601
     4  O   -0.315764
     5  H    0.035187
     6  H    0.037880
     7  H    0.194162
     8  H    0.054575
     9  H    0.036194
    10  H    0.202308
 Sum of Mulliken charges =  -0.00000
 Mulliken charges with hydrogens summed into heavy atoms:
               1
     1  C    0.097018
     2  O   -0.130931
     3  C    0.147369
     4  O   -0.113456
 Charge=             -0.0000 electrons
 Dipole moment (field-independent basis, Debye):
    X=              2.0330    Y=              0.8838    Z=             -0.5172  Tot=              2.2763
 N-N= 1.013621197472D+02 E-N=-1.655986700032D+02  KE=-1.848145775490D+01
 Calling FoFJK, ICntrl=      2127 FMM=F ISym2X=0 I1Cent= 0 IOpClX= 0 NMat=1 NMatS=1 NMatT=0.
 ***** Axes restored to original set *****
 -------------------------------------------------------------------
 Center     Atomic                   Forces (Hartrees/Bohr)
 Number     Number              X              Y              Z
 -------------------------------------------------------------------
      1        6           0.007336107    0.005902232    0.014095081
      2        8          -0.007502394    0.020461288    0.001259449
      3        6           0.009516204   -0.002936133    0.004895975
      4        8          -0.003584908    0.001699439    0.016045144
      5        1           0.000286240    0.006281545   -0.000030975
      6        1          -0.002057960    0.001674813    0.002743587
      7        1          -0.003051168   -0.018592382   -0.011991358
      8        1           0.002155746   -0.001972775   -0.006205385
      9        1           0.001143291   -0.006114302   -0.000248477
     10        1          -0.004241158   -0.006403724   -0.020563041
 -------------------------------------------------------------------
 Cartesian Forces:  Max     0.020563041 RMS     0.008719172

 GradGradGradGradGradGradGradGradGradGradGradGradGradGradGradGradGradGrad
 Berny optimization.
 FormGI is forming the generalized inverse of G from B-inverse, IUseBI=4.
 Internal  Forces:  Max     0.021911533 RMS     0.007724193
 Search for a local minimum.
 Step number   1 out of a maximum of   48
 All quantities printed in internal units (Hartrees-Bohrs-Radians)
 Mixed Optimization -- RFO/linear search
 Second derivative matrix not updated -- first step.
 ITU=  0
     Eigenvalues ---    0.00489   0.01297   0.01478   0.05073   0.05586
     Eigenvalues ---    0.05961   0.06023   0.10836   0.11481   0.13459
     Eigenvalues ---    0.13869   0.16000   0.16000   0.21965   0.22036
     Eigenvalues ---    0.30275   0.33393   0.33512   0.33702   0.34227
     Eigenvalues ---    0.41012   0.43040   0.52899   0.53767
 RFO step:  Lambda=-8.24136090D-03 EMin= 4.88795542D-03
 Linear search not attempted -- first point.
 Iteration  1 RMS(Cart)=  0.09447756 RMS(Int)=  0.00383033
 Iteration  2 RMS(Cart)=  0.00413654 RMS(Int)=  0.00084423
 Iteration  3 RMS(Cart)=  0.00001227 RMS(Int)=  0.00084420
 Iteration  4 RMS(Cart)=  0.00000001 RMS(Int)=  0.00084420
 Variable       Old X    -DE/DX   Delta X   Delta X   Delta X     New X
                                 (Linear)    (Quad)   (Total)
    R1        2.70201  -0.01433   0.00000  -0.03425  -0.03425   2.66776
    R2        2.87418   0.01740   0.00000   0.05596   0.05596   2.93015
    R3        2.07836   0.00485   0.00000   0.01403   0.01403   2.09239
    R4        2.08162   0.00248   0.00000   0.00722   0.00722   2.08884
    R5        1.82944  -0.02191   0.00000  -0.04014  -0.04014   1.78930
    R6        2.67620  -0.00665   0.00000  -0.01517  -0.01517   2.66103
    R7        2.06949   0.00490   0.00000   0.01399   0.01399   2.08348
    R8        2.08366   0.00391   0.00000   0.01144   0.01144   2.09511
    R9        1.83748  -0.02147   0.00000  -0.03996  -0.03996   1.79752
    A1        1.85037   0.00856   0.00000   0.04059   0.04009   1.89047
    A2        1.93646  -0.00327   0.00000  -0.00567  -0.00730   1.92915
    A3        1.94438  -0.00572   0.00000  -0.04827  -0.04829   1.89609
    A4        1.90792   0.00233   0.00000   0.03493   0.03440   1.94232
    A5        1.92950  -0.00084   0.00000  -0.00341  -0.00295   1.92655
    A6        1.89502  -0.00081   0.00000  -0.01565  -0.01604   1.87897
    A7        1.89479  -0.00789   0.00000  -0.04689  -0.04689   1.84790
    A8        1.93777   0.01481   0.00000   0.06692   0.06611   2.00388
    A9        1.92082  -0.00142   0.00000  -0.00613  -0.00497   1.91585
   A10        1.90150   0.00180   0.00000   0.03923   0.03833   1.93983
   A11        1.87319  -0.00890   0.00000  -0.07002  -0.06992   1.80326
   A12        1.94496  -0.00693   0.00000  -0.02328  -0.02617   1.91879
   A13        1.88480   0.00012   0.00000  -0.01044  -0.01137   1.87343
   A14        1.83200   0.00770   0.00000   0.04576   0.04576   1.87775
    D1        2.87906   0.00182   0.00000   0.02994   0.03014   2.90919
    D2        0.80940  -0.00429   0.00000  -0.03289  -0.03235   0.77705
    D3       -1.30413   0.00291   0.00000   0.02393   0.02320  -1.28094
    D4       -1.03696  -0.00366   0.00000  -0.09515  -0.09630  -1.13326
    D5       -3.10837  -0.00098   0.00000  -0.04627  -0.04672   3.12810
    D6        1.11137  -0.00137   0.00000  -0.05348  -0.05310   1.05827
    D7        1.05147  -0.00145   0.00000  -0.06035  -0.06066   0.99081
    D8       -1.01993   0.00123   0.00000  -0.01147  -0.01109  -1.03102
    D9       -3.08338   0.00084   0.00000  -0.01868  -0.01746  -3.10084
   D10        3.13657  -0.00150   0.00000  -0.05977  -0.06053   3.07604
   D11        1.06517   0.00118   0.00000  -0.01089  -0.01095   1.05422
   D12       -0.99828   0.00079   0.00000  -0.01810  -0.01733  -1.01561
   D13        0.85758   0.00326   0.00000   0.07862   0.07882   0.93641
   D14        2.95747   0.00461   0.00000   0.06642   0.06459   3.02206
   D15       -1.26553  -0.00458   0.00000  -0.00213  -0.00050  -1.26603
         Item               Value     Threshold  Converged?
 Maximum Force            0.021912     0.000450     NO 
 RMS     Force            0.007724     0.000300     NO 
 Maximum Displacement     0.262217     0.001800     NO 
 RMS     Displacement     0.093132     0.001200     NO 
 Predicted change in Energy=-4.395598D-03
 GradGradGradGradGradGradGradGradGradGradGradGradGradGradGradGradGradGrad

                          Input orientation:                          
 ---------------------------------------------------------------------
 Center     Atomic      Atomic             Coordinates (Angstroms)
 Number     Number       Type             X           Y           Z
 ---------------------------------------------------------------------
      1          6           0        1.053179    2.181903    1.653090
      2          8           0        1.590471    2.138883    2.957855
      3          6           0        1.360050    0.831811    0.954993
      4          8           0        2.727741    0.575816    0.738678
      5          1           0        1.477537    3.033125    1.086224
      6          1           0       -0.038645    2.338391    1.725634
      7          1           0        1.573481    3.031054    3.274531
      8          1           0        0.937898    0.834199   -0.063512
      9          1           0        0.898762   -0.015122    1.501887
     10          1           0        3.172825    0.666541    1.574420
 ---------------------------------------------------------------------
                    Distance matrix (angstroms):
                    1          2          3          4          5
     1  C    0.000000
     2  O    1.411718   0.000000
     3  C    1.550567   2.402705   0.000000
     4  O    2.493957   2.943011   1.408156   0.000000
     5  H    1.107247   2.077361   2.208350   2.778879   0.000000
     6  H    1.105364   2.052362   2.195455   3.425441   1.786144
     7  H    1.902852   0.946858   3.203511   3.713632   2.190411
     8  H    2.185479   3.355103   1.102529   1.978335   2.539366
     9  H    2.207629   2.690362   1.108682   2.068057   3.130426
    10  H    2.606801   2.566229   1.922799   0.951208   2.951789
                    6          7          8          9         10
     6  H    0.000000
     7  H    2.340473   0.000000
     8  H    2.533234   4.046316   0.000000
     9  H    2.543191   3.588412   1.781390   0.000000
    10  H    3.623740   3.322530   2.775938   2.375139   0.000000
 Stoichiometry    C2H6O2
 Framework group  C1[X(C2H6O2)]
 Deg. of freedom    24
 Full point group                 C1      NOp   1
 Largest Abelian subgroup         C1      NOp   1
 Largest concise Abelian subgroup C1      NOp   1
                         Standard orientation:                         
 ---------------------------------------------------------------------
 Center     Atomic      Atomic             Coordinates (Angstroms)
 Number     Number       Type             X           Y           Z
 ---------------------------------------------------------------------
      1          6           0        0.720742    0.567862   -0.265439
      2          8           0        1.391898   -0.575377    0.219847
      3          6           0       -0.732248    0.546183    0.275492
      4          8           0       -1.521479   -0.521660   -0.193262
      5          1           0        0.737309    0.587256   -1.372393
      6          1           0        1.251849    1.468309    0.093657
      7          1           0        2.189013   -0.642332   -0.286774
      8          1           0       -1.275341    1.437951   -0.078585
      9          1           0       -0.746732    0.568917    1.383846
     10          1           0       -1.050411   -1.328075   -0.012752
 ---------------------------------------------------------------------
 Rotational constants (GHZ):     16.2324256      5.1578347      4.3885917
 Standard basis: VSTO-6G (5D, 7F)
 There are    22 symmetry adapted cartesian basis functions of A   symmetry.
 There are    22 symmetry adapted basis functions of A   symmetry.
    22 basis functions,   132 primitive gaussians,    22 cartesian basis functions
    13 alpha electrons       13 beta electrons
       nuclear repulsion energy       100.6378708636 Hartrees.
 Integral buffers will be    131072 words long.
 Regular integral format.
 Two-electron integral symmetry is turned off.
 Do NDO integrals.
 One-electron integrals computed using PRISM.
 NBasis=    22 RedAO= F EigKep=  0.00D+00  NBF=    22
 NBsUse=    22 1.00D-04 EigRej=  0.00D+00 NBFU=    22
 Initial guess from the checkpoint file:  "1-2-ethanediol-opt.chk"
 B after Tr=     0.000000    0.000000   -0.000000
         Rot=    0.999932   -0.004989   -0.001787    0.010397 Ang=  -1.34 deg.
 Overlap will be assumed to be unity.
 Keep J ints in memory in canonical form, NReq=887849.
 Requested convergence on RMS density matrix=1.00D-08 within 128 cycles.
 Requested convergence on MAX density matrix=1.00D-06.
 Requested convergence on             energy=1.00D-06.
 No special actions if energy rises.
 SCF Done:  E(RPM3) = -0.155104992887     A.U. after   12 cycles
            NFock= 11  Conv=0.51D-08     -V/T= 0.9916
 Calling FoFJK, ICntrl=      2127 FMM=F ISym2X=0 I1Cent= 0 IOpClX= 0 NMat=1 NMatS=1 NMatT=0.
 ***** Axes restored to original set *****
 -------------------------------------------------------------------
 Center     Atomic                   Forces (Hartrees/Bohr)
 Number     Number              X              Y              Z
 -------------------------------------------------------------------
      1        6           0.005064983   -0.006006822   -0.000821342
      2        8          -0.000532874   -0.000839898   -0.003137054
      3        6           0.002082434    0.003245701    0.003367680
      4        8          -0.005765184    0.004499120    0.003057780
      5        1           0.000245997   -0.000877370   -0.000261320
      6        1          -0.000752779   -0.000887198   -0.001660341
      7        1           0.000381298    0.000057354    0.001002853
      8        1           0.000158707    0.000159995   -0.000852118
      9        1           0.001087856    0.001228742    0.000901341
     10        1          -0.001970439   -0.000579623   -0.001597479
 -------------------------------------------------------------------
 Cartesian Forces:  Max     0.006006822 RMS     0.002446082

 GradGradGradGradGradGradGradGradGradGradGradGradGradGradGradGradGradGrad
 Berny optimization.
 Using GEDIIS/GDIIS optimizer.
 FormGI is forming the generalized inverse of G from B-inverse, IUseBI=4.
 Internal  Forces:  Max     0.010515914 RMS     0.002548130
 Search for a local minimum.
 Step number   2 out of a maximum of   48
 All quantities printed in internal units (Hartrees-Bohrs-Radians)
 Mixed Optimization -- RFO/linear search
 Update second derivatives using D2CorX and points    1    2
 DE= -3.62D-03 DEPred=-4.40D-03 R= 8.23D-01
 TightC=F SS=  1.41D+00  RLast= 2.55D-01 DXNew= 5.0454D-01 7.6466D-01
 Trust test= 8.23D-01 RLast= 2.55D-01 DXMaxT set to 5.05D-01
 ITU=  1  0
 Use linear search instead of GDIIS.
     Eigenvalues ---    0.00492   0.01297   0.01476   0.04675   0.05304
     Eigenvalues ---    0.05721   0.05834   0.11464   0.12053   0.13644
     Eigenvalues ---    0.14200   0.15999   0.16267   0.21975   0.23217
     Eigenvalues ---    0.33169   0.33434   0.33601   0.34071   0.35500
     Eigenvalues ---    0.38986   0.43417   0.51670   0.54112
 RFO step:  Lambda=-7.01149717D-04 EMin= 4.92497017D-03
 Quartic linear search produced a step of -0.11441.
 Iteration  1 RMS(Cart)=  0.02687167 RMS(Int)=  0.00031820
 Iteration  2 RMS(Cart)=  0.00041635 RMS(Int)=  0.00009734
 Iteration  3 RMS(Cart)=  0.00000008 RMS(Int)=  0.00009734
 Variable       Old X    -DE/DX   Delta X   Delta X   Delta X     New X
                                 (Linear)    (Quad)   (Total)
    R1        2.66776  -0.00201   0.00392  -0.01047  -0.00655   2.66121
    R2        2.93015  -0.01052  -0.00640  -0.02051  -0.02692   2.90323
    R3        2.09239  -0.00045  -0.00161   0.00136  -0.00024   2.09215
    R4        2.08884   0.00051  -0.00083   0.00264   0.00181   2.09065
    R5        1.78930   0.00038   0.00459  -0.00655  -0.00196   1.78735
    R6        2.66103  -0.00845   0.00174  -0.02004  -0.01831   2.64272
    R7        2.08348   0.00073  -0.00160   0.00439   0.00279   2.08627
    R8        2.09511  -0.00095  -0.00131  -0.00044  -0.00175   2.09336
    R9        1.79752  -0.00238   0.00457  -0.01112  -0.00655   1.79097
    A1        1.89047  -0.00222  -0.00459  -0.00183  -0.00636   1.88411
    A2        1.92915   0.00115   0.00084   0.00573   0.00674   1.93589
    A3        1.89609   0.00197   0.00553   0.00370   0.00918   1.90527
    A4        1.94232  -0.00002  -0.00394   0.00302  -0.00085   1.94147
    A5        1.92655  -0.00115   0.00034  -0.01108  -0.01080   1.91576
    A6        1.87897   0.00036   0.00184   0.00045   0.00228   1.88126
    A7        1.84790   0.00180   0.00537   0.00123   0.00659   1.85449
    A8        2.00388  -0.00457  -0.00756  -0.00934  -0.01685   1.98703
    A9        1.91585   0.00114   0.00057   0.00496   0.00533   1.92118
   A10        1.93983   0.00043  -0.00439   0.00689   0.00256   1.94239
   A11        1.80326   0.00111   0.00800  -0.01198  -0.00400   1.79926
   A12        1.91879   0.00190   0.00299  -0.00036   0.00294   1.92173
   A13        1.87343   0.00032   0.00130   0.00996   0.01132   1.88475
   A14        1.87775  -0.00159  -0.00523  -0.00031  -0.00554   1.87221
    D1        2.90919   0.00027  -0.00345   0.00860   0.00514   2.91434
    D2        0.77705   0.00102   0.00370   0.00245   0.00613   0.78319
    D3       -1.28094  -0.00126  -0.00265  -0.00365  -0.00628  -1.28721
    D4       -1.13326  -0.00005   0.01102  -0.06005  -0.04890  -1.18216
    D5        3.12810   0.00061   0.00535  -0.04248  -0.03705   3.09104
    D6        1.05827  -0.00078   0.00607  -0.06225  -0.05621   1.00206
    D7        0.99081  -0.00011   0.00694  -0.05222  -0.04525   0.94555
    D8       -1.03102   0.00055   0.00127  -0.03465  -0.03341  -1.06443
    D9       -3.10084  -0.00084   0.00200  -0.05442  -0.05257   3.12977
   D10        3.07604  -0.00042   0.00693  -0.05698  -0.04998   3.02606
   D11        1.05422   0.00024   0.00125  -0.03941  -0.03814   1.01607
   D12       -1.01561  -0.00116   0.00198  -0.05918  -0.05730  -1.07291
   D13        0.93641  -0.00005  -0.00902   0.03363   0.02456   0.96096
   D14        3.02206  -0.00036  -0.00739   0.02675   0.01962   3.04168
   D15       -1.26603   0.00138   0.00006   0.03195   0.03181  -1.23421
         Item               Value     Threshold  Converged?
 Maximum Force            0.010516     0.000450     NO 
 RMS     Force            0.002548     0.000300     NO 
 Maximum Displacement     0.064148     0.001800     NO 
 RMS     Displacement     0.026843     0.001200     NO 
 Predicted change in Energy=-4.138213D-04
 GradGradGradGradGradGradGradGradGradGradGradGradGradGradGradGradGradGrad

                          Input orientation:                          
 ---------------------------------------------------------------------
 Center     Atomic      Atomic             Coordinates (Angstroms)
 Number     Number       Type             X           Y           Z
 ---------------------------------------------------------------------
      1          6           0        1.062369    2.179299    1.647302
      2          8           0        1.574687    2.120739    2.957752
      3          6           0        1.354612    0.834631    0.964110
      4          8           0        2.713791    0.602654    0.730588
      5          1           0        1.510883    3.020790    1.084773
      6          1           0       -0.030315    2.346704    1.691689
      7          1           0        1.568960    3.008437    3.284158
      8          1           0        0.920969    0.823218   -0.051101
      9          1           0        0.916488   -0.009058    1.532761
     10          1           0        3.160856    0.689186    1.561769
 ---------------------------------------------------------------------
                    Distance matrix (angstroms):
                    1          2          3          4          5
     1  C    0.000000
     2  O    1.408253   0.000000
     3  C    1.536323   2.382669   0.000000
     4  O    2.460359   2.926158   1.398468   0.000000
     5  H    1.107118   2.078993   2.195056   2.723934   0.000000
     6  H    1.106325   2.056698   2.175720   3.390507   1.788304
     7  H    1.903524   0.945823   3.186534   3.690413   2.200187
     8  H    2.177963   3.341273   1.104007   1.968221   2.543134
     9  H    2.196203   2.645726   1.107758   2.061061   3.119933
    10  H    2.575150   2.552263   1.908106   0.947743   2.895914
                    6          7          8          9         10
     6  H    0.000000
     7  H    2.351921   0.000000
     8  H    2.502652   4.039682   0.000000
     9  H    2.543877   3.549421   1.789224   0.000000
    10  H    3.598307   3.298436   2.763405   2.350654   0.000000
 Stoichiometry    C2H6O2
 Framework group  C1[X(C2H6O2)]
 Deg. of freedom    24
 Full point group                 C1      NOp   1
 Largest Abelian subgroup         C1      NOp   1
 Largest concise Abelian subgroup C1      NOp   1
                         Standard orientation:                         
 ---------------------------------------------------------------------
 Center     Atomic      Atomic             Coordinates (Angstroms)
 Number     Number       Type             X           Y           Z
 ---------------------------------------------------------------------
      1          6           0        0.703414    0.562004   -0.276922
      2          8           0        1.389113   -0.561280    0.224302
      3          6           0       -0.724890    0.535988    0.288374
      4          8           0       -1.506162   -0.517264   -0.197411
      5          1           0        0.696669    0.559454   -1.384017
      6          1           0        1.220752    1.481577    0.055794
      7          1           0        2.181197   -0.637770   -0.286906
      8          1           0       -1.279498    1.431659   -0.041798
      9          1           0       -0.718950    0.526323    1.396074
     10          1           0       -1.034926   -1.320837   -0.022987
 ---------------------------------------------------------------------
 Rotational constants (GHZ):     16.4151302      5.2242864      4.4717563
 Standard basis: VSTO-6G (5D, 7F)
 There are    22 symmetry adapted cartesian basis functions of A   symmetry.
 There are    22 symmetry adapted basis functions of A   symmetry.
    22 basis functions,   132 primitive gaussians,    22 cartesian basis functions
    13 alpha electrons       13 beta electrons
       nuclear repulsion energy       100.9540007856 Hartrees.
 Integral buffers will be    131072 words long.
 Regular integral format.
 Two-electron integral symmetry is turned off.
 Do NDO integrals.
 One-electron integrals computed using PRISM.
 NBasis=    22 RedAO= F EigKep=  0.00D+00  NBF=    22
 NBsUse=    22 1.00D-04 EigRej=  0.00D+00 NBFU=    22
 Initial guess from the checkpoint file:  "1-2-ethanediol-opt.chk"
 B after Tr=     0.000000    0.000000    0.000000
         Rot=    0.999995   -0.000500   -0.001910   -0.002461 Ang=  -0.36 deg.
 Overlap will be assumed to be unity.
 Keep J ints in memory in canonical form, NReq=887849.
 Requested convergence on RMS density matrix=1.00D-08 within 128 cycles.
 Requested convergence on MAX density matrix=1.00D-06.
 Requested convergence on             energy=1.00D-06.
 No special actions if energy rises.
 SCF Done:  E(RPM3) = -0.155539972601     A.U. after   11 cycles
            NFock= 10  Conv=0.95D-08     -V/T= 0.9916
 Calling FoFJK, ICntrl=      2127 FMM=F ISym2X=0 I1Cent= 0 IOpClX= 0 NMat=1 NMatS=1 NMatT=0.
 ***** Axes restored to original set *****
 -------------------------------------------------------------------
 Center     Atomic                   Forces (Hartrees/Bohr)
 Number     Number              X              Y              Z
 -------------------------------------------------------------------
      1        6          -0.000398554   -0.000381827   -0.000462838
      2        8           0.000384023   -0.000772985    0.000191893
      3        6          -0.002140245   -0.000320276   -0.000532593
      4        8           0.001192733    0.000768638   -0.001581164
      5        1           0.000172266   -0.000044833    0.000106070
      6        1          -0.000358271    0.000386488   -0.000660618
      7        1           0.000152443    0.001132830    0.001120048
      8        1          -0.000421220   -0.000460726    0.000094021
      9        1           0.000150512    0.000352114    0.000301501
     10        1           0.001266312   -0.000659423    0.001423680
 -------------------------------------------------------------------
 Cartesian Forces:  Max     0.002140245 RMS     0.000791633

 GradGradGradGradGradGradGradGradGradGradGradGradGradGradGradGradGradGrad
 Berny optimization.
 Using GEDIIS/GDIIS optimizer.
 FormGI is forming the generalized inverse of G from B-inverse, IUseBI=4.
 Internal  Forces:  Max     0.002398140 RMS     0.000676314
 Search for a local minimum.
 Step number   3 out of a maximum of   48
 All quantities printed in internal units (Hartrees-Bohrs-Radians)
 Mixed Optimization -- En-DIIS/RFO-DIIS
 Update second derivatives using D2CorX and points    1    2    3
 DE= -4.35D-04 DEPred=-4.14D-04 R= 1.05D+00
 TightC=F SS=  1.41D+00  RLast= 1.56D-01 DXNew= 8.4853D-01 4.6663D-01
 Trust test= 1.05D+00 RLast= 1.56D-01 DXMaxT set to 5.05D-01
 ITU=  1  1  0
 Use linear search instead of GDIIS.
     Eigenvalues ---    0.00390   0.01294   0.01365   0.04782   0.05396
     Eigenvalues ---    0.05751   0.05928   0.11362   0.11989   0.13570
     Eigenvalues ---    0.14094   0.15981   0.16247   0.21976   0.23089
     Eigenvalues ---    0.33256   0.33382   0.33645   0.34120   0.34693
     Eigenvalues ---    0.41171   0.50624   0.53808   0.56813
 RFO step:  Lambda=-1.59731606D-04 EMin= 3.90115184D-03
 Quartic linear search produced a step of  0.05131.
 Iteration  1 RMS(Cart)=  0.02429637 RMS(Int)=  0.00028594
 Iteration  2 RMS(Cart)=  0.00035595 RMS(Int)=  0.00000291
 Iteration  3 RMS(Cart)=  0.00000006 RMS(Int)=  0.00000291
 Variable       Old X    -DE/DX   Delta X   Delta X   Delta X     New X
                                 (Linear)    (Quad)   (Total)
    R1        2.66121   0.00140  -0.00034   0.00242   0.00209   2.66330
    R2        2.90323   0.00042  -0.00138  -0.00217  -0.00355   2.89967
    R3        2.09215  -0.00002  -0.00001  -0.00002  -0.00004   2.09211
    R4        2.09065   0.00039   0.00009   0.00148   0.00158   2.09223
    R5        1.78735   0.00145  -0.00010   0.00232   0.00222   1.78956
    R6        2.64272   0.00240  -0.00094   0.00304   0.00210   2.64482
    R7        2.08627   0.00008   0.00014   0.00072   0.00087   2.08714
    R8        2.09336  -0.00017  -0.00009  -0.00073  -0.00082   2.09254
    R9        1.79097   0.00179  -0.00034   0.00236   0.00202   1.79300
    A1        1.88411  -0.00002  -0.00033  -0.00023  -0.00056   1.88355
    A2        1.93589  -0.00004   0.00035   0.00020   0.00054   1.93644
    A3        1.90527   0.00029   0.00047   0.00519   0.00566   1.91093
    A4        1.94147  -0.00004  -0.00004  -0.00135  -0.00140   1.94007
    A5        1.91576  -0.00005  -0.00055  -0.00154  -0.00210   1.91365
    A6        1.88126  -0.00013   0.00012  -0.00213  -0.00202   1.87924
    A7        1.85449   0.00120   0.00034   0.00844   0.00878   1.86327
    A8        1.98703  -0.00030  -0.00086  -0.00326  -0.00413   1.98290
    A9        1.92118   0.00020   0.00027   0.00215   0.00242   1.92360
   A10        1.94239  -0.00020   0.00013  -0.00162  -0.00149   1.94089
   A11        1.79926   0.00011  -0.00021   0.00046   0.00026   1.79952
   A12        1.92173   0.00030   0.00015   0.00213   0.00227   1.92400
   A13        1.88475  -0.00008   0.00058   0.00053   0.00110   1.88586
   A14        1.87221   0.00107  -0.00028   0.00637   0.00609   1.87830
    D1        2.91434  -0.00000   0.00026   0.00407   0.00433   2.91867
    D2        0.78319   0.00009   0.00031   0.00577   0.00609   0.78927
    D3       -1.28721   0.00009  -0.00032   0.00502   0.00469  -1.28252
    D4       -1.18216  -0.00003  -0.00251  -0.04347  -0.04598  -1.22814
    D5        3.09104  -0.00012  -0.00190  -0.04347  -0.04537   3.04567
    D6        1.00206  -0.00003  -0.00288  -0.04449  -0.04738   0.95469
    D7        0.94555  -0.00012  -0.00232  -0.04421  -0.04654   0.89901
    D8       -1.06443  -0.00020  -0.00171  -0.04422  -0.04593  -1.11036
    D9        3.12977  -0.00011  -0.00270  -0.04524  -0.04794   3.08184
   D10        3.02606  -0.00034  -0.00256  -0.04871  -0.05128   2.97478
   D11        1.01607  -0.00042  -0.00196  -0.04871  -0.05066   0.96541
   D12       -1.07291  -0.00033  -0.00294  -0.04974  -0.05267  -1.12558
   D13        0.96096   0.00027   0.00126   0.03117   0.03243   0.99339
   D14        3.04168   0.00043   0.00101   0.03238   0.03339   3.07507
   D15       -1.23421   0.00053   0.00163   0.03413   0.03577  -1.19845
         Item               Value     Threshold  Converged?
 Maximum Force            0.002398     0.000450     NO 
 RMS     Force            0.000676     0.000300     NO 
 Maximum Displacement     0.055747     0.001800     NO 
 RMS     Displacement     0.024372     0.001200     NO 
 Predicted change in Energy=-8.441211D-05
 GradGradGradGradGradGradGradGradGradGradGradGradGradGradGradGradGradGrad

                          Input orientation:                          
 ---------------------------------------------------------------------
 Center     Atomic      Atomic             Coordinates (Angstroms)
 Number     Number       Type             X           Y           Z
 ---------------------------------------------------------------------
      1          6           0        1.065716    2.181723    1.645289
      2          8           0        1.552035    2.116613    2.966479
      3          6           0        1.353226    0.834474    0.969441
      4          8           0        2.711307    0.614928    0.712067
      5          1           0        1.537255    3.015748    1.090564
      6          1           0       -0.026180    2.364148    1.662189
      7          1           0        1.551131    3.002283    3.301718
      8          1           0        0.900090    0.808230   -0.037446
      9          1           0        0.933920   -0.005645    1.556424
     10          1           0        3.174799    0.684098    1.537075
 ---------------------------------------------------------------------
                    Distance matrix (angstroms):
                    1          2          3          4          5
     1  C    0.000000
     2  O    1.409357   0.000000
     3  C    1.534442   2.381504   0.000000
     4  O    2.456363   2.946411   1.399581   0.000000
     5  H    1.107099   2.080317   2.192372   2.699184   0.000000
     6  H    1.107159   2.062331   2.173146   3.384722   1.787643
     7  H    1.911206   0.946995   3.190311   3.708337   2.211239
     8  H    2.178419   3.340727   1.104465   1.969681   2.559594
     9  H    2.193135   2.621888   1.107323   2.063287   3.116064
    10  H    2.588981   2.593966   1.913883   0.948813   2.884010
                    6          7          8          9         10
     6  H    0.000000
     7  H    2.362877   0.000000
     8  H    2.483468   4.048178   0.000000
     9  H    2.559081   3.531945   1.789960   0.000000
    10  H    3.617249   3.335303   2.769264   2.344709   0.000000
 Stoichiometry    C2H6O2
 Framework group  C1[X(C2H6O2)]
 Deg. of freedom    24
 Full point group                 C1      NOp   1
 Largest Abelian subgroup         C1      NOp   1
 Largest concise Abelian subgroup C1      NOp   1
                         Standard orientation:                         
 ---------------------------------------------------------------------
 Center     Atomic      Atomic             Coordinates (Angstroms)
 Number     Number       Type             X           Y           Z
 ---------------------------------------------------------------------
      1          6           0        0.698072    0.555131   -0.287085
      2          8           0        1.400384   -0.552925    0.227945
      3          6           0       -0.719764    0.529422    0.299083
      4          8           0       -1.514322   -0.508636   -0.200857
      5          1           0        0.673550    0.528754   -1.393599
      6          1           0        1.209081    1.489505    0.015598
      7          1           0        2.190750   -0.638442   -0.286649
      8          1           0       -1.273751    1.436174   -0.002151
      9          1           0       -0.695140    0.494107    1.405569
     10          1           0       -1.062833   -1.324930   -0.027457
 ---------------------------------------------------------------------
 Rotational constants (GHZ):     16.5451320      5.1733460      4.4625940
 Standard basis: VSTO-6G (5D, 7F)
 There are    22 symmetry adapted cartesian basis functions of A   symmetry.
 There are    22 symmetry adapted basis functions of A   symmetry.
    22 basis functions,   132 primitive gaussians,    22 cartesian basis functions
    13 alpha electrons       13 beta electrons
       nuclear repulsion energy       100.8962444358 Hartrees.
 Integral buffers will be    131072 words long.
 Regular integral format.
 Two-electron integral symmetry is turned off.
 Do NDO integrals.
 One-electron integrals computed using PRISM.
 NBasis=    22 RedAO= F EigKep=  0.00D+00  NBF=    22
 NBsUse=    22 1.00D-04 EigRej=  0.00D+00 NBFU=    22
 Initial guess from the checkpoint file:  "1-2-ethanediol-opt.chk"
 B after Tr=    -0.000000   -0.000000   -0.000000
         Rot=    0.999998   -0.000028   -0.002059    0.000047 Ang=  -0.24 deg.
 Overlap will be assumed to be unity.
 Keep J ints in memory in canonical form, NReq=887849.
 Requested convergence on RMS density matrix=1.00D-08 within 128 cycles.
 Requested convergence on MAX density matrix=1.00D-06.
 Requested convergence on             energy=1.00D-06.
 No special actions if energy rises.
 SCF Done:  E(RPM3) = -0.155654094749     A.U. after   11 cycles
            NFock= 10  Conv=0.98D-08     -V/T= 0.9916
 Calling FoFJK, ICntrl=      2127 FMM=F ISym2X=0 I1Cent= 0 IOpClX= 0 NMat=1 NMatS=1 NMatT=0.
 ***** Axes restored to original set *****
 -------------------------------------------------------------------
 Center     Atomic                   Forces (Hartrees/Bohr)
 Number     Number              X              Y              Z
 -------------------------------------------------------------------
      1        6          -0.000661139    0.001077153    0.000365238
      2        8           0.000271990   -0.000353913    0.000111003
      3        6          -0.000655316   -0.001005499   -0.000351055
      4        8           0.001248300    0.000458173   -0.001190040
      5        1           0.000179475    0.000163742    0.000175606
      6        1           0.000104641    0.000413129   -0.000047897
      7        1          -0.000261228    0.000077201   -0.000203953
      8        1          -0.000087129   -0.000378189    0.000340567
      9        1           0.000010791   -0.000053076    0.000175856
     10        1          -0.000150384   -0.000398720    0.000624675
 -------------------------------------------------------------------
 Cartesian Forces:  Max     0.001248300 RMS     0.000514854

 GradGradGradGradGradGradGradGradGradGradGradGradGradGradGradGradGradGrad
 Berny optimization.
 Using GEDIIS/GDIIS optimizer.
 FormGI is forming the generalized inverse of G from B-inverse, IUseBI=4.
 Internal  Forces:  Max     0.001454094 RMS     0.000374995
 Search for a local minimum.
 Step number   4 out of a maximum of   48
 All quantities printed in internal units (Hartrees-Bohrs-Radians)
 Mixed Optimization -- En-DIIS/RFO-DIIS
 Swapping is turned off.
 Update second derivatives using D2CorX and points    1    2    3    4
 DE= -1.14D-04 DEPred=-8.44D-05 R= 1.35D+00
 TightC=F SS=  1.41D+00  RLast= 1.57D-01 DXNew= 8.4853D-01 4.7156D-01
 Trust test= 1.35D+00 RLast= 1.57D-01 DXMaxT set to 5.05D-01
 ITU=  1  1  1  0
     Eigenvalues ---    0.00203   0.01172   0.01316   0.04807   0.05391
     Eigenvalues ---    0.05796   0.05982   0.11516   0.12000   0.13640
     Eigenvalues ---    0.14049   0.16223   0.19279   0.22136   0.23038
     Eigenvalues ---    0.33336   0.33437   0.33653   0.34124   0.37648
     Eigenvalues ---    0.42336   0.51437   0.54725   0.55923
 En-DIIS/RFO-DIIS IScMMF=        0 using points:     4    3
 RFO step:  Lambda=-1.38436458D-05.
 DidBck=F Rises=F RFO-DIIS coefs:    1.66462   -0.66462
 Iteration  1 RMS(Cart)=  0.03329962 RMS(Int)=  0.00051880
 Iteration  2 RMS(Cart)=  0.00069081 RMS(Int)=  0.00000407
 Iteration  3 RMS(Cart)=  0.00000026 RMS(Int)=  0.00000407
 Variable       Old X    -DE/DX   Delta X   Delta X   Delta X     New X
                                 (Linear)    (Quad)   (Total)
    R1        2.66330  -0.00007   0.00139  -0.00221  -0.00082   2.66248
    R2        2.89967   0.00145  -0.00236   0.00281   0.00045   2.90012
    R3        2.09211   0.00011  -0.00002   0.00055   0.00053   2.09264
    R4        2.09223  -0.00004   0.00105  -0.00001   0.00104   2.09327
    R5        1.78956   0.00000   0.00147  -0.00095   0.00052   1.79008
    R6        2.64482   0.00116   0.00140   0.00002   0.00142   2.64624
    R7        2.08714  -0.00027   0.00058  -0.00076  -0.00019   2.08695
    R8        2.09254   0.00013  -0.00055   0.00043  -0.00011   2.09243
    R9        1.79300   0.00044   0.00134  -0.00055   0.00079   1.79379
    A1        1.88355  -0.00032  -0.00037  -0.00365  -0.00402   1.87953
    A2        1.93644  -0.00004   0.00036  -0.00142  -0.00106   1.93537
    A3        1.91093  -0.00002   0.00376   0.00059   0.00436   1.91528
    A4        1.94007   0.00021  -0.00093   0.00209   0.00116   1.94123
    A5        1.91365   0.00038  -0.00140   0.00346   0.00206   1.91572
    A6        1.87924  -0.00020  -0.00134  -0.00096  -0.00230   1.87693
    A7        1.86327  -0.00053   0.00583  -0.00567   0.00016   1.86343
    A8        1.98290  -0.00021  -0.00274  -0.00410  -0.00684   1.97606
    A9        1.92360   0.00018   0.00161   0.00290   0.00451   1.92811
   A10        1.94089   0.00004  -0.00099   0.00101   0.00002   1.94091
   A11        1.79952   0.00002   0.00017  -0.00080  -0.00062   1.79890
   A12        1.92400   0.00012   0.00151   0.00122   0.00272   1.92672
   A13        1.88586  -0.00015   0.00073  -0.00017   0.00056   1.88642
   A14        1.87830  -0.00062   0.00405  -0.00858  -0.00453   1.87376
    D1        2.91867   0.00001   0.00288   0.01049   0.01337   2.93204
    D2        0.78927  -0.00001   0.00405   0.01117   0.01521   0.80449
    D3       -1.28252   0.00027   0.00312   0.01285   0.01597  -1.26655
    D4       -1.22814  -0.00006  -0.03056  -0.03429  -0.06486  -1.29300
    D5        3.04567  -0.00007  -0.03015  -0.03268  -0.06283   2.98284
    D6        0.95469  -0.00004  -0.03149  -0.03504  -0.06653   0.88816
    D7        0.89901  -0.00020  -0.03093  -0.03715  -0.06809   0.83092
    D8       -1.11036  -0.00021  -0.03053  -0.03554  -0.06607  -1.17643
    D9        3.08184  -0.00017  -0.03186  -0.03790  -0.06976   3.01207
   D10        2.97478  -0.00007  -0.03408  -0.03483  -0.06891   2.90587
   D11        0.96541  -0.00008  -0.03367  -0.03322  -0.06688   0.89853
   D12       -1.12558  -0.00004  -0.03501  -0.03558  -0.07058  -1.19616
   D13        0.99339   0.00024   0.02155   0.03122   0.05277   1.04616
   D14        3.07507   0.00037   0.02219   0.03212   0.05431   3.12938
   D15       -1.19845   0.00026   0.02377   0.03203   0.05581  -1.14264
         Item               Value     Threshold  Converged?
 Maximum Force            0.001454     0.000450     NO 
 RMS     Force            0.000375     0.000300     NO 
 Maximum Displacement     0.070394     0.001800     NO 
 RMS     Displacement     0.033437     0.001200     NO 
 Predicted change in Energy=-6.280108D-05
 GradGradGradGradGradGradGradGradGradGradGradGradGradGradGradGradGradGrad

                          Input orientation:                          
 ---------------------------------------------------------------------
 Center     Atomic      Atomic             Coordinates (Angstroms)
 Number     Number       Type             X           Y           Z
 ---------------------------------------------------------------------
      1          6           0        1.071631    2.186616    1.643365
      2          8           0        1.523324    2.109695    2.975701
      3          6           0        1.353217    0.833310    0.976645
      4          8           0        2.707936    0.633288    0.683975
      5          1           0        1.574506    3.012092    1.102999
      6          1           0       -0.016742    2.392153    1.628625
      7          1           0        1.519201    2.993301    3.317085
      8          1           0        0.873303    0.784864   -0.016812
      9          1           0        0.962956   -0.003304    1.588043
     10          1           0        3.183969    0.674585    1.504175
 ---------------------------------------------------------------------
                    Distance matrix (angstroms):
                    1          2          3          4          5
     1  C    0.000000
     2  O    1.408922   0.000000
     3  C    1.534680   2.377881   0.000000
     4  O    2.451684   2.972388   1.400331   0.000000
     5  H    1.107380   2.079411   2.193632   2.668137   0.000000
     6  H    1.107708   2.065478   2.175283   3.377845   1.786806
     7  H    1.911125   0.947270   3.189165   3.730418   2.214856
     8  H    2.181841   3.336590   1.104364   1.969760   2.589634
     9  H    2.193313   2.589280   1.107265   2.065803   3.114783
    10  H    2.601458   2.642474   1.911840   0.949231   2.866225
                    6          7          8          9         10
     6  H    0.000000
     7  H    2.360381   0.000000
     8  H    2.466377   4.050833   0.000000
     9  H    2.588372   3.504089   1.790197   0.000000
    10  H    3.634567   3.381499   2.768526   2.323675   0.000000
 Stoichiometry    C2H6O2
 Framework group  C1[X(C2H6O2)]
 Deg. of freedom    24
 Full point group                 C1      NOp   1
 Largest Abelian subgroup         C1      NOp   1
 Largest concise Abelian subgroup C1      NOp   1
                         Standard orientation:                         
 ---------------------------------------------------------------------
 Center     Atomic      Atomic             Coordinates (Angstroms)
 Number     Number       Type             X           Y           Z
 ---------------------------------------------------------------------
      1          6           0        0.692881    0.544571   -0.300568
      2          8           0        1.413302   -0.542556    0.232545
      3          6           0       -0.712860    0.519054    0.314644
      4          8           0       -1.525880   -0.494304   -0.207879
      5          1           0        0.648099    0.484803   -1.405426
      6          1           0        1.199512    1.493954   -0.037862
      7          1           0        2.201292   -0.628836   -0.286057
      8          1           0       -1.264493    1.440132    0.055923
      9          1           0       -0.665710    0.445238    1.418439
     10          1           0       -1.098198   -1.322157   -0.026806
 ---------------------------------------------------------------------
 Rotational constants (GHZ):     16.7667436      5.1051495      4.4554147
 Standard basis: VSTO-6G (5D, 7F)
 There are    22 symmetry adapted cartesian basis functions of A   symmetry.
 There are    22 symmetry adapted basis functions of A   symmetry.
    22 basis functions,   132 primitive gaussians,    22 cartesian basis functions
    13 alpha electrons       13 beta electrons
       nuclear repulsion energy       100.8519615436 Hartrees.
 Integral buffers will be    131072 words long.
 Regular integral format.
 Two-electron integral symmetry is turned off.
 Do NDO integrals.
 One-electron integrals computed using PRISM.
 NBasis=    22 RedAO= F EigKep=  0.00D+00  NBF=    22
 NBsUse=    22 1.00D-04 EigRej=  0.00D+00 NBFU=    22
 Initial guess from the checkpoint file:  "1-2-ethanediol-opt.chk"
 B after Tr=    -0.000000    0.000000   -0.000000
         Rot=    0.999996   -0.000729   -0.002495    0.000530 Ang=  -0.30 deg.
 Overlap will be assumed to be unity.
 Keep J ints in memory in canonical form, NReq=887849.
 Requested convergence on RMS density matrix=1.00D-08 within 128 cycles.
 Requested convergence on MAX density matrix=1.00D-06.
 Requested convergence on             energy=1.00D-06.
 No special actions if energy rises.
 SCF Done:  E(RPM3) = -0.155729217894     A.U. after   12 cycles
            NFock= 11  Conv=0.26D-08     -V/T= 0.9916
 Calling FoFJK, ICntrl=      2127 FMM=F ISym2X=0 I1Cent= 0 IOpClX= 0 NMat=1 NMatS=1 NMatT=0.
 ***** Axes restored to original set *****
 -------------------------------------------------------------------
 Center     Atomic                   Forces (Hartrees/Bohr)
 Number     Number              X              Y              Z
 -------------------------------------------------------------------
      1        6          -0.000921234    0.001120163   -0.000194525
      2        8           0.000309219    0.000148197    0.000546755
      3        6          -0.000147002   -0.000921992   -0.000632102
      4        8           0.000916846    0.000070914   -0.000335882
      5        1           0.000085060    0.000060189    0.000089156
      6        1           0.000373133    0.000165818    0.000273068
      7        1          -0.000266937   -0.000164304   -0.000214012
      8        1          -0.000066250   -0.000092036    0.000382474
      9        1          -0.000195593   -0.000195936    0.000004489
     10        1          -0.000087241   -0.000191013    0.000080579
 -------------------------------------------------------------------
 Cartesian Forces:  Max     0.001120163 RMS     0.000427318

 GradGradGradGradGradGradGradGradGradGradGradGradGradGradGradGradGradGrad
 Berny optimization.
 Using GEDIIS/GDIIS optimizer.
 FormGI is forming the generalized inverse of G from B-inverse, IUseBI=4.
 Internal  Forces:  Max     0.001467483 RMS     0.000323610
 Search for a local minimum.
 Step number   5 out of a maximum of   48
 All quantities printed in internal units (Hartrees-Bohrs-Radians)
 Mixed Optimization -- En-DIIS/RFO-DIIS
 Swapping is turned off.
 Update second derivatives using D2CorX and points    2    3    4    5
 DE= -7.51D-05 DEPred=-6.28D-05 R= 1.20D+00
 TightC=F SS=  1.41D+00  RLast= 2.24D-01 DXNew= 8.4853D-01 6.7293D-01
 Trust test= 1.20D+00 RLast= 2.24D-01 DXMaxT set to 6.73D-01
 ITU=  1  1  1  1  0
     Eigenvalues ---    0.00181   0.01100   0.01342   0.04850   0.05400
     Eigenvalues ---    0.05814   0.06000   0.11479   0.11964   0.13640
     Eigenvalues ---    0.14097   0.16264   0.19407   0.22092   0.23003
     Eigenvalues ---    0.33324   0.33516   0.33656   0.34114   0.37912
     Eigenvalues ---    0.42242   0.51100   0.54395   0.55780
 En-DIIS/RFO-DIIS IScMMF=        0 using points:     5    4    3
 RFO step:  Lambda=-6.89587408D-06.
 DidBck=F Rises=F RFO-DIIS coefs:    1.31014   -0.40224    0.09210
 Iteration  1 RMS(Cart)=  0.00960927 RMS(Int)=  0.00004819
 Iteration  2 RMS(Cart)=  0.00005924 RMS(Int)=  0.00000076
 Iteration  3 RMS(Cart)=  0.00000000 RMS(Int)=  0.00000076
 Variable       Old X    -DE/DX   Delta X   Delta X   Delta X     New X
                                 (Linear)    (Quad)   (Total)
    R1        2.66248   0.00033  -0.00045   0.00133   0.00088   2.66336
    R2        2.90012   0.00147   0.00047   0.00272   0.00318   2.90331
    R3        2.09264   0.00004   0.00017  -0.00007   0.00009   2.09274
    R4        2.09327  -0.00034   0.00018  -0.00101  -0.00084   2.09243
    R5        1.79008  -0.00023  -0.00004  -0.00006  -0.00010   1.78998
    R6        2.64624   0.00087   0.00025   0.00138   0.00162   2.64787
    R7        2.08695  -0.00031  -0.00014  -0.00075  -0.00089   2.08605
    R8        2.09243   0.00022   0.00004   0.00045   0.00049   2.09292
    R9        1.79379   0.00002   0.00006   0.00006   0.00012   1.79391
    A1        1.87953   0.00017  -0.00119   0.00079  -0.00040   1.87913
    A2        1.93537  -0.00013  -0.00038  -0.00071  -0.00109   1.93428
    A3        1.91528  -0.00028   0.00083  -0.00160  -0.00077   1.91451
    A4        1.94123   0.00004   0.00049   0.00007   0.00056   1.94179
    A5        1.91572   0.00025   0.00083   0.00120   0.00203   1.91775
    A6        1.87693  -0.00005  -0.00053   0.00023  -0.00030   1.87663
    A7        1.86343  -0.00040  -0.00076  -0.00033  -0.00109   1.86234
    A8        1.97606   0.00010  -0.00174  -0.00001  -0.00175   1.97431
    A9        1.92811  -0.00012   0.00118  -0.00127  -0.00010   1.92801
   A10        1.94091   0.00008   0.00014   0.00027   0.00042   1.94132
   A11        1.79890   0.00008  -0.00022   0.00159   0.00137   1.80027
   A12        1.92672  -0.00003   0.00063   0.00094   0.00157   1.92829
   A13        1.88642  -0.00012   0.00007  -0.00155  -0.00148   1.88494
   A14        1.87376  -0.00015  -0.00197   0.00046  -0.00151   1.87225
    D1        2.93204   0.00006   0.00375   0.00870   0.01245   2.94450
    D2        0.80449  -0.00001   0.00416   0.00854   0.01269   0.81718
    D3       -1.26655   0.00030   0.00452   0.00971   0.01423  -1.25233
    D4       -1.29300  -0.00003  -0.01588   0.00024  -0.01565  -1.30864
    D5        2.98284  -0.00011  -0.01531  -0.00091  -0.01622   2.96662
    D6        0.88816   0.00006  -0.01627   0.00170  -0.01457   0.87359
    D7        0.83092  -0.00006  -0.01683  -0.00008  -0.01691   0.81400
    D8       -1.17643  -0.00014  -0.01626  -0.00123  -0.01749  -1.19392
    D9        3.01207   0.00004  -0.01722   0.00139  -0.01584   2.99623
   D10        2.90587   0.00006  -0.01665   0.00102  -0.01563   2.89024
   D11        0.89853  -0.00002  -0.01608  -0.00013  -0.01621   0.88232
   D12       -1.19616   0.00016  -0.01704   0.00249  -0.01455  -1.21071
   D13        1.04616   0.00018   0.01338   0.00744   0.02081   1.06697
   D14        3.12938   0.00014   0.01377   0.00689   0.02066  -3.13314
   D15       -1.14264   0.00003   0.01401   0.00634   0.02035  -1.12229
         Item               Value     Threshold  Converged?
 Maximum Force            0.001467     0.000450     NO 
 RMS     Force            0.000324     0.000300     NO 
 Maximum Displacement     0.027717     0.001800     NO 
 RMS     Displacement     0.009631     0.001200     NO 
 Predicted change in Energy=-1.063038D-05
 GradGradGradGradGradGradGradGradGradGradGradGradGradGradGradGradGradGrad

                          Input orientation:                          
 ---------------------------------------------------------------------
 Center     Atomic      Atomic             Coordinates (Angstroms)
 Number     Number       Type             X           Y           Z
 ---------------------------------------------------------------------
      1          6           0        1.073631    2.188774    1.642943
      2          8           0        1.518203    2.110584    2.978089
      3          6           0        1.354290    0.832544    0.977899
      4          8           0        2.708492    0.637933    0.675249
      5          1           0        1.583174    3.012386    1.105888
      6          1           0       -0.013117    2.400033    1.623297
      7          1           0        1.504534    2.993163    3.321723
      8          1           0        0.865858    0.778936   -0.010605
      9          1           0        0.971000   -0.003592    1.594806
     10          1           0        3.187234    0.665839    1.494511
 ---------------------------------------------------------------------
                    Distance matrix (angstroms):
                    1          2          3          4          5
     1  C    0.000000
     2  O    1.409387   0.000000
     3  C    1.536364   2.379289   0.000000
     4  O    2.452409   2.981369   1.401190   0.000000
     5  H    1.107429   2.079088   2.195559   2.662671   0.000000
     6  H    1.107265   2.064990   2.177926   3.378009   1.786290
     7  H    1.910765   0.947216   3.191295   3.741717   2.217314
     8  H    2.182896   3.336335   1.103892   1.971187   2.597961
     9  H    2.195295   2.585080   1.107524   2.067853   3.116074
    10  H    2.609345   2.659691   1.911639   0.949296   2.868853
                    6          7          8          9         10
     6  H    0.000000
     7  H    2.353661   0.000000
     8  H    2.463775   4.051558   0.000000
     9  H    2.597443   3.499634   1.789063   0.000000
    10  H    3.642288   3.403912   2.768926   2.317302   0.000000
 Stoichiometry    C2H6O2
 Framework group  C1[X(C2H6O2)]
 Deg. of freedom    24
 Full point group                 C1      NOp   1
 Largest Abelian subgroup         C1      NOp   1
 Largest concise Abelian subgroup C1      NOp   1
                         Standard orientation:                         
 ---------------------------------------------------------------------
 Center     Atomic      Atomic             Coordinates (Angstroms)
 Number     Number       Type             X           Y           Z
 ---------------------------------------------------------------------
      1          6           0        0.692462    0.541850   -0.303640
      2          8           0        1.417555   -0.541148    0.232763
      3          6           0       -0.711974    0.516554    0.318723
      4          8           0       -1.530236   -0.490263   -0.210523
      5          1           0        0.643519    0.474520   -1.407936
      6          1           0        1.199711    1.492790   -0.049771
      7          1           0        2.208510   -0.620974   -0.282247
      8          1           0       -1.260567    1.441957    0.071227
      9          1           0       -0.660315    0.434002    1.421957
     10          1           0       -1.112342   -1.321438   -0.021646
 ---------------------------------------------------------------------
 Rotational constants (GHZ):     16.8194352      5.0787243      4.4459523
 Standard basis: VSTO-6G (5D, 7F)
 There are    22 symmetry adapted cartesian basis functions of A   symmetry.
 There are    22 symmetry adapted basis functions of A   symmetry.
    22 basis functions,   132 primitive gaussians,    22 cartesian basis functions
    13 alpha electrons       13 beta electrons
       nuclear repulsion energy       100.8108076856 Hartrees.
 Integral buffers will be    131072 words long.
 Regular integral format.
 Two-electron integral symmetry is turned off.
 Do NDO integrals.
 One-electron integrals computed using PRISM.
 NBasis=    22 RedAO= F EigKep=  0.00D+00  NBF=    22
 NBsUse=    22 1.00D-04 EigRej=  0.00D+00 NBFU=    22
 Initial guess from the checkpoint file:  "1-2-ethanediol-opt.chk"
 B after Tr=     0.000000   -0.000000   -0.000000
         Rot=    1.000000   -0.000367   -0.000535    0.000313 Ang=  -0.08 deg.
 Overlap will be assumed to be unity.
 Keep J ints in memory in canonical form, NReq=887849.
 Requested convergence on RMS density matrix=1.00D-08 within 128 cycles.
 Requested convergence on MAX density matrix=1.00D-06.
 Requested convergence on             energy=1.00D-06.
 No special actions if energy rises.
 SCF Done:  E(RPM3) = -0.155743541059     A.U. after   11 cycles
            NFock= 10  Conv=0.19D-08     -V/T= 0.9916
 Calling FoFJK, ICntrl=      2127 FMM=F ISym2X=0 I1Cent= 0 IOpClX= 0 NMat=1 NMatS=1 NMatT=0.
 ***** Axes restored to original set *****
 -------------------------------------------------------------------
 Center     Atomic                   Forces (Hartrees/Bohr)
 Number     Number              X              Y              Z
 -------------------------------------------------------------------
      1        6          -0.000345698    0.000335916   -0.000072798
      2        8           0.000236135    0.000067556    0.000055145
      3        6           0.000203841   -0.000247142   -0.000104868
      4        8           0.000113244    0.000075436    0.000029449
      5        1           0.000086135   -0.000043215    0.000012269
      6        1           0.000132314    0.000025078    0.000140653
      7        1          -0.000207870   -0.000117367   -0.000100873
      8        1          -0.000024227    0.000010397    0.000093239
      9        1          -0.000090985   -0.000042824   -0.000003876
     10        1          -0.000102888   -0.000063835   -0.000048340
 -------------------------------------------------------------------
 Cartesian Forces:  Max     0.000345698 RMS     0.000139648

 GradGradGradGradGradGradGradGradGradGradGradGradGradGradGradGradGradGrad
 Berny optimization.
 Using GEDIIS/GDIIS optimizer.
 FormGI is forming the generalized inverse of G from B-inverse, IUseBI=4.
 Internal  Forces:  Max     0.000269521 RMS     0.000083190
 Search for a local minimum.
 Step number   6 out of a maximum of   48
 All quantities printed in internal units (Hartrees-Bohrs-Radians)
 Mixed Optimization -- En-DIIS/RFO-DIIS
 Swapping is turned off.
 Update second derivatives using D2CorX and points    2    3    4    5    6
 DE= -1.43D-05 DEPred=-1.06D-05 R= 1.35D+00
 TightC=F SS=  1.41D+00  RLast= 6.41D-02 DXNew= 1.1317D+00 1.9232D-01
 Trust test= 1.35D+00 RLast= 6.41D-02 DXMaxT set to 6.73D-01
 ITU=  1  1  1  1  1  0
     Eigenvalues ---    0.00178   0.00875   0.01354   0.04848   0.05387
     Eigenvalues ---    0.05682   0.05982   0.11400   0.11985   0.13574
     Eigenvalues ---    0.14051   0.16247   0.18979   0.22135   0.22998
     Eigenvalues ---    0.33285   0.33398   0.33652   0.34127   0.35777
     Eigenvalues ---    0.42157   0.50745   0.54125   0.58402
 En-DIIS/RFO-DIIS IScMMF=        0 using points:     6    5    4    3
 RFO step:  Lambda=-9.16341465D-07.
 DidBck=F Rises=F RFO-DIIS coefs:    1.46686   -0.47120   -0.06105    0.06539
 Iteration  1 RMS(Cart)=  0.00438476 RMS(Int)=  0.00002660
 Iteration  2 RMS(Cart)=  0.00002354 RMS(Int)=  0.00000059
 Iteration  3 RMS(Cart)=  0.00000000 RMS(Int)=  0.00000059
 Variable       Old X    -DE/DX   Delta X   Delta X   Delta X     New X
                                 (Linear)    (Quad)   (Total)
    R1        2.66336  -0.00003   0.00028  -0.00009   0.00019   2.66354
    R2        2.90331   0.00027   0.00172  -0.00050   0.00122   2.90453
    R3        2.09274   0.00000   0.00004  -0.00004   0.00001   2.09274
    R4        2.09243  -0.00013  -0.00050  -0.00005  -0.00055   2.09188
    R5        1.78998  -0.00014  -0.00019  -0.00000  -0.00020   1.78978
    R6        2.64787   0.00001   0.00061  -0.00027   0.00034   2.64821
    R7        2.08605  -0.00007  -0.00047   0.00009  -0.00038   2.08568
    R8        2.09292   0.00006   0.00028  -0.00003   0.00025   2.09317
    R9        1.79391  -0.00010  -0.00008  -0.00002  -0.00010   1.79381
    A1        1.87913   0.00000  -0.00013  -0.00034  -0.00048   1.87865
    A2        1.93428  -0.00002  -0.00054  -0.00024  -0.00078   1.93350
    A3        1.91451  -0.00008  -0.00075   0.00014  -0.00061   1.91390
    A4        1.94179  -0.00001   0.00035  -0.00042  -0.00007   1.94172
    A5        1.91775   0.00008   0.00108   0.00012   0.00120   1.91895
    A6        1.87663   0.00003   0.00000   0.00074   0.00074   1.87737
    A7        1.86234  -0.00021  -0.00109  -0.00014  -0.00123   1.86111
    A8        1.97431   0.00001  -0.00052  -0.00014  -0.00066   1.97365
    A9        1.92801  -0.00007  -0.00022  -0.00044  -0.00066   1.92734
   A10        1.94132   0.00002   0.00029  -0.00017   0.00013   1.94145
   A11        1.80027   0.00005   0.00063   0.00035   0.00098   1.80125
   A12        1.92829   0.00001   0.00057   0.00050   0.00108   1.92937
   A13        1.88494  -0.00002  -0.00077  -0.00007  -0.00084   1.88410
   A14        1.87225  -0.00010  -0.00108   0.00035  -0.00074   1.87152
    D1        2.94450   0.00008   0.00547   0.00823   0.01371   2.95820
    D2        0.81718   0.00010   0.00546   0.00912   0.01458   0.83176
    D3       -1.25233   0.00013   0.00627   0.00826   0.01452  -1.23780
    D4       -1.30864   0.00001  -0.00402   0.00127  -0.00274  -1.31139
    D5        2.96662  -0.00002  -0.00433   0.00120  -0.00313   2.96349
    D6        0.87359   0.00004  -0.00341   0.00170  -0.00172   0.87187
    D7        0.81400  -0.00003  -0.00456   0.00049  -0.00406   0.80994
    D8       -1.19392  -0.00005  -0.00488   0.00042  -0.00445  -1.19837
    D9        2.99623   0.00001  -0.00396   0.00092  -0.00304   2.99320
   D10        2.89024   0.00005  -0.00365   0.00124  -0.00241   2.88783
   D11        0.88232   0.00003  -0.00396   0.00117  -0.00280   0.87952
   D12       -1.21071   0.00009  -0.00304   0.00166  -0.00138  -1.21209
   D13        1.06697   0.00007   0.00737   0.00373   0.01110   1.07807
   D14       -3.13314   0.00002   0.00723   0.00335   0.01057  -3.12257
   D15       -1.12229   0.00003   0.00692   0.00366   0.01058  -1.11171
         Item               Value     Threshold  Converged?
 Maximum Force            0.000270     0.000450     YES
 RMS     Force            0.000083     0.000300     YES
 Maximum Displacement     0.018271     0.001800     NO 
 RMS     Displacement     0.004387     0.001200     NO 
 Predicted change in Energy=-3.163544D-06
 GradGradGradGradGradGradGradGradGradGradGradGradGradGradGradGradGradGrad

                          Input orientation:                          
 ---------------------------------------------------------------------
 Center     Atomic      Atomic             Coordinates (Angstroms)
 Number     Number       Type             X           Y           Z
 ---------------------------------------------------------------------
      1          6           0        1.074855    2.189903    1.642595
      2          8           0        1.520198    2.112027    2.977607
      3          6           0        1.355167    0.832557    0.978187
      4          8           0        2.709083    0.639787    0.672248
      5          1           0        1.585415    3.012824    1.105441
      6          1           0       -0.011410    2.402238    1.624173
      7          1           0        1.494866    2.993275    3.323703
      8          1           0        0.863484    0.777723   -0.008412
      9          1           0        0.973576   -0.003338    1.596713
     10          1           0        3.188067    0.659603    1.491546
 ---------------------------------------------------------------------
                    Distance matrix (angstroms):
                    1          2          3          4          5
     1  C    0.000000
     2  O    1.409486   0.000000
     3  C    1.537010   2.379486   0.000000
     4  O    2.452576   2.982552   1.401373   0.000000
     5  H    1.107432   2.078628   2.196081   2.661126   0.000000
     6  H    1.106976   2.064419   2.179157   3.378383   1.786547
     7  H    1.909959   0.947113   3.192125   3.747458   2.220196
     8  H    2.182831   3.335858   1.103693   1.971943   2.599525
     9  H    2.196057   2.584653   1.107658   2.068871   3.116557
    10  H    2.613484   2.664526   1.911274   0.949245   2.873190
                    6          7          8          9         10
     6  H    0.000000
     7  H    2.346614   0.000000
     8  H    2.463701   4.050963   0.000000
     9  H    2.599566   3.497703   1.788464   0.000000
    10  H    3.645684   3.416102   2.769027   2.313983   0.000000
 Stoichiometry    C2H6O2
 Framework group  C1[X(C2H6O2)]
 Deg. of freedom    24
 Full point group                 C1      NOp   1
 Largest Abelian subgroup         C1      NOp   1
 Largest concise Abelian subgroup C1      NOp   1
                         Standard orientation:                         
 ---------------------------------------------------------------------
 Center     Atomic      Atomic             Coordinates (Angstroms)
 Number     Number       Type             X           Y           Z
 ---------------------------------------------------------------------
      1          6           0        0.692669    0.541361   -0.304031
      2          8           0        1.417755   -0.542128    0.231648
      3          6           0       -0.711732    0.515905    0.319995
      4          8           0       -1.531148   -0.488825   -0.211909
      5          1           0        0.642596    0.473081   -1.408222
      6          1           0        1.201296    1.491393   -0.050781
      7          1           0        2.213674   -0.613515   -0.276722
      8          1           0       -1.258676    1.442905    0.075737
      9          1           0       -0.659129    0.431165    1.423153
     10          1           0       -1.118244   -1.321008   -0.016854
 ---------------------------------------------------------------------
 Rotational constants (GHZ):     16.8308029      5.0735572      4.4440222
 Standard basis: VSTO-6G (5D, 7F)
 There are    22 symmetry adapted cartesian basis functions of A   symmetry.
 There are    22 symmetry adapted basis functions of A   symmetry.
    22 basis functions,   132 primitive gaussians,    22 cartesian basis functions
    13 alpha electrons       13 beta electrons
       nuclear repulsion energy       100.8015602011 Hartrees.
 Integral buffers will be    131072 words long.
 Regular integral format.
 Two-electron integral symmetry is turned off.
 Do NDO integrals.
 One-electron integrals computed using PRISM.
 NBasis=    22 RedAO= F EigKep=  0.00D+00  NBF=    22
 NBsUse=    22 1.00D-04 EigRej=  0.00D+00 NBFU=    22
 Initial guess from the checkpoint file:  "1-2-ethanediol-opt.chk"
 B after Tr=     0.000000    0.000000    0.000000
         Rot=    1.000000   -0.000418   -0.000065    0.000213 Ang=  -0.05 deg.
[...]
     6  H    0.000000
     7  H    2.317283   0.000000
     8  H    2.462425   4.051607   0.000000
     9  H    2.599015   3.486655   1.788688   0.000000
    10  H    3.644372   3.451765   2.768790   2.316249   0.000000
 Stoichiometry    C2H6O2
 Framework group  C1[X(C2H6O2)]
 Deg. of freedom    24
 Full point group                 C1      NOp   1
 Largest Abelian subgroup         C1      NOp   1
 Largest concise Abelian subgroup C1      NOp   1
                         Standard orientation:                         
 ---------------------------------------------------------------------
 Center     Atomic      Atomic             Coordinates (Angstroms)
 Number     Number       Type             X           Y           Z
 ---------------------------------------------------------------------
      1          6           0        0.692796    0.540993   -0.303516
      2          8           0        1.414261   -0.548982    0.223604
      3          6           0       -0.710775    0.515033    0.322063
      4          8           0       -1.532649   -0.486284   -0.211700
      5          1           0        0.640932    0.475948   -1.408000
      6          1           0        1.201749    1.490346   -0.048122
      7          1           0        2.244530   -0.570894   -0.231699
      8          1           0       -1.256831    1.443571    0.081229
      9          1           0       -0.656731    0.426738    1.424858
     10          1           0       -1.118667   -1.319737   -0.024780
 ---------------------------------------------------------------------
 Rotational constants (GHZ):     16.8612333      5.0752757      4.4428826
 Standard basis: VSTO-6G (5D, 7F)
 There are    22 symmetry adapted cartesian basis functions of A   symmetry.
 There are    22 symmetry adapted basis functions of A   symmetry.
    22 basis functions,   132 primitive gaussians,    22 cartesian basis functions
    13 alpha electrons       13 beta electrons
       nuclear repulsion energy       100.8041693538 Hartrees.
 Integral buffers will be    131072 words long.
 Regular integral format.
 Two-electron integral symmetry is turned off.
 Do NDO integrals.
 One-electron integrals computed using PRISM.
 NBasis=    22 RedAO= F EigKep=  0.00D+00  NBF=    22
 NBsUse=    22 1.00D-04 EigRej=  0.00D+00 NBFU=    22
 Initial guess from the checkpoint file:  "1-2-ethanediol-opt.chk"
 B after Tr=     0.000000   -0.000000    0.000000
         Rot=    1.000000    0.000042   -0.000078   -0.000005 Ang=   0.01 deg.
 Overlap will be assumed to be unity.
 Keep J ints in memory in canonical form, NReq=887849.
 Requested convergence on RMS density matrix=1.00D-08 within 128 cycles.
 Requested convergence on MAX density matrix=1.00D-06.
 Requested convergence on             energy=1.00D-06.
 No special actions if energy rises.
 SCF Done:  E(RPM3) = -0.155760718720     A.U. after    9 cycles
            NFock=  8  Conv=0.76D-08     -V/T= 0.9916
 Calling FoFJK, ICntrl=      2127 FMM=F ISym2X=0 I1Cent= 0 IOpClX= 0 NMat=1 NMatS=1 NMatT=0.
 ***** Axes restored to original set *****
 -------------------------------------------------------------------
 Center     Atomic                   Forces (Hartrees/Bohr)
 Number     Number              X              Y              Z
 -------------------------------------------------------------------
      1        6          -0.000014786    0.000019326   -0.000015414
      2        8          -0.000001431    0.000001390    0.000005828
      3        6           0.000012643    0.000002195    0.000001606
      4        8          -0.000003855   -0.000001231    0.000005221
      5        1           0.000006685   -0.000008331    0.000003034
      6        1           0.000008157   -0.000007815    0.000008655
      7        1          -0.000000142   -0.000003120   -0.000003278
      8        1          -0.000005804   -0.000000435   -0.000000896
      9        1          -0.000000597   -0.000003903   -0.000002933
     10        1          -0.000000868    0.000001923   -0.000001823
 -------------------------------------------------------------------
 Cartesian Forces:  Max     0.000019326 RMS     0.000007051

 GradGradGradGradGradGradGradGradGradGradGradGradGradGradGradGradGradGrad
 Berny optimization.
 Using GEDIIS/GDIIS optimizer.
 FormGI is forming the generalized inverse of G from B-inverse, IUseBI=4.
 Internal  Forces:  Max     0.000009631 RMS     0.000003437
 Search for a local minimum.
 Step number  12 out of a maximum of   48
 All quantities printed in internal units (Hartrees-Bohrs-Radians)
 Mixed Optimization -- En-DIIS/RFO-DIIS
 Swapping is turned off.
 Update second derivatives using D2CorX and points    3    4    5    6    7
                                                      8    9   10   11   12
 DE= -9.72D-08 DEPred=-5.76D-08 R= 1.69D+00
 Trust test= 1.69D+00 RLast= 7.61D-03 DXMaxT set to 6.73D-01
 ITU=  0  1  1  1  1  1  1  1  1  1  1  0
     Eigenvalues ---    0.00092   0.00174   0.00430   0.04839   0.05354
     Eigenvalues ---    0.05545   0.05896   0.11493   0.11880   0.13317
     Eigenvalues ---    0.13812   0.16695   0.19250   0.22139   0.23087
     Eigenvalues ---    0.33257   0.33336   0.33654   0.34135   0.37585
     Eigenvalues ---    0.42874   0.52025   0.55129   0.56603
 En-DIIS/RFO-DIIS IScMMF=        0 using points:    12   11   10    9    8
 RFO step:  Lambda=-1.21328627D-09.
 DidBck=F Rises=F RFO-DIIS coefs:    1.31783   -0.39397    0.09361   -0.00852   -0.00896
 Iteration  1 RMS(Cart)=  0.00009884 RMS(Int)=  0.00000001
 Iteration  2 RMS(Cart)=  0.00000001 RMS(Int)=  0.00000001
 Variable       Old X    -DE/DX   Delta X   Delta X   Delta X     New X
                                 (Linear)    (Quad)   (Total)
    R1        2.66338   0.00000   0.00003  -0.00001   0.00001   2.66340
    R2        2.90430   0.00000   0.00003  -0.00001   0.00001   2.90431
    R3        2.09308  -0.00000  -0.00001  -0.00001  -0.00002   2.09307
    R4        2.09200  -0.00001  -0.00004  -0.00001  -0.00004   2.09195
    R5        1.78989  -0.00000  -0.00000  -0.00000  -0.00001   1.78988
    R6        2.64765  -0.00001  -0.00001  -0.00000  -0.00001   2.64764
    R7        2.08587   0.00000  -0.00000   0.00001   0.00001   2.08588
    R8        2.09314   0.00000   0.00001  -0.00000   0.00001   2.09315
    R9        1.79371  -0.00000  -0.00001   0.00000  -0.00000   1.79371
    A1        1.87779   0.00000  -0.00002  -0.00000  -0.00002   1.87777
    A2        1.92997   0.00000  -0.00002   0.00000  -0.00002   1.92995
    A3        1.91939  -0.00000  -0.00008  -0.00001  -0.00009   1.91931
    A4        1.94136  -0.00001  -0.00003  -0.00001  -0.00004   1.94131
    A5        1.91818   0.00000   0.00005  -0.00002   0.00002   1.91821
    A6        1.87752   0.00001   0.00009   0.00004   0.00014   1.87766
    A7        1.86171  -0.00000  -0.00002  -0.00001  -0.00003   1.86168
    A8        1.97438  -0.00000   0.00001  -0.00000   0.00000   1.97438
    A9        1.92706  -0.00000  -0.00004   0.00002  -0.00003   1.92703
   A10        1.94126   0.00000   0.00005  -0.00000   0.00004   1.94131
   A11        1.80070   0.00000   0.00005   0.00000   0.00005   1.80075
   A12        1.92938  -0.00000  -0.00002  -0.00001  -0.00003   1.92935
   A13        1.88434  -0.00000  -0.00005  -0.00000  -0.00005   1.88428
   A14        1.87200  -0.00000  -0.00003   0.00003   0.00000   1.87200
    D1        3.04730  -0.00000  -0.00001  -0.00009  -0.00010   3.04720
    D2        0.92400   0.00000   0.00005  -0.00008  -0.00003   0.92397
    D3       -1.14701  -0.00000  -0.00000  -0.00013  -0.00013  -1.14715
    D4       -1.30696  -0.00000  -0.00015   0.00004  -0.00012  -1.30708
    D5        2.96833  -0.00000  -0.00020   0.00003  -0.00017   2.96816
    D6        0.87673  -0.00000  -0.00014   0.00002  -0.00011   0.87661
    D7        0.80922  -0.00000  -0.00021   0.00003  -0.00017   0.80905
    D8       -1.19867  -0.00000  -0.00025   0.00002  -0.00023  -1.19889
    D9        2.99291  -0.00000  -0.00019   0.00002  -0.00017   2.99274
   D10        2.88658   0.00000  -0.00008   0.00006  -0.00002   2.88656
   D11        0.87869   0.00000  -0.00012   0.00006  -0.00007   0.87862
   D12       -1.21292   0.00000  -0.00006   0.00005  -0.00001  -1.21293
   D13        1.07239   0.00000  -0.00017  -0.00007  -0.00025   1.07215
   D14       -3.12856  -0.00000  -0.00019  -0.00005  -0.00024  -3.12880
   D15       -1.11770  -0.00000  -0.00023  -0.00006  -0.00029  -1.11799
         Item               Value     Threshold  Converged?
 Maximum Force            0.000010     0.000450     YES
 RMS     Force            0.000003     0.000300     YES
 Maximum Displacement     0.000377     0.001800     YES
 RMS     Displacement     0.000099     0.001200     YES
 Predicted change in Energy=-2.572418D-09
 Optimization completed.
    -- Stationary point found.
                           ----------------------------
                           !   Optimized Parameters   !
                           ! (Angstroms and Degrees)  !
 --------------------------                            --------------------------
 ! Name  Definition              Value          Derivative Info.                !
 --------------------------------------------------------------------------------
 ! R1    R(1,2)                  1.4094         -DE/DX =    0.0                 !
 ! R2    R(1,3)                  1.5369         -DE/DX =    0.0                 !
 ! R3    R(1,5)                  1.1076         -DE/DX =    0.0                 !
 ! R4    R(1,6)                  1.107          -DE/DX =    0.0                 !
 ! R5    R(2,7)                  0.9472         -DE/DX =    0.0                 !
 ! R6    R(3,4)                  1.4011         -DE/DX =    0.0                 !
 ! R7    R(3,8)                  1.1038         -DE/DX =    0.0                 !
 ! R8    R(3,9)                  1.1076         -DE/DX =    0.0                 !
 ! R9    R(4,10)                 0.9492         -DE/DX =    0.0                 !
 ! A1    A(2,1,3)              107.5893         -DE/DX =    0.0                 !
 ! A2    A(2,1,5)              110.579          -DE/DX =    0.0                 !
 ! A3    A(2,1,6)              109.9732         -DE/DX =    0.0                 !
 ! A4    A(3,1,5)              111.2315         -DE/DX =    0.0                 !
 ! A5    A(3,1,6)              109.9039         -DE/DX =    0.0                 !
 ! A6    A(5,1,6)              107.574          -DE/DX =    0.0                 !
 ! A7    A(1,2,7)              106.6679         -DE/DX =    0.0                 !
 ! A8    A(1,3,4)              113.1237         -DE/DX =    0.0                 !
 ! A9    A(1,3,8)              110.4123         -DE/DX =    0.0                 !
 ! A10   A(1,3,9)              111.226          -DE/DX =    0.0                 !
 ! A11   A(4,3,8)              103.1725         -DE/DX =    0.0                 !
 ! A12   A(4,3,9)              110.5454         -DE/DX =    0.0                 !
 ! A13   A(8,3,9)              107.9645         -DE/DX =    0.0                 !
 ! A14   A(3,4,10)             107.2577         -DE/DX =    0.0                 !
 ! D1    D(3,1,2,7)            174.5973         -DE/DX =    0.0                 !
 ! D2    D(5,1,2,7)             52.9413         -DE/DX =    0.0                 !
 ! D3    D(6,1,2,7)            -65.719          -DE/DX =    0.0                 !
 ! D4    D(2,1,3,4)            -74.8835         -DE/DX =    0.0                 !
 ! D5    D(2,1,3,8)            170.0729         -DE/DX =    0.0                 !
 ! D6    D(2,1,3,9)             50.2327         -DE/DX =    0.0                 !
 ! D7    D(5,1,3,4)             46.365          -DE/DX =    0.0                 !
 ! D8    D(5,1,3,8)            -68.6786         -DE/DX =    0.0                 !
 ! D9    D(5,1,3,9)            171.4812         -DE/DX =    0.0                 !
 ! D10   D(6,1,3,4)            165.3887         -DE/DX =    0.0                 !
 ! D11   D(6,1,3,8)             50.3451         -DE/DX =    0.0                 !
 ! D12   D(6,1,3,9)            -69.4951         -DE/DX =    0.0                 !
 ! D13   D(1,3,4,10)            61.4436         -DE/DX =    0.0                 !
 ! D14   D(8,3,4,10)          -179.2531         -DE/DX =    0.0                 !
 ! D15   D(9,3,4,10)           -64.0394         -DE/DX =    0.0                 !
 --------------------------------------------------------------------------------
 GradGradGradGradGradGradGradGradGradGradGradGradGradGradGradGradGradGrad

                          Input orientation:                          
 ---------------------------------------------------------------------
 Center     Atomic      Atomic             Coordinates (Angstroms)
 Number     Number       Type             X           Y           Z
 ---------------------------------------------------------------------
      1          6           0        1.084065    2.192704    1.640970
      2          8           0        1.543576    2.119039    2.971322
      3          6           0        1.355195    0.831982    0.979942
      4          8           0        2.705873    0.632376    0.665547
      5          1           0        1.594811    3.011554    1.097438
      6          1           0       -0.001613    2.408687    1.627316
      7          1           0        1.448520    2.986319    3.339992
      8          1           0        0.857045    0.775624   -0.003435
      9          1           0        0.974277   -0.000043    1.604048
     10          1           0        3.191549    0.658357    1.480660
 ---------------------------------------------------------------------
                    Distance matrix (angstroms):
                    1          2          3          4          5
     1  C    0.000000
     2  O    1.409402   0.000000
     3  C    1.536891   2.378571   0.000000
     4  O    2.452822   2.979547   1.401078   0.000000
     5  H    1.107612   2.076211   2.195850   2.661105   0.000000
     6  H    1.107037   2.068298   2.178536   3.377982   1.786838
     7  H    1.910322   0.947168   3.196829   3.778180   2.247462
     8  H    2.182594   3.335456   1.103793   1.971351   2.599154
     9  H    2.195804   2.585352   1.107643   2.068614   3.116317
    10  H    2.611783   2.659226   1.911298   0.949191   2.869490
                    6          7          8          9         10
     6  H    0.000000
     7  H    2.317283   0.000000
     8  H    2.462425   4.051607   0.000000
     9  H    2.599015   3.486655   1.788688   0.000000
    10  H    3.644372   3.451765   2.768790   2.316249   0.000000
 Stoichiometry    C2H6O2
 Framework group  C1[X(C2H6O2)]
 Deg. of freedom    24
 Full point group                 C1      NOp   1
 Largest Abelian subgroup         C1      NOp   1
 Largest concise Abelian subgroup C1      NOp   1
                         Standard orientation:                         
 ---------------------------------------------------------------------
 Center     Atomic      Atomic             Coordinates (Angstroms)
 Number     Number       Type             X           Y           Z
 ---------------------------------------------------------------------
      1          6           0        0.692796    0.540993   -0.303516
      2          8           0        1.414261   -0.548982    0.223604
      3          6           0       -0.710775    0.515033    0.322063
      4          8           0       -1.532649   -0.486284   -0.211700
      5          1           0        0.640932    0.475948   -1.408000
      6          1           0        1.201749    1.490346   -0.048122
      7          1           0        2.244530   -0.570894   -0.231699
      8          1           0       -1.256831    1.443571    0.081229
      9          1           0       -0.656731    0.426738    1.424858
     10          1           0       -1.118667   -1.319737   -0.024780
 ---------------------------------------------------------------------
 Rotational constants (GHZ):     16.8612333      5.0752757      4.4428826

 **********************************************************************

            Population analysis using the SCF density.

 **********************************************************************

 Orbital symmetries:
       Occupied  (A) (A) (A) (A) (A) (A) (A) (A) (A) (A) (A) (A)
                 (A)
       Virtual   (A) (A) (A) (A) (A) (A) (A) (A) (A)
 The electronic state is 1-A.
 Alpha  occ. eigenvalues --   -1.46339  -1.34110  -1.06295  -0.81651  -0.68894
 Alpha  occ. eigenvalues --   -0.63617  -0.60291  -0.58161  -0.53444  -0.49694
 Alpha  occ. eigenvalues --   -0.45438  -0.41383  -0.40834
 Alpha virt. eigenvalues --    0.11044   0.12833   0.13208   0.13462   0.14756
 Alpha virt. eigenvalues --    0.16241   0.16948   0.19781   0.21165
          Condensed to atoms (all electrons):
               1          2          3          4          5          6
     1  C    3.971446   0.000000   0.000000   0.000000   0.000000   0.000000
     2  O    0.000000   6.318028   0.000000   0.000000   0.000000   0.000000
     3  C    0.000000   0.000000   3.940339   0.000000   0.000000   0.000000
     4  O    0.000000   0.000000   0.000000   6.312267   0.000000   0.000000
     5  H    0.000000   0.000000   0.000000   0.000000   0.964021   0.000000
     6  H    0.000000   0.000000   0.000000   0.000000   0.000000   0.971104
     7  H    0.000000   0.000000   0.000000   0.000000   0.000000   0.000000
     8  H    0.000000   0.000000   0.000000   0.000000   0.000000   0.000000
     9  H    0.000000   0.000000   0.000000   0.000000   0.000000   0.000000
    10  H    0.000000   0.000000   0.000000   0.000000   0.000000   0.000000
               7          8          9         10
     1  C    0.000000   0.000000   0.000000   0.000000
     2  O    0.000000   0.000000   0.000000   0.000000
     3  C    0.000000   0.000000   0.000000   0.000000
     4  O    0.000000   0.000000   0.000000   0.000000
     5  H    0.000000   0.000000   0.000000   0.000000
     6  H    0.000000   0.000000   0.000000   0.000000
     7  H    0.809499   0.000000   0.000000   0.000000
     8  H    0.000000   0.946038   0.000000   0.000000
     9  H    0.000000   0.000000   0.960870   0.000000
    10  H    0.000000   0.000000   0.000000   0.806388
 Mulliken charges:
               1
     1  C    0.028554
     2  O   -0.318028
     3  C    0.059661
     4  O   -0.312267
     5  H    0.035979
     6  H    0.028896
     7  H    0.190501
     8  H    0.053962
     9  H    0.039130
    10  H    0.193612
 Sum of Mulliken charges =   0.00000
 Mulliken charges with hydrogens summed into heavy atoms:
               1
     1  C    0.093429
     2  O   -0.127527
     3  C    0.152754
     4  O   -0.118656
 Charge=              0.0000 electrons
 Dipole moment (field-independent basis, Debye):
    X=              1.7914    Y=              0.6854    Z=             -0.3728  Tot=              1.9539
 N-N= 1.008041693538D+02 E-N=-1.644097395172D+02  KE=-1.850709716430D+01
 1\1\GINC-GTX1080DELTA\FOpt\RPM3\ZDO\C2H6O2\MVEROT\17-Apr-2022\0\\#n PM
 3 Opt\\Optimisation de geometrie\\0,1\C,1.0840648547,2.1927037398,1.64
 09696307\O,1.5435761955,2.1190392422,2.9713222227\C,1.3551950007,0.831
 9818762,0.9799419733\O,2.7058734562,0.632375928,0.6655473262\H,1.59481
 10641,3.0115543083,1.0974378011\H,-0.0016126308,2.4086869526,1.6273163
 671\H,1.4485203035,2.9863194922,3.3399919285\H,0.8570452392,0.77562444
 52,-0.0034351469\H,0.9742771737,-0.0000426223,1.6040483947\H,3.1915493
 43,0.6583566378,1.4806595026\\Version=AM64L-G09RevD.01\State=1-A\HF=-0
 .1557607\RMSD=7.595e-09\RMSF=7.051e-06\Dipole=-0.4198979,0.5797174,0.2
 802787\PG=C01 [X(C2H6O2)]\\@


 FROM THE ASHES OF OUR DESPAIR GROW THE FLOWERS OF TOMORROW.
 Job cpu time:       0 days  0 hours  0 minutes  6.6 seconds.
 File lengths (MBytes):  RWF=     72 Int=      0 D2E=      0 Chk=      2 Scr=      2
 Normal termination of Gaussian 09 at Sun Apr 17 23:22:57 2022.
