 Entering Gaussian System, Link 0=g09
 Input=/scratch/mverot/dedoubl-s-opt-am1-freq/dedoubl-s-opt-am1-freq.com
 Output=/scratch/mverot/dedoubl-s-opt-am1-freq/dedoubl-s-opt-am1-freq.log
 Initial command:
 /opt/g09/l1.exe "/scratch/mverot/dedoubl-s-opt-am1-freq/Gau-1959171.inp" -scrdir="/scratch/mverot/dedoubl-s-opt-am1-freq/"
 Entering Link 1 = /opt/g09/l1.exe PID=   1959173.
  
 Copyright (c) 1988,1990,1992,1993,1995,1998,2003,2009,2013,
            Gaussian, Inc.  All Rights Reserved.
  
 This is part of the Gaussian(R) 09 program.  It is based on
 the Gaussian(R) 03 system (copyright 2003, Gaussian, Inc.),
 the Gaussian(R) 98 system (copyright 1998, Gaussian, Inc.),
 the Gaussian(R) 94 system (copyright 1995, Gaussian, Inc.),
 the Gaussian 92(TM) system (copyright 1992, Gaussian, Inc.),
 the Gaussian 90(TM) system (copyright 1990, Gaussian, Inc.),
 the Gaussian 88(TM) system (copyright 1988, Gaussian, Inc.),
 the Gaussian 86(TM) system (copyright 1986, Carnegie Mellon
 University), and the Gaussian 82(TM) system (copyright 1983,
 Carnegie Mellon University). Gaussian is a federally registered
 trademark of Gaussian, Inc.
  
 This software contains proprietary and confidential information,
 including trade secrets, belonging to Gaussian, Inc.
  
 This software is provided under written license and may be
 used, copied, transmitted, or stored only in accord with that
 written license.
  
 The following legend is applicable only to US Government
 contracts under FAR:
  
                    RESTRICTED RIGHTS LEGEND
  
 Use, reproduction and disclosure by the US Government is
 subject to restrictions as set forth in subparagraphs (a)
 and (c) of the Commercial Computer Software - Restricted
 Rights clause in FAR 52.227-19.
  
 Gaussian, Inc.
 340 Quinnipiac St., Bldg. 40, Wallingford CT 06492
  
  
 ---------------------------------------------------------------
 Warning -- This program may not be used in any manner that
 competes with the business of Gaussian, Inc. or will provide
 assistance to any competitor of Gaussian, Inc.  The licensee
 of this program is prohibited from giving any competitor of
 Gaussian, Inc. access to this program.  By using this program,
 the user acknowledges that Gaussian, Inc. is engaged in the
 business of creating and licensing software in the field of
 computational chemistry and represents and warrants to the
 licensee that it is not a competitor of Gaussian, Inc. and that
 it will not use this program in any manner prohibited above.
 ---------------------------------------------------------------
  

 Cite this work as:
 Gaussian 09, Revision D.01,
 M. J. Frisch, G. W. Trucks, H. B. Schlegel, G. E. Scuseria, 
 M. A. Robb, J. R. Cheeseman, G. Scalmani, V. Barone, B. Mennucci, 
 G. A. Petersson, H. Nakatsuji, M. Caricato, X. Li, H. P. Hratchian, 
 A. F. Izmaylov, J. Bloino, G. Zheng, J. L. Sonnenberg, M. Hada, 
 M. Ehara, K. Toyota, R. Fukuda, J. Hasegawa, M. Ishida, T. Nakajima, 
 Y. Honda, O. Kitao, H. Nakai, T. Vreven, J. A. Montgomery, Jr., 
 J. E. Peralta, F. Ogliaro, M. Bearpark, J. J. Heyd, E. Brothers, 
 K. N. Kudin, V. N. Staroverov, T. Keith, R. Kobayashi, J. Normand, 
 K. Raghavachari, A. Rendell, J. C. Burant, S. S. Iyengar, J. Tomasi, 
 M. Cossi, N. Rega, J. M. Millam, M. Klene, J. E. Knox, J. B. Cross, 
 V. Bakken, C. Adamo, J. Jaramillo, R. Gomperts, R. E. Stratmann, 
 O. Yazyev, A. J. Austin, R. Cammi, C. Pomelli, J. W. Ochterski, 
 R. L. Martin, K. Morokuma, V. G. Zakrzewski, G. A. Voth, 
 P. Salvador, J. J. Dannenberg, S. Dapprich, A. D. Daniels, 
 O. Farkas, J. B. Foresman, J. V. Ortiz, J. Cioslowski, 
 and D. J. Fox, Gaussian, Inc., Wallingford CT, 2013.
 
 ******************************************
 Gaussian 09:  AM64L-G09RevD.01 24-Apr-2013
                18-Apr-2022 
 ******************************************
 %chk=dedoubl-s-opt-freq
 -----------
 #n AM1 freq
 -----------
 1/10=4,30=1,38=1/1,3;
 2/12=2,17=6,18=5,40=1/2;
 3/5=2,16=1,25=1,41=700000,71=2,140=1/1,2,3;
 4/35=1/1;
 5/5=2,35=1,38=5,98=1/2;
 8/6=4,10=90,11=11/1;
 11/6=1,8=1,9=11,15=111,16=1/1,2,10;
 10/6=1/2;
 6/7=2,8=2,9=2,10=2,18=1,28=1/1;
 7/8=1,10=1,25=1/1,2,3,16;
 1/10=4,30=1/3;
 99//99;
 ----------
 UV-spectra
 ----------
 Symbolic Z-matrix:
 Charge =  0 Multiplicity = 1
 Cl                   -4.92032  -3.40488  -3.19993 
 O                    -4.82305  -7.71272  -1.22583 
 O                    -1.3507   -8.34922  -3.63013 
 O                    -3.14728  -6.05193  -2.70039 
 N                    -5.61896  -7.94266  -4.28045 
 N                    -4.12036  -12.47398   0.12068 
 C                    -6.64529  -8.43109  -5.27589 
 C                    -8.02104  -8.64385  -4.64099 
 C                    -7.96987  -8.19836  -3.18406 
 C                    -6.9418   -9.06351  -2.46796 
 C                    -5.56688  -8.97155  -3.16051 
 C                    -7.52619  -6.7281   -3.16041 
 C                    -6.09486  -6.62676  -3.72534 
 C                    -7.589    -6.15354  -1.7891 
 C                    -8.48853  -5.2462   -1.41714 
 C                    -4.28578  -7.80237  -4.9666 
 C                    -4.31739  -6.94619  -6.19085 
 C                    -4.56639  -7.50567  -7.45016 
 C                    -4.52152  -6.70576  -8.5893 
 C                    -4.22516  -5.34568  -8.47736 
 C                    -3.9671   -4.78788  -7.22595 
 C                    -4.00865  -5.58527  -6.08163 
 C                    -4.44157  -8.75272  -2.10364 
 C                    -4.29343  -10.04083  -1.33216 
 C                    -3.5941   -11.15602  -1.89565 
 C                    -2.9315   -11.10922  -3.1496 
 C                    -2.2916   -12.21656  -3.65059 
 C                    -2.27988  -13.42762  -2.92136 
 C                    -2.88485  -13.50854  -1.693 
 C                    -3.55055  -12.36902  -1.13547 
 C                    -4.71385  -11.40601   0.61832 
 C                    -4.83384  -10.15993  -0.07201 
 C                    -0.81496  -7.35989  -4.43142 
 C                    -0.54821  -7.7541   -5.77085 
 C                    -0.06075  -6.83335  -6.66057 
 C                     0.16735  -5.48995  -6.25856 
 C                     0.64309  -4.52123  -7.18504 
 C                     0.84687  -3.22112  -6.79649 
 C                     0.58594  -2.83102  -5.46092 
 C                     0.13466  -3.74793  -4.54494 
 C                    -0.08592  -5.10568  -4.91556 
 C                    -0.5651   -6.06981  -3.97375 
 C                    -0.78166  -5.71972  -2.57091 
 C                    -2.09405  -5.69543  -2.03945 
 C                    -2.26122  -5.25918  -0.66666 
 C                    -1.19626  -4.92891   0.11182 
 C                     0.13292  -5.00829  -0.39488 
 C                     1.24669  -4.70529   0.42672 
 C                     2.52797  -4.79357  -0.06324 
 C                     2.7378   -5.19034  -1.40328 
 C                     1.67386  -5.48471  -2.2199 
 C                     0.33171  -5.40151  -1.74494 
 H                    -6.71178  -7.66006  -6.09494 
 H                    -6.26225  -9.38969  -5.72269 
 H                    -8.7888   -8.05496  -5.20433 
 H                    -8.30563  -9.72502  -4.70287 
 H                    -8.97333  -8.30638  -2.69937 
 H                    -7.27188  -10.13394  -2.4715 
 H                    -6.84998  -8.73507  -1.39848 
 H                    -8.21148  -6.14731  -3.84179 
 H                    -5.35622  -6.30483  -2.92905 
 H                    -6.05699  -5.86787  -4.55694 
 H                    -6.81758  -6.5274   -1.09098 
 H                    -9.2544   -4.84557  -2.09469 
 H                    -8.50953  -4.83406  -0.39912 
 H                    -4.78243  -8.58051  -7.54252 
 H                    -4.71126  -7.14807  -9.57833 
 H                    -4.18576  -4.71671  -9.37953 
 H                    -3.71626  -3.71962  -7.13509 
 H                    -3.77492  -5.15499  -5.08907 
 H                    -3.46466  -8.49774  -2.6102 
 H                    -2.88973  -10.15712  -3.70525 
 H                    -1.76693  -12.16753  -4.6168 
 H                    -1.76485  -14.30261  -3.34668 
 H                    -2.86028  -14.44528  -1.11313 
 H                    -5.1423   -11.50956   1.63291 
 H                    -5.34861  -9.31517   0.40986 
 H                    -4.12096  -7.0355   -1.24541 
 H                    -0.73114  -8.79804  -6.05965 
 H                     0.15984  -7.12008  -7.69936 
 H                     0.84389  -4.83879  -8.21892 
 H                     1.21496  -2.47134  -7.51136 
 H                     0.75328  -1.7844   -5.16751 
 H                    -0.06172  -3.45847  -3.49924 
 H                    -3.28958  -5.19782  -0.28232 
 H                    -1.33811  -4.59676   1.15236 
 H                     1.0649   -4.39899   1.46789 
 H                     3.39273  -4.56056   0.57245 
 H                     3.76725  -5.26042  -1.78428 
 H                     1.84165  -5.78894  -3.26446 
 H                    -1.31898  -8.02522  -2.71373 
 H                    -4.00268  -4.26293  -2.83348 
 H                    -5.33043  -9.95487  -3.66971 
 H                    -3.54433  -7.35112  -4.22467 
 H                    -3.9422   -8.84338  -5.22958 
 

 GradGradGradGradGradGradGradGradGradGradGradGradGradGradGradGradGradGrad
 Berny optimization.
 Initialization pass.
 Trust Radius=3.00D-01 FncErr=1.00D-07 GrdErr=1.00D-07
 Number of steps in this run=      2 maximum allowed number of steps=      2.
 GradGradGradGradGradGradGradGradGradGradGradGradGradGradGradGradGradGrad

 Stoichiometry    C46H43ClN2O3
 Framework group  C1[X(C46H43ClN2O3)]
 Deg. of freedom   279
 Full point group                 C1      NOp   1
 Largest Abelian subgroup         C1      NOp   1
 Largest concise Abelian subgroup C1      NOp   1
                         Standard orientation:                         
 ---------------------------------------------------------------------
 Center     Atomic      Atomic             Coordinates (Angstroms)
 Number     Number       Type             X           Y           Z
 ---------------------------------------------------------------------
      1         17           0       -1.091251   -2.465473    3.210920
      2          8           0        2.089166    0.740949    1.772937
      3          8           0       -0.521584    1.316926   -1.558017
      4          8           0       -0.529616   -0.005602    1.202518
      5          7           0        2.159524   -1.781447   -0.137455
      6          7           0        4.994322    4.040487   -0.603957
      7          6           0        3.008579   -2.879265   -0.734724
      8          6           0        4.279788   -3.141909    0.075283
      9          6           0        4.263477   -2.266182    1.322896
     10          6           0        4.241323   -0.812231    0.871535
     11          6           0        3.037592   -0.541451   -0.053770
     12          6           0        2.982868   -2.592150    2.105761
     13          6           0        1.759598   -2.202481    1.251431
     14          6           0        2.945924   -1.895538    3.420265
     15          6           0        3.081179   -2.524625    4.585053
     16          6           0        0.955647   -1.550066   -1.012100
     17          6           0        0.153698   -2.781326   -1.283560
     18          6           0        0.430371   -3.585794   -2.395838
     19          6           0       -0.371697   -4.689738   -2.674239
     20          6           0       -1.454468   -4.993852   -1.846409
     21          6           0       -1.738298   -4.189028   -0.743936
     22          6           0       -0.939168   -3.080538   -0.461681
     23          6           0        2.307029    0.767050    0.376681
     24          6           0        3.210829    1.922645    0.024403
     25          6           0        3.315635    2.385376   -1.326566
     26          6           0        2.536200    1.865689   -2.392418
     27          6           0        2.692265    2.334868   -3.673893
     28          6           0        3.635121    3.350159   -3.954598
     29          6           0        4.389755    3.899117   -2.949317
     30          6           0        4.243382    3.441741   -1.599548
     31          6           0        4.829789    3.611904    0.632854
     32          6           0        3.950651    2.547018    1.002692
     33          6           0       -1.730445    0.658541   -1.672178
     34          6           0       -1.952511    0.029046   -2.927183
     35          6           0       -3.100451   -0.691724   -3.126493
     36          6           0       -4.060586   -0.823968   -2.087734
     37          6           0       -5.239420   -1.597030   -2.277019
     38          6           0       -6.156443   -1.735203   -1.265695
     39          6           0       -5.936713   -1.103384   -0.018091
     40          6           0       -4.811831   -0.344676    0.187821
     41          6           0       -3.840975   -0.180082   -0.841676
     42          6           0       -2.659374    0.599931   -0.637829
     43          6           0       -2.431041    1.321248    0.613156
     44          6           0       -1.383434    0.925652    1.480011
     45          6           0       -1.253820    1.619247    2.746863
     46          6           0       -2.073654    2.650913    3.082692
     47          6           0       -3.091939    3.096185    2.191294
     48          6           0       -3.919925    4.197697    2.520611
     49          6           0       -4.894121    4.630642    1.652843
     50          6           0       -5.073471    3.968773    0.417156
     51          6           0       -4.286119    2.896135    0.077982
     52          6           0       -3.267780    2.419403    0.955239
     53          1           0        2.374782   -3.810158   -0.773474
     54          1           0        3.264503   -2.581410   -1.788778
     55          1           0        4.327733   -4.224531    0.356756
     56          1           0        5.181793   -2.909435   -0.546094
     57          1           0        5.164376   -2.461757    1.958236
     58          1           0        5.181715   -0.569345    0.313456
     59          1           0        4.189161   -0.138518    1.767911
     60          1           0        2.951115   -3.706954    2.271422
     61          1           0        1.185118   -1.343972    1.716444
     62          1           0        1.055577   -3.076792    1.157331
     63          1           0        2.783193   -0.803436    3.364956
     64          1           0        3.226752   -3.609926    4.669165
     65          1           0        3.044650   -1.986758    5.542145
     66          1           0        1.272087   -3.337679   -3.059500
     67          1           0       -0.156704   -5.316986   -3.551828
     68          1           0       -2.089511   -5.864052   -2.071224
     69          1           0       -2.601184   -4.415347   -0.098524
     70          1           0       -1.177331   -2.420395    0.394148
     71          1           0        1.324204    0.871856   -0.170165
     72          1           0        1.761870    1.109497   -2.178942
     73          1           0        2.072975    1.937327   -4.492231
     74          1           0        3.745319    3.705562   -4.990606
     75          1           0        5.111219    4.704575   -3.161574
     76          1           0        5.425658    4.121584    1.413151
     77          1           0        3.872250    2.243993    2.057603
     78          1           0        1.132713    0.857773    1.926179
     79          1           0       -1.197241    0.145160   -3.716330
     80          1           0       -3.295065   -1.179731   -4.092894
     81          1           0       -5.398429   -2.080472   -3.252246
     82          1           0       -7.068278   -2.332066   -1.410657
     83          1           0       -6.681488   -1.226379    0.781718
     84          1           0       -4.635044    0.161122    1.151539
     85          1           0       -0.467604    1.269346    3.431307
     86          1           0       -1.965426    3.167265    4.049564
     87          1           0       -3.765713    4.701880    3.486487
     88          1           0       -5.535997    5.485231    1.905607
     89          1           0       -5.854028    4.325212   -0.270970
     90          1           0       -4.432295    2.380594   -0.883612
     91          1           0       -0.560243    1.849621   -0.745292
     92          1           0       -1.113305   -1.325077    2.569349
     93          1           0        3.402366   -0.362489   -1.110660
     94          1           0        0.282599   -0.781031   -0.502762
     95          1           0        1.333685   -1.111781   -1.979516
 ---------------------------------------------------------------------
 Rotational constants (GHZ):      0.0662065      0.0484241      0.0412603
 Standard basis: VSTO-6G (5D, 7F)
 There are   251 symmetry adapted cartesian basis functions of A   symmetry.
 There are   251 symmetry adapted basis functions of A   symmetry.
   251 basis functions,  1506 primitive gaussians,   251 cartesian basis functions
   131 alpha electrons      131 beta electrons
       nuclear repulsion energy      3761.6781029573 Hartrees.
 Integral buffers will be    131072 words long.
 Regular integral format.
 Two-electron integral symmetry is turned off.
 Do NDO integrals.
 One-electron integrals computed using PRISM.
 NBasis=   251 RedAO= F EigKep=  0.00D+00  NBF=   251
 NBsUse=   251 1.00D-04 EigRej=  0.00D+00 NBFU=   251
 Simple Huckel Guess.
 Overlap will be assumed to be unity.
 Keep J ints in memory in canonical form, NReq=1293887.
 Requested convergence on RMS density matrix=1.00D-08 within 128 cycles.
 Requested convergence on MAX density matrix=1.00D-06.
 Requested convergence on             energy=1.00D-06.
 No special actions if energy rises.
 SCF Done:  E(RAM1) =  0.102287315362     A.U. after   18 cycles
            NFock= 17  Conv=0.65D-08     -V/T= 1.0005
 Range of M.O.s used for correlation:     1   251
 NBasis=   251 NAE=   131 NBE=   131 NFC=     0 NFV=     0
 NROrb=    251 NOA=   131 NOB=   131 NVA=   120 NVB=   120
 Symmetrizing basis deriv contribution to polar:
 IMax=3 JMax=2 DiffMx= 0.00D+00
 G2DrvN: will do    96 centers at a time, making    1 passes.
 Calling FoFCou, ICntrl=  3107 FMM=F I1Cent=   0 AccDes= 0.00D+00.
 End of G2Drv F.D. properties file   721 does not exist.
 End of G2Drv F.D. properties file   722 does not exist.
 End of G2Drv F.D. properties file   788 does not exist.
          IDoAtm=11111111111111111111111111111111111111111111111111
          IDoAtm=111111111111111111111111111111111111111111111
          Differentiating once with respect to electric field.
                with respect to dipole field.
          Differentiating once with respect to nuclear coordinates.
          Electric field/nuclear overlap derivatives assumed to be zero.
 Keep J ints in memory in canonical form, NReq=1117187.
          There are   288 degrees of freedom in the 1st order CPHF.  IDoFFX=5 NUNeed=   288.
 LinEq1:  Iter=  0 NonCon=   288 RMS=1.26D-01 Max=5.14D+00 NDo=   288
 AX will form   288 AO Fock derivatives at one time.
 LinEq1:  Iter=  1 NonCon=   288 RMS=2.61D-02 Max=9.50D-01 NDo=   288
 LinEq1:  Iter=  2 NonCon=   288 RMS=4.87D-03 Max=1.84D-01 NDo=   288
 LinEq1:  Iter=  3 NonCon=   288 RMS=1.65D-03 Max=9.50D-02 NDo=   288
 LinEq1:  Iter=  4 NonCon=   288 RMS=5.03D-04 Max=1.93D-02 NDo=   288
 LinEq1:  Iter=  5 NonCon=   288 RMS=1.17D-04 Max=3.90D-03 NDo=   288
 LinEq1:  Iter=  6 NonCon=   288 RMS=3.02D-05 Max=9.86D-04 NDo=   288
 LinEq1:  Iter=  7 NonCon=   287 RMS=9.15D-06 Max=4.68D-04 NDo=   288
 LinEq1:  Iter=  8 NonCon=   238 RMS=2.57D-06 Max=1.06D-04 NDo=   288
 LinEq1:  Iter=  9 NonCon=   104 RMS=6.61D-07 Max=2.35D-05 NDo=   288
 LinEq1:  Iter= 10 NonCon=     6 RMS=1.47D-07 Max=4.30D-06 NDo=   288
 LinEq1:  Iter= 11 NonCon=     3 RMS=3.20D-08 Max=1.00D-06 NDo=   288
 LinEq1:  Iter= 12 NonCon=     3 RMS=7.07D-09 Max=1.99D-07 NDo=   288
 LinEq1:  Iter= 13 NonCon=     0 RMS=1.47D-09 Max=5.51D-08 NDo=   288
 Linear equations converged to 1.000D-08 1.000D-07 after    13 iterations.
 Isotropic polarizability for W=    0.000000      452.56 Bohr**3.
 End of Minotr F.D. properties file   721 does not exist.
 End of Minotr F.D. properties file   722 does not exist.
 End of Minotr F.D. properties file   788 does not exist.

 **********************************************************************

            Population analysis using the SCF density.

 **********************************************************************

 Orbital symmetries:
       Occupied  (A) (A) (A) (A) (A) (A) (A) (A) (A) (A) (A) (A)
                 (A) (A) (A) (A) (A) (A) (A) (A) (A) (A) (A) (A)
                 (A) (A) (A) (A) (A) (A) (A) (A) (A) (A) (A) (A)
                 (A) (A) (A) (A) (A) (A) (A) (A) (A) (A) (A) (A)
                 (A) (A) (A) (A) (A) (A) (A) (A) (A) (A) (A) (A)
                 (A) (A) (A) (A) (A) (A) (A) (A) (A) (A) (A) (A)
                 (A) (A) (A) (A) (A) (A) (A) (A) (A) (A) (A) (A)
                 (A) (A) (A) (A) (A) (A) (A) (A) (A) (A) (A) (A)
                 (A) (A) (A) (A) (A) (A) (A) (A) (A) (A) (A) (A)
                 (A) (A) (A) (A) (A) (A) (A) (A) (A) (A) (A) (A)
                 (A) (A) (A) (A) (A) (A) (A) (A) (A) (A) (A)
       Virtual   (A) (A) (A) (A) (A) (A) (A) (A) (A) (A) (A) (A)
                 (A) (A) (A) (A) (A) (A) (A) (A) (A) (A) (A) (A)
                 (A) (A) (A) (A) (A) (A) (A) (A) (A) (A) (A) (A)
                 (A) (A) (A) (A) (A) (A) (A) (A) (A) (A) (A) (A)
                 (A) (A) (A) (A) (A) (A) (A) (A) (A) (A) (A) (A)
                 (A) (A) (A) (A) (A) (A) (A) (A) (A) (A) (A) (A)
                 (A) (A) (A) (A) (A) (A) (A) (A) (A) (A) (A) (A)
                 (A) (A) (A) (A) (A) (A) (A) (A) (A) (A) (A) (A)
                 (A) (A) (A) (A) (A) (A) (A) (A) (A) (A) (A) (A)
                 (A) (A) (A) (A) (A) (A) (A) (A) (A) (A) (A) (A)
 The electronic state is 1-A.
 Alpha  occ. eigenvalues --   -1.61708  -1.51578  -1.49337  -1.47251  -1.43934
 Alpha  occ. eigenvalues --   -1.42629  -1.40412  -1.38333  -1.37563  -1.34947
 Alpha  occ. eigenvalues --   -1.32418  -1.29724  -1.29408  -1.27345  -1.24687
 Alpha  occ. eigenvalues --   -1.23590  -1.21984  -1.19948  -1.17793  -1.15134
 Alpha  occ. eigenvalues --   -1.14659  -1.14090  -1.13570  -1.10023  -1.08026
 Alpha  occ. eigenvalues --   -1.06090  -1.04595  -1.02579  -1.00245  -0.94661
 Alpha  occ. eigenvalues --   -0.93641  -0.92356  -0.89758  -0.88220  -0.87768
 Alpha  occ. eigenvalues --   -0.86945  -0.84419  -0.84114  -0.83503  -0.82032
 Alpha  occ. eigenvalues --   -0.80850  -0.80600  -0.79063  -0.75066  -0.73228
 Alpha  occ. eigenvalues --   -0.71343  -0.70433  -0.69468  -0.68529  -0.68386
 Alpha  occ. eigenvalues --   -0.68011  -0.65582  -0.65392  -0.65274  -0.64020
 Alpha  occ. eigenvalues --   -0.63869  -0.62486  -0.61642  -0.61107  -0.60411
 Alpha  occ. eigenvalues --   -0.59852  -0.58881  -0.58697  -0.58656  -0.58448
 Alpha  occ. eigenvalues --   -0.58069  -0.57259  -0.56843  -0.56443  -0.56153
 Alpha  occ. eigenvalues --   -0.55556  -0.55361  -0.55138  -0.54955  -0.54374
 Alpha  occ. eigenvalues --   -0.54104  -0.53913  -0.53677  -0.53482  -0.52981
 Alpha  occ. eigenvalues --   -0.52705  -0.52444  -0.52123  -0.51636  -0.50878
 Alpha  occ. eigenvalues --   -0.50580  -0.50316  -0.50231  -0.49556  -0.49322
 Alpha  occ. eigenvalues --   -0.49011  -0.48855  -0.48382  -0.48283  -0.48007
 Alpha  occ. eigenvalues --   -0.47329  -0.47124  -0.46904  -0.46736  -0.46173
 Alpha  occ. eigenvalues --   -0.46157  -0.45880  -0.45618  -0.45501  -0.45236
 Alpha  occ. eigenvalues --   -0.45024  -0.44800  -0.44240  -0.42936  -0.42627
 Alpha  occ. eigenvalues --   -0.42621  -0.42322  -0.41483  -0.41252  -0.40930
 Alpha  occ. eigenvalues --   -0.40447  -0.39567  -0.39301  -0.39117  -0.37713
 Alpha  occ. eigenvalues --   -0.37605  -0.37344  -0.36500  -0.35905  -0.34526
 Alpha  occ. eigenvalues --   -0.34377  -0.33853  -0.31740  -0.29879  -0.28895
 Alpha  occ. eigenvalues --   -0.24958
 Alpha virt. eigenvalues --   -0.03141  -0.02448  -0.01289   0.00092   0.00271
 Alpha virt. eigenvalues --    0.00910   0.02518   0.02617   0.02835   0.02871
 Alpha virt. eigenvalues --    0.05245   0.05725   0.05942   0.06370   0.06397
 Alpha virt. eigenvalues --    0.06780   0.08124   0.08374   0.08569   0.08772
 Alpha virt. eigenvalues --    0.08993   0.09168   0.09494   0.09645   0.09826
 Alpha virt. eigenvalues --    0.10132   0.10313   0.10494   0.10625   0.10723
 Alpha virt. eigenvalues --    0.10914   0.11129   0.11347   0.11411   0.11569
 Alpha virt. eigenvalues --    0.11681   0.12134   0.12234   0.12362   0.12478
 Alpha virt. eigenvalues --    0.12768   0.12882   0.13012   0.13069   0.13154
 Alpha virt. eigenvalues --    0.13388   0.13498   0.13699   0.13828   0.13887
 Alpha virt. eigenvalues --    0.14010   0.14154   0.14318   0.14378   0.14503
 Alpha virt. eigenvalues --    0.14548   0.14668   0.14800   0.15018   0.15186
 Alpha virt. eigenvalues --    0.15247   0.15282   0.15415   0.15600   0.15671
 Alpha virt. eigenvalues --    0.16009   0.16410   0.16457   0.16539   0.16804
 Alpha virt. eigenvalues --    0.16996   0.17039   0.17073   0.17365   0.17475
 Alpha virt. eigenvalues --    0.17571   0.17616   0.17809   0.17813   0.18167
 Alpha virt. eigenvalues --    0.18221   0.18257   0.18352   0.18580   0.18609
 Alpha virt. eigenvalues --    0.18906   0.18993   0.19035   0.19150   0.19297
 Alpha virt. eigenvalues --    0.19400   0.19468   0.19607   0.19895   0.20049
 Alpha virt. eigenvalues --    0.20278   0.20411   0.20598   0.20701   0.20727
 Alpha virt. eigenvalues --    0.21011   0.21534   0.21909   0.21938   0.22404
 Alpha virt. eigenvalues --    0.22577   0.22736   0.22881   0.23168   0.23326
 Alpha virt. eigenvalues --    0.23706   0.24201   0.24237   0.24376   0.24562
 Alpha virt. eigenvalues --    0.24941   0.25444   0.25603   0.26208   0.30152
          Condensed to atoms (all electrons):
 Mulliken charges:
               1
     1  Cl  -0.263424
     2  O   -0.354490
     3  O   -0.295744
     4  O   -0.640483
     5  N    0.046117
     6  N   -0.122223
     7  C   -0.125876
     8  C   -0.175070
     9  C   -0.108218
    10  C   -0.167316
    11  C   -0.066145
    12  C   -0.076096
    13  C   -0.126211
    14  C   -0.177387
    15  C   -0.192915
    16  C   -0.095387
    17  C   -0.138633
    18  C   -0.123052
    19  C   -0.138056
    20  C   -0.104757
    21  C   -0.121443
    22  C   -0.081940
    23  C    0.070091
    24  C   -0.067971
    25  C   -0.073237
    26  C   -0.131737
    27  C   -0.115127
    28  C   -0.125793
    29  C   -0.094940
    30  C   -0.004333
    31  C   -0.059476
    32  C   -0.150471
    33  C    0.050254
    34  C   -0.145288
    35  C   -0.115138
    36  C   -0.061379
    37  C   -0.124540
    38  C   -0.136439
    39  C   -0.139311
    40  C   -0.102175
    41  C   -0.009510
    42  C   -0.010418
    43  C   -0.296927
    44  C    0.250563
    45  C   -0.262783
    46  C   -0.058243
    47  C   -0.128618
    48  C   -0.089236
    49  C   -0.179256
    50  C   -0.111861
    51  C   -0.156590
    52  C    0.064089
    53  H    0.138908
    54  H    0.117005
    55  H    0.109025
    56  H    0.104985
    57  H    0.127997
    58  H    0.103838
    59  H    0.138943
    60  H    0.104567
    61  H    0.191468
    62  H    0.137208
    63  H    0.152620
    64  H    0.110842
    65  H    0.123824
    66  H    0.122828
    67  H    0.136156
    68  H    0.139110
    69  H    0.152099
    70  H    0.177210
    71  H    0.143765
    72  H    0.143486
    73  H    0.138613
    74  H    0.138856
    75  H    0.153099
    76  H    0.163646
    77  H    0.163345
    78  H    0.265979
    79  H    0.130932
    80  H    0.126774
    81  H    0.123150
    82  H    0.124761
    83  H    0.129216
    84  H    0.155998
    85  H    0.116399
    86  H    0.116415
    87  H    0.117746
    88  H    0.120908
    89  H    0.120049
    90  H    0.134622
    91  H    0.240292
    92  H    0.243296
    93  H    0.124666
    94  H    0.221442
    95  H    0.118462
 Sum of Mulliken charges =  -0.00000
 Mulliken charges with hydrogens summed into heavy atoms:
               1
     1  Cl  -0.020128
     2  O   -0.088511
     3  O   -0.055452
     4  O   -0.640483
     5  N    0.046117
     6  N   -0.122223
     7  C    0.130037
     8  C    0.038941
     9  C    0.019778
    10  C    0.075465
    11  C    0.058521
    12  C    0.028472
    13  C    0.202465
    14  C   -0.024767
    15  C    0.041752
    16  C    0.244517
    17  C   -0.138633
    18  C   -0.000224
    19  C   -0.001900
    20  C    0.034354
    21  C    0.030655
    22  C    0.095270
    23  C    0.213856
    24  C   -0.067971
    25  C   -0.073237
    26  C    0.011748
    27  C    0.023486
    28  C    0.013063
    29  C    0.058159
    30  C   -0.004333
    31  C    0.104170
    32  C    0.012874
    33  C    0.050254
    34  C   -0.014356
    35  C    0.011636
    36  C   -0.061379
    37  C   -0.001390
    38  C   -0.011679
    39  C   -0.010095
    40  C    0.053823
    41  C   -0.009510
    42  C   -0.010418
    43  C   -0.296927
    44  C    0.250563
    45  C   -0.146384
    46  C    0.058172
    47  C   -0.128618
    48  C    0.028510
    49  C   -0.058347
    50  C    0.008188
    51  C   -0.021968
    52  C    0.064089
 APT charges:
               1
     1  Cl  -0.430504
     2  O   -0.598952
     3  O   -0.690132
     4  O   -1.654312
     5  N   -0.417163
     6  N   -0.248717
     7  C    0.025343
     8  C   -0.082259
     9  C   -0.035801
    10  C   -0.090450
    11  C    0.105843
    12  C    0.050389
    13  C   -0.012600
    14  C   -0.163061
    15  C   -0.156998
    16  C    0.204075
    17  C   -0.202778
    18  C   -0.073823
    19  C   -0.187461
    20  C   -0.035083
    21  C   -0.150093
    22  C   -0.091538
    23  C    0.431787
    24  C   -0.020028
    25  C   -0.148189
    26  C   -0.142400
    27  C   -0.098630
    28  C   -0.108048
    29  C   -0.108497
    30  C    0.016890
    31  C    0.089434
    32  C   -0.255176
    33  C    0.336346
    34  C   -0.059812
    35  C   -0.102813
    36  C   -0.123972
    37  C   -0.105330
    38  C   -0.124581
    39  C   -0.093495
    40  C   -0.124797
    41  C    0.046677
    42  C    0.057731
    43  C   -0.805009
    44  C    1.257851
    45  C   -0.356609
    46  C    0.261184
    47  C   -0.526641
    48  C    0.155448
    49  C   -0.391700
    50  C    0.071581
    51  C   -0.190035
    52  C    0.393437
    53  H    0.084379
    54  H    0.056767
    55  H    0.055214
    56  H    0.049697
    57  H    0.069218
    58  H    0.043485
    59  H    0.101241
    60  H    0.026256
    61  H    0.214706
    62  H    0.083833
    63  H    0.134262
    64  H    0.088775
    65  H    0.112949
    66  H    0.098845
    67  H    0.129004
    68  H    0.135353
    69  H    0.133774
    70  H    0.173314
    71  H    0.106543
    72  H    0.153259
    73  H    0.133253
    74  H    0.140513
    75  H    0.157366
    76  H    0.159881
    77  H    0.165002
    78  H    0.412018
    79  H    0.119891
    80  H    0.113470
    81  H    0.105393
    82  H    0.120530
    83  H    0.115196
    84  H    0.133451
    85  H    0.096413
    86  H    0.094796
    87  H    0.096746
    88  H    0.121193
    89  H    0.099950
    90  H    0.106346
    91  H    0.253901
    92  H    0.513981
    93  H    0.050108
    94  H    0.293273
    95  H    0.049860
 Sum of APT charges =  -0.00007
 APT charges with hydrogens summed into heavy atoms:
               1
     1  Cl   0.083477
     2  O   -0.186933
     3  O   -0.436231
     4  O   -1.654312
     5  N   -0.417163
     6  N   -0.248717
     7  C    0.166489
     8  C    0.022652
     9  C    0.033417
    10  C    0.054275
    11  C    0.155951
    12  C    0.076645
    13  C    0.285939
    14  C   -0.028799
    15  C    0.044725
    16  C    0.547207
    17  C   -0.202778
    18  C    0.025023
    19  C   -0.058458
    20  C    0.100270
    21  C   -0.016319
    22  C    0.081776
    23  C    0.538329
    24  C   -0.020028
    25  C   -0.148189
    26  C    0.010859
    27  C    0.034623
    28  C    0.032466
    29  C    0.048870
    30  C    0.016890
    31  C    0.249315
    32  C   -0.090174
    33  C    0.336346
    34  C    0.060079
    35  C    0.010657
    36  C   -0.123972
    37  C    0.000062
    38  C   -0.004051
    39  C    0.021700
    40  C    0.008654
    41  C    0.046677
    42  C    0.057731
    43  C   -0.805009
    44  C    1.257851
    45  C   -0.260196
    46  C    0.355980
    47  C   -0.526641
    48  C    0.252194
    49  C   -0.270506
    50  C    0.171532
    51  C   -0.083689
    52  C    0.393437
 Charge=              0.0000 electrons
 Dipole moment (field-independent basis, Debye):
    X=             10.5786    Y=             -8.7877    Z=             -3.6192  Tot=             14.2207
 N-N= 3.761678102957D+03 E-N=-7.116971619201D+03  KE=-2.195086096688D+02
  Exact polarizability: 456.408  41.697 415.442  13.731  49.591 485.833
 Approx polarizability: 348.185  46.494 306.034   4.817  46.080 420.718
 Calling FoFJK, ICntrl=    100127 FMM=F ISym2X=0 I1Cent= 0 IOpClX= 0 NMat=1 NMatS=1 NMatT=0.
 Full mass-weighted force constant matrix:
 Low frequencies ---   -0.2488   -0.1577   -0.1145    0.0091    0.4303    0.5227
 Low frequencies ---   10.1343   12.9288   18.6998
 Diagonal vibrational polarizability:
      183.9511126     179.9191679      94.0180857
 Harmonic frequencies (cm**-1), IR intensities (KM/Mole), Raman scattering
 activities (A**4/AMU), depolarization ratios for plane and unpolarized
 incident light, reduced masses (AMU), force constants (mDyne/A),
 and normal coordinates:
                      1                      2                      3
                      A                      A                      A
 Frequencies --     10.1343                12.9288                18.6998
 Red. masses --      6.3175                 6.5477                 6.0085
 Frc consts  --      0.0004                 0.0006                 0.0012
 IR Inten    --      0.0691                 0.2189                 0.5541
  Atom  AN      X      Y      Z        X      Y      Z        X      Y      Z
     1  17     0.06   0.04   0.08     0.10   0.03   0.11     0.03  -0.09  -0.01
     2   8    -0.00   0.02  -0.03    -0.02  -0.07   0.01    -0.03   0.01  -0.01
     3   8     0.02   0.09   0.04     0.01  -0.02  -0.04     0.01  -0.06  -0.00
     4   8    -0.00  -0.01  -0.01    -0.02  -0.04   0.00    -0.03  -0.09  -0.03
     5   7    -0.01   0.00  -0.01    -0.01  -0.01  -0.04     0.04  -0.01   0.01
     6   7     0.04  -0.02  -0.05    -0.07   0.04   0.11    -0.09   0.06  -0.02
     7   6    -0.02  -0.00  -0.00    -0.01   0.01  -0.08     0.07   0.00   0.03
     8   6    -0.01  -0.00  -0.01     0.01   0.01  -0.11     0.06   0.03   0.05
     9   6    -0.00   0.01  -0.02     0.03  -0.02  -0.09     0.03   0.04   0.04
    10   6     0.00   0.00  -0.03     0.00  -0.01  -0.06     0.01   0.04   0.03
    11   6    -0.00   0.00  -0.02    -0.02  -0.01  -0.03     0.02   0.01   0.01
    12   6     0.00   0.02  -0.01     0.05  -0.05  -0.07     0.02   0.03   0.03
    13   6    -0.00   0.02  -0.00     0.03  -0.05  -0.03     0.03  -0.01   0.00
    14   6     0.01   0.03  -0.01     0.08  -0.07  -0.06    -0.01   0.04   0.02
    15   6     0.02   0.04  -0.01     0.13  -0.09  -0.07    -0.02   0.05   0.03
    16   6    -0.01   0.00  -0.00    -0.03  -0.02  -0.01     0.05  -0.04  -0.01
    17   6    -0.04   0.01   0.05    -0.05  -0.01   0.04     0.05  -0.05   0.01
    18   6    -0.07  -0.04   0.07    -0.09  -0.04   0.05     0.08  -0.09   0.05
    19   6    -0.10  -0.03   0.12    -0.11  -0.04   0.10     0.08  -0.10   0.07
    20   6    -0.10   0.03   0.14    -0.09  -0.01   0.14     0.06  -0.06   0.06
    21   6    -0.07   0.08   0.11    -0.05   0.02   0.13     0.04  -0.02   0.02
    22   6    -0.04   0.07   0.07    -0.03   0.02   0.08     0.03  -0.01  -0.00
    23   6     0.00   0.01  -0.03    -0.02  -0.02   0.01    -0.02  -0.00  -0.01
    24   6     0.01  -0.00  -0.03    -0.03  -0.00   0.04    -0.04   0.01  -0.01
    25   6     0.02  -0.01  -0.04    -0.03   0.03   0.06    -0.04   0.00  -0.02
    26   6     0.02  -0.02  -0.04    -0.01   0.05   0.04    -0.01  -0.03  -0.02
    27   6     0.03  -0.03  -0.04    -0.02   0.09   0.05    -0.01  -0.04  -0.02
    28   6     0.05  -0.04  -0.05    -0.04   0.12   0.09    -0.03  -0.02  -0.02
    29   6     0.05  -0.04  -0.05    -0.05   0.10   0.11    -0.06   0.02  -0.02
    30   6     0.04  -0.03  -0.04    -0.05   0.06   0.09    -0.06   0.03  -0.02
    31   6     0.03  -0.01  -0.04    -0.06   0.00   0.10    -0.10   0.07  -0.01
    32   6     0.02   0.00  -0.04    -0.05  -0.02   0.07    -0.07   0.05  -0.01
    33   6     0.03   0.07  -0.00     0.01  -0.03  -0.03    -0.01  -0.02  -0.01
    34   6     0.06   0.11  -0.03     0.01  -0.04  -0.03    -0.03  -0.01  -0.02
    35   6     0.08   0.11  -0.07     0.01  -0.04  -0.02    -0.05   0.04  -0.03
    36   6     0.06   0.06  -0.09     0.01  -0.03  -0.02    -0.07   0.07  -0.04
    37   6     0.07   0.05  -0.14     0.00  -0.02  -0.02    -0.10   0.13  -0.06
    38   6     0.06   0.00  -0.16     0.00  -0.01  -0.02    -0.12   0.16  -0.07
    39   6     0.03  -0.04  -0.14     0.00   0.00  -0.02    -0.10   0.14  -0.07
    40   6     0.01  -0.03  -0.09     0.00  -0.00  -0.03    -0.07   0.09  -0.05
    41   6     0.03   0.02  -0.07     0.01  -0.02  -0.03    -0.05   0.05  -0.04
    42   6     0.02   0.03  -0.02     0.01  -0.02  -0.03    -0.02  -0.00  -0.02
    43   6    -0.01  -0.02   0.01     0.01  -0.01  -0.04     0.00  -0.03  -0.01
    44   6    -0.02  -0.03   0.01    -0.01  -0.02  -0.02    -0.01  -0.08  -0.01
    45   6    -0.04  -0.07   0.03    -0.01  -0.01  -0.03    -0.01  -0.13   0.01
    46   6    -0.06  -0.10   0.06     0.01   0.01  -0.05     0.02  -0.11   0.03
    47   6    -0.06  -0.09   0.07     0.03   0.03  -0.07     0.05  -0.05   0.03
    48   6    -0.09  -0.11   0.10     0.05   0.05  -0.10     0.10  -0.02   0.05
    49   6    -0.09  -0.10   0.11     0.07   0.06  -0.12     0.12   0.04   0.05
    50   6    -0.06  -0.06   0.08     0.07   0.05  -0.11     0.11   0.08   0.03
    51   6    -0.04  -0.03   0.05     0.05   0.02  -0.08     0.07   0.06   0.01
    52   6    -0.04  -0.04   0.04     0.03   0.01  -0.06     0.04  -0.01   0.01
    53   1    -0.02  -0.00   0.01     0.00   0.00  -0.08     0.09  -0.01   0.03
    54   1    -0.02  -0.01  -0.01    -0.03   0.03  -0.08     0.08  -0.00   0.03
    55   1    -0.01   0.00  -0.00     0.03   0.00  -0.13     0.08   0.04   0.06
    56   1    -0.02  -0.01  -0.02    -0.00   0.03  -0.12     0.07   0.04   0.06
    57   1     0.00   0.01  -0.02     0.05  -0.02  -0.12     0.02   0.07   0.06
    58   1    -0.00  -0.00  -0.03    -0.01   0.01  -0.08     0.01   0.05   0.04
    59   1     0.01   0.01  -0.03     0.01  -0.03  -0.05    -0.02   0.05   0.02
    60   1     0.00   0.02   0.00     0.07  -0.05  -0.09     0.04   0.03   0.04
    61   1     0.00   0.02  -0.00     0.02  -0.06  -0.01     0.00  -0.01  -0.01
    62   1    -0.00   0.02   0.01     0.04  -0.06  -0.04     0.04  -0.02   0.00
    63   1     0.01   0.03  -0.02     0.05  -0.07  -0.03    -0.03   0.04   0.01
    64   1     0.03   0.04   0.00     0.16  -0.08  -0.09    -0.01   0.06   0.04
    65   1     0.03   0.05  -0.01     0.14  -0.10  -0.06    -0.05   0.06   0.02
    66   1    -0.07  -0.08   0.06    -0.11  -0.07   0.02     0.10  -0.12   0.06
    67   1    -0.12  -0.07   0.14    -0.14  -0.06   0.11     0.10  -0.14   0.10
    68   1    -0.12   0.04   0.18    -0.11  -0.00   0.18     0.06  -0.07   0.08
    69   1    -0.07   0.12   0.13    -0.04   0.05   0.16     0.02   0.01   0.01
    70   1    -0.02   0.11   0.04     0.00   0.04   0.07     0.02   0.03  -0.04
    71   1     0.01   0.01  -0.03    -0.03  -0.01   0.01    -0.01  -0.03  -0.02
    72   1     0.01  -0.00  -0.03     0.00   0.02   0.01     0.01  -0.05  -0.02
    73   1     0.03  -0.03  -0.04    -0.00   0.10   0.04     0.01  -0.07  -0.03
    74   1     0.06  -0.06  -0.05    -0.04   0.15   0.10    -0.03  -0.03  -0.03
    75   1     0.06  -0.05  -0.05    -0.07   0.12   0.14    -0.08   0.04  -0.02
    76   1     0.03  -0.01  -0.04    -0.08  -0.01   0.12    -0.12   0.09  -0.01
    77   1     0.01   0.01  -0.03    -0.05  -0.05   0.06    -0.07   0.06  -0.01
    78   1    -0.00   0.01  -0.03    -0.02  -0.06   0.02    -0.04  -0.03  -0.03
    79   1     0.08   0.15  -0.01     0.01  -0.04  -0.03    -0.01  -0.03  -0.01
    80   1     0.10   0.14  -0.09     0.01  -0.04  -0.02    -0.06   0.05  -0.04
    81   1     0.10   0.08  -0.16     0.00  -0.03  -0.01    -0.11   0.14  -0.07
    82   1     0.07  -0.00  -0.20    -0.00  -0.01  -0.01    -0.15   0.21  -0.09
    83   1     0.01  -0.07  -0.16    -0.00   0.01  -0.02    -0.12   0.17  -0.08
    84   1    -0.01  -0.06  -0.07     0.01   0.01  -0.03    -0.06   0.07  -0.04
    85   1    -0.04  -0.08   0.03    -0.03  -0.02  -0.01    -0.03  -0.18   0.01
    86   1    -0.08  -0.13   0.08     0.00   0.02  -0.06     0.03  -0.14   0.05
    87   1    -0.11  -0.15   0.12     0.05   0.06  -0.10     0.10  -0.05   0.07
    88   1    -0.11  -0.12   0.13     0.09   0.08  -0.14     0.16   0.06   0.06
    89   1    -0.06  -0.05   0.08     0.09   0.06  -0.13     0.13   0.13   0.03
    90   1    -0.02   0.00   0.03     0.05   0.01  -0.08     0.06   0.09  -0.00
    91   1    -0.00   0.06   0.06    -0.00  -0.00  -0.05     0.01  -0.06  -0.00
    92   1     0.05   0.02   0.06     0.05   0.01   0.08     0.00  -0.09  -0.01
    93   1    -0.01  -0.01  -0.02    -0.05   0.02  -0.04     0.03   0.01   0.01
    94   1     0.01   0.03  -0.02    -0.01  -0.00   0.00     0.04  -0.03  -0.04
    95   1    -0.01  -0.04  -0.02    -0.05  -0.04  -0.02     0.06  -0.06  -0.02
                      4                      5                      6
                      A                      A                      A
 Frequencies --     25.8276                28.7361                31.3611
 Red. masses --      6.9723                 5.5117                 5.5400
 Frc consts  --      0.0027                 0.0027                 0.0032
 IR Inten    --      0.3680                 0.9063                 1.1051
  Atom  AN      X      Y      Z        X      Y      Z        X      Y      Z
     1  17     0.08   0.11   0.01     0.04  -0.07   0.02     0.07   0.08   0.05
     2   8     0.02  -0.01  -0.02    -0.06   0.02  -0.01     0.01  -0.04   0.03
     3   8    -0.03  -0.14  -0.04    -0.05   0.01  -0.00     0.04   0.01   0.07
     4   8     0.02   0.05  -0.08    -0.06  -0.05   0.04     0.00   0.07   0.04
     5   7     0.05  -0.00  -0.02    -0.03   0.04  -0.02    -0.02  -0.03   0.02
     6   7     0.11  -0.03   0.05     0.01   0.00   0.04    -0.07  -0.00  -0.01
     7   6     0.05  -0.00  -0.01    -0.02   0.06  -0.04    -0.02  -0.02  -0.01
     8   6     0.04  -0.01  -0.00    -0.00   0.07  -0.06     0.00  -0.01  -0.04
     9   6     0.03  -0.01  -0.00    -0.00   0.06  -0.05     0.02  -0.02  -0.04
    10   6     0.04  -0.01  -0.00    -0.03   0.06  -0.03     0.00  -0.02  -0.02
    11   6     0.05  -0.00  -0.01    -0.04   0.05  -0.02    -0.02  -0.02   0.01
    12   6     0.02  -0.00  -0.01     0.01   0.03  -0.04     0.05  -0.04  -0.01
    13   6     0.03  -0.00  -0.02    -0.00   0.02  -0.02     0.02  -0.03   0.03
    14   6     0.01  -0.00  -0.01     0.02   0.02  -0.03     0.08  -0.05   0.00
    15   6     0.01   0.00  -0.01     0.08   0.02  -0.04     0.18  -0.05  -0.01
    16   6     0.05   0.00  -0.03    -0.04   0.04  -0.00    -0.04  -0.03   0.05
    17   6     0.04   0.01  -0.01    -0.02   0.03  -0.01     0.00  -0.05   0.00
    18   6     0.03  -0.02   0.01    -0.03   0.05  -0.03     0.01   0.04  -0.06
    19   6     0.02  -0.02   0.03    -0.02   0.05  -0.04     0.05   0.02  -0.11
    20   6     0.00   0.02   0.03    -0.00   0.02  -0.03     0.09  -0.09  -0.09
    21   6     0.01   0.05   0.01     0.00  -0.01  -0.01     0.09  -0.17  -0.03
    22   6     0.03   0.04  -0.01    -0.01  -0.00  -0.00     0.04  -0.15   0.02
    23   6     0.05  -0.00  -0.01    -0.05   0.04  -0.01    -0.02  -0.03   0.03
    24   6     0.06  -0.01   0.01    -0.05   0.05   0.01    -0.04  -0.02   0.01
    25   6     0.08   0.01   0.02     0.04  -0.01   0.00    -0.04  -0.04   0.01
    26   6     0.07   0.04   0.01     0.09  -0.03  -0.02    -0.03  -0.07   0.01
    27   6     0.09   0.06   0.02     0.20  -0.11  -0.04    -0.02  -0.09   0.00
    28   6     0.11   0.05   0.04     0.26  -0.16  -0.02    -0.03  -0.09  -0.01
    29   6     0.12   0.01   0.05     0.19  -0.12   0.00    -0.04  -0.06  -0.01
    30   6     0.10  -0.00   0.04     0.08  -0.04   0.02    -0.05  -0.03  -0.01
    31   6     0.09  -0.05   0.05    -0.09   0.07   0.05    -0.07   0.01  -0.01
    32   6     0.07  -0.03   0.03    -0.11   0.09   0.04    -0.05   0.00   0.01
    33   6    -0.06  -0.09  -0.02    -0.04   0.00   0.01     0.04   0.02   0.04
    34   6    -0.09  -0.11  -0.01    -0.05   0.00   0.01     0.07   0.00   0.04
    35   6    -0.12  -0.06   0.01    -0.04  -0.01   0.02     0.06   0.02   0.02
    36   6    -0.13   0.00   0.01    -0.03  -0.02   0.03     0.03   0.05  -0.01
    37   6    -0.16   0.05   0.02    -0.02  -0.04   0.04     0.01   0.07  -0.04
    38   6    -0.17   0.11   0.02    -0.01  -0.05   0.05    -0.02   0.10  -0.07
    39   6    -0.13   0.11   0.02    -0.01  -0.04   0.04    -0.05   0.11  -0.07
    40   6    -0.10   0.06   0.00    -0.02  -0.03   0.03    -0.04   0.08  -0.04
    41   6    -0.09   0.01  -0.00    -0.03  -0.02   0.02     0.00   0.05  -0.01
    42   6    -0.06  -0.03  -0.02    -0.03  -0.01   0.01     0.01   0.04   0.02
    43   6    -0.04  -0.01  -0.03    -0.03  -0.01   0.01    -0.02   0.04   0.02
    44   6    -0.00   0.03  -0.06    -0.05  -0.04   0.03    -0.02   0.06   0.03
    45   6     0.01   0.03  -0.06    -0.05  -0.04   0.03    -0.04   0.07   0.03
    46   6    -0.02   0.00  -0.04    -0.03  -0.02   0.02    -0.06   0.06   0.02
    47   6    -0.06  -0.03  -0.01    -0.01   0.00   0.01    -0.06   0.04   0.01
    48   6    -0.09  -0.06   0.01     0.01   0.02  -0.01    -0.08   0.02   0.00
    49   6    -0.13  -0.10   0.04     0.03   0.04  -0.02    -0.08   0.00  -0.01
    50   6    -0.13  -0.09   0.04     0.03   0.04  -0.02    -0.06  -0.00  -0.01
    51   6    -0.10  -0.06   0.01     0.01   0.02  -0.01    -0.03   0.02  -0.00
    52   6    -0.06  -0.04  -0.01    -0.01   0.00   0.00    -0.04   0.03   0.01
    53   1     0.05   0.00  -0.02    -0.00   0.05  -0.04    -0.02  -0.02   0.01
    54   1     0.06  -0.00  -0.01    -0.04   0.07  -0.04    -0.06  -0.01  -0.01
    55   1     0.03  -0.01  -0.00     0.02   0.07  -0.07     0.02  -0.01  -0.05
    56   1     0.05  -0.01   0.01    -0.02   0.10  -0.07    -0.02   0.00  -0.06
    57   1     0.02  -0.01   0.01     0.01   0.06  -0.06     0.04  -0.02  -0.06
    58   1     0.04  -0.01   0.01    -0.04   0.09  -0.03    -0.01  -0.00  -0.04
    59   1     0.03  -0.01  -0.00    -0.04   0.05  -0.02     0.01  -0.03  -0.01
    60   1     0.02  -0.00  -0.01     0.03   0.03  -0.04     0.05  -0.04  -0.02
    61   1     0.03  -0.00  -0.03    -0.01   0.01  -0.00     0.03  -0.04   0.04
    62   1     0.03  -0.00  -0.03     0.01   0.01  -0.02     0.02  -0.04   0.04
    63   1     0.01  -0.00  -0.01    -0.02   0.01  -0.02     0.02  -0.05   0.02
    64   1     0.02   0.00  -0.01     0.13   0.02  -0.05     0.24  -0.04  -0.03
    65   1     0.01   0.00  -0.01     0.09   0.01  -0.03     0.21  -0.06  -0.01
    66   1     0.04  -0.05   0.01    -0.04   0.07  -0.03    -0.02   0.12  -0.07
    67   1     0.01  -0.04   0.05    -0.02   0.06  -0.05     0.06   0.09  -0.16
    68   1    -0.01   0.03   0.04     0.01   0.01  -0.03     0.13  -0.10  -0.13
    69   1     0.00   0.08   0.01     0.01  -0.03  -0.00     0.12  -0.26  -0.02
    70   1     0.03   0.07  -0.03    -0.01  -0.02   0.01     0.03  -0.22   0.07
    71   1     0.06   0.01  -0.03    -0.04   0.04  -0.02    -0.03  -0.04   0.05
    72   1     0.06   0.05  -0.01     0.04   0.02  -0.03    -0.02  -0.06   0.02
    73   1     0.08   0.09   0.01     0.24  -0.13  -0.06    -0.01  -0.11   0.01
    74   1     0.12   0.06   0.04     0.35  -0.22  -0.04    -0.02  -0.11  -0.02
    75   1     0.13   0.00   0.06     0.23  -0.15   0.01    -0.05  -0.05  -0.02
    76   1     0.10  -0.07   0.06    -0.14   0.10   0.07    -0.08   0.04  -0.01
    77   1     0.05  -0.05   0.02    -0.18   0.12   0.04    -0.05   0.02   0.01
    78   1     0.02   0.00  -0.03    -0.07   0.00  -0.01     0.01   0.00   0.05
    79   1    -0.08  -0.16  -0.01    -0.06   0.01   0.00     0.09  -0.02   0.07
    80   1    -0.14  -0.07   0.01    -0.04  -0.01   0.02     0.08   0.01   0.02
    81   1    -0.19   0.05   0.03    -0.03  -0.04   0.04     0.04   0.07  -0.04
    82   1    -0.20   0.15   0.03    -0.01  -0.06   0.06    -0.03   0.13  -0.10
    83   1    -0.14   0.15   0.02    -0.00  -0.05   0.05    -0.08   0.13  -0.09
    84   1    -0.07   0.06  -0.00    -0.01  -0.03   0.03    -0.05   0.08  -0.04
    85   1     0.04   0.06  -0.09    -0.07  -0.06   0.04    -0.03   0.09   0.03
    86   1    -0.01   0.01  -0.04    -0.04  -0.03   0.02    -0.07   0.06   0.02
    87   1    -0.08  -0.06   0.01     0.01   0.02  -0.01    -0.10   0.02   0.00
    88   1    -0.15  -0.12   0.06     0.05   0.06  -0.03    -0.10  -0.01  -0.01
    89   1    -0.16  -0.12   0.06     0.05   0.06  -0.03    -0.06  -0.01  -0.02
    90   1    -0.10  -0.06   0.01     0.01   0.02  -0.01    -0.01   0.02  -0.01
    91   1     0.01  -0.15  -0.03    -0.05   0.02  -0.01     0.02   0.02   0.06
    92   1     0.05   0.08  -0.03     0.00  -0.07   0.03     0.03   0.07   0.04
    93   1     0.05   0.00  -0.01    -0.05   0.06  -0.02    -0.04  -0.02  -0.00
    94   1     0.06   0.02  -0.05    -0.04   0.02   0.02    -0.06  -0.07   0.10
    95   1     0.06  -0.02  -0.04    -0.06   0.06   0.00    -0.08   0.03   0.07
                      7                      8                      9
                      A                      A                      A
 Frequencies --     36.6218                37.7237                44.6716
 Red. masses --      5.3758                 8.4480                 6.5220
 Frc consts  --      0.0042                 0.0071                 0.0077
 IR Inten    --      0.5197                 0.3671                 0.7135
  Atom  AN      X      Y      Z        X      Y      Z        X      Y      Z
     1  17     0.03  -0.10   0.02     0.29   0.05   0.19    -0.05   0.14   0.12
     2   8    -0.03   0.04  -0.05    -0.00   0.03   0.02    -0.05  -0.03  -0.05
     3   8    -0.01  -0.02   0.04    -0.01  -0.01  -0.02    -0.05   0.09  -0.06
     4   8    -0.06  -0.05   0.06    -0.01  -0.04  -0.00    -0.02  -0.01  -0.07
     5   7    -0.04   0.00   0.03    -0.01   0.01   0.02    -0.02  -0.02  -0.03
     6   7     0.14  -0.09  -0.01     0.00  -0.01  -0.05     0.02  -0.03   0.06
     7   6    -0.06  -0.02   0.03    -0.00   0.00   0.03    -0.01  -0.02  -0.02
     8   6    -0.05  -0.01   0.02    -0.03  -0.01   0.07    -0.02  -0.01  -0.00
     9   6    -0.01   0.02  -0.00    -0.05  -0.02   0.07    -0.03   0.01  -0.02
    10   6    -0.01   0.01  -0.04    -0.02  -0.01   0.07    -0.03   0.00  -0.05
    11   6    -0.02  -0.00  -0.02     0.00   0.00   0.04    -0.03  -0.02  -0.05
    12   6    -0.00   0.06   0.04    -0.07  -0.01   0.03    -0.03   0.02  -0.02
    13   6    -0.02   0.03   0.04    -0.04   0.01   0.01    -0.03  -0.01  -0.03
    14   6     0.03   0.12   0.01    -0.11  -0.02   0.04    -0.05   0.05  -0.03
    15   6     0.15   0.18   0.03    -0.27  -0.05   0.04    -0.14   0.07  -0.01
    16   6    -0.05   0.00   0.04     0.02   0.03  -0.01    -0.03  -0.05  -0.04
    17   6    -0.03  -0.01   0.02     0.01   0.04  -0.05     0.01  -0.07  -0.03
    18   6    -0.02   0.04  -0.02     0.00   0.09  -0.09     0.03  -0.06  -0.04
    19   6     0.00   0.03  -0.05    -0.02   0.12  -0.14     0.09  -0.12  -0.01
    20   6     0.02  -0.03  -0.04    -0.02   0.10  -0.16     0.14  -0.18   0.03
    21   6     0.02  -0.08  -0.00    -0.01   0.05  -0.11     0.12  -0.19   0.03
    22   6    -0.00  -0.07   0.02     0.01   0.02  -0.06     0.05  -0.14  -0.00
    23   6    -0.00   0.02  -0.04     0.00   0.01   0.02    -0.04  -0.02  -0.05
    24   6     0.04  -0.01  -0.03     0.00   0.00   0.00    -0.02  -0.02  -0.02
    25   6     0.03   0.03  -0.02    -0.02  -0.01  -0.01     0.01   0.01  -0.01
    26   6    -0.03   0.10  -0.02    -0.04  -0.02   0.01     0.01   0.05  -0.03
    27   6    -0.06   0.15  -0.00    -0.06  -0.02   0.01     0.04   0.08  -0.02
    28   6    -0.02   0.12   0.01    -0.06  -0.03  -0.02     0.07   0.07   0.02
    29   6     0.04   0.04   0.00    -0.04  -0.02  -0.03     0.06   0.03   0.05
    30   6     0.07  -0.01  -0.01    -0.02  -0.01  -0.03     0.03   0.00   0.03
    31   6     0.15  -0.13  -0.02     0.02  -0.00  -0.04    -0.01  -0.05   0.05
    32   6     0.10  -0.08  -0.03     0.02   0.00  -0.02    -0.03  -0.05   0.01
    33   6    -0.01  -0.02   0.03    -0.01  -0.01  -0.02    -0.04   0.08  -0.04
    34   6     0.01  -0.02   0.03    -0.02   0.00  -0.02    -0.06   0.09  -0.05
    35   6     0.01  -0.02   0.01    -0.02   0.00  -0.02    -0.04   0.06  -0.03
    36   6    -0.01  -0.01  -0.00    -0.01  -0.01  -0.01    -0.01   0.02  -0.01
    37   6    -0.01  -0.00  -0.03    -0.01  -0.01  -0.01     0.01  -0.02   0.02
    38   6    -0.03   0.01  -0.04    -0.00  -0.03   0.00     0.05  -0.07   0.04
    39   6    -0.05   0.01  -0.04     0.01  -0.04   0.01     0.05  -0.07   0.04
    40   6    -0.04  -0.00  -0.02     0.00  -0.04   0.00     0.03  -0.03   0.02
    41   6    -0.02  -0.01  -0.00    -0.01  -0.02  -0.01    -0.00   0.02  -0.01
    42   6    -0.02  -0.02   0.02    -0.01  -0.02  -0.01    -0.02   0.05  -0.03
    43   6    -0.03  -0.03   0.02    -0.00  -0.03  -0.01    -0.01   0.03  -0.02
    44   6    -0.06  -0.05   0.04    -0.01  -0.04   0.00    -0.00  -0.00  -0.04
    45   6    -0.08  -0.05   0.05    -0.03  -0.06   0.01     0.02  -0.03  -0.02
    46   6    -0.06  -0.03   0.03    -0.02  -0.05   0.01     0.03  -0.03   0.01
    47   6    -0.03  -0.01   0.00     0.01  -0.03  -0.01     0.03  -0.00   0.03
    48   6    -0.00   0.02  -0.03     0.03  -0.01  -0.02     0.05   0.00   0.06
    49   6     0.03   0.05  -0.06     0.06   0.02  -0.04     0.04   0.03   0.08
    50   6     0.05   0.05  -0.06     0.06   0.03  -0.04     0.01   0.05   0.07
    51   6     0.03   0.02  -0.03     0.04   0.01  -0.03    -0.00   0.05   0.04
    52   6    -0.01  -0.01  -0.00     0.01  -0.02  -0.01     0.01   0.03   0.01
    53   1    -0.07  -0.01   0.06    -0.01   0.01   0.01    -0.01  -0.03  -0.02
    54   1    -0.07  -0.04   0.03     0.03   0.01   0.04    -0.00  -0.03  -0.02
    55   1    -0.06  -0.01   0.05    -0.05  -0.01   0.06    -0.03  -0.01   0.02
    56   1    -0.06  -0.04   0.00    -0.01  -0.02   0.09    -0.01  -0.03   0.00
    57   1    -0.00   0.03  -0.01    -0.07  -0.03   0.09    -0.03   0.03  -0.01
    58   1    -0.02  -0.01  -0.06    -0.01  -0.02   0.10    -0.03  -0.02  -0.06
    59   1     0.01   0.03  -0.05    -0.04  -0.02   0.07    -0.02   0.02  -0.07
    60   1    -0.01   0.07   0.08    -0.09  -0.01   0.02    -0.02   0.02   0.01
    61   1    -0.02   0.04   0.03    -0.04   0.02  -0.00    -0.05  -0.01  -0.05
    62   1    -0.01   0.03   0.07    -0.06   0.02  -0.01    -0.01  -0.02  -0.02
    63   1    -0.03   0.11  -0.03    -0.01  -0.01   0.04     0.01   0.06  -0.06
    64   1     0.22   0.19   0.07    -0.38  -0.06   0.04    -0.20   0.06   0.02
    65   1     0.18   0.22   0.00    -0.31  -0.06   0.05    -0.15   0.09  -0.03
    66   1    -0.04   0.09  -0.03     0.01   0.11  -0.07    -0.01  -0.01  -0.07
    67   1     0.00   0.07  -0.07    -0.03   0.16  -0.17     0.11  -0.11  -0.01
    68   1     0.04  -0.04  -0.06    -0.04   0.12  -0.20     0.19  -0.23   0.05
    69   1     0.04  -0.13   0.01    -0.01   0.03  -0.12     0.15  -0.25   0.05
    70   1    -0.01  -0.10   0.05     0.02  -0.02  -0.03     0.03  -0.15  -0.00
    71   1     0.01   0.03  -0.06     0.00   0.00   0.02    -0.03  -0.01  -0.07
    72   1    -0.05   0.12  -0.03    -0.03  -0.02   0.03    -0.00   0.06  -0.06
    73   1    -0.10   0.21   0.00    -0.08  -0.03   0.02     0.05   0.11  -0.04
    74   1    -0.04   0.16   0.02    -0.08  -0.03  -0.02     0.09   0.09   0.03
    75   1     0.08   0.01   0.01    -0.05  -0.02  -0.05     0.08   0.02   0.08
    76   1     0.21  -0.19  -0.02     0.04  -0.00  -0.06    -0.01  -0.08   0.07
    77   1     0.11  -0.11  -0.04     0.04   0.01  -0.01    -0.06  -0.07   0.00
    78   1    -0.04   0.03  -0.06    -0.01  -0.01   0.01    -0.05   0.00  -0.06
    79   1     0.02  -0.03   0.04    -0.03   0.01  -0.03    -0.08   0.12  -0.07
    80   1     0.03  -0.03   0.01    -0.03   0.01  -0.02    -0.06   0.07  -0.03
    81   1     0.00  -0.00  -0.03    -0.02  -0.01  -0.01     0.00  -0.02   0.02
    82   1    -0.04   0.02  -0.06    -0.00  -0.03   0.01     0.07  -0.11   0.06
    83   1    -0.07   0.02  -0.05     0.01  -0.05   0.01     0.08  -0.11   0.06
    84   1    -0.06  -0.00  -0.02     0.01  -0.04   0.00     0.03  -0.02   0.01
    85   1    -0.10  -0.07   0.07    -0.05  -0.08   0.02     0.02  -0.06  -0.04
    86   1    -0.08  -0.04   0.03    -0.03  -0.07   0.02     0.05  -0.05   0.01
    87   1    -0.02   0.02  -0.02     0.02  -0.01  -0.01     0.07  -0.02   0.07
    88   1     0.05   0.07  -0.08     0.08   0.04  -0.05     0.05   0.03   0.11
    89   1     0.08   0.07  -0.08     0.08   0.05  -0.05     0.00   0.07   0.09
    90   1     0.04   0.02  -0.03     0.04   0.02  -0.03    -0.02   0.07   0.03
    91   1    -0.03  -0.01   0.04    -0.01  -0.02  -0.01    -0.03   0.06  -0.04
    92   1    -0.01  -0.09   0.05     0.14   0.00   0.10    -0.03   0.08   0.02
    93   1    -0.04  -0.03  -0.03     0.03  -0.00   0.05    -0.04  -0.02  -0.05
    94   1    -0.06  -0.02   0.07     0.01   0.03  -0.02    -0.04  -0.06  -0.05
    95   1    -0.07   0.04   0.05     0.05   0.04   0.00    -0.03  -0.04  -0.04
                     10                     11                     12
                      A                      A                      A
 Frequencies --     47.5059                51.3785                53.2486
 Red. masses --     10.5298                 4.1314                 4.7720
 Frc consts  --      0.0140                 0.0064                 0.0080
 IR Inten    --      0.7886                 0.1702                 0.2571
  Atom  AN      X      Y      Z        X      Y      Z        X      Y      Z
     1  17     0.31  -0.14  -0.24     0.03   0.02  -0.01     0.05  -0.01  -0.02
     2   8    -0.04  -0.02  -0.01    -0.01  -0.02   0.02    -0.00  -0.04  -0.05
     3   8    -0.04   0.11   0.01    -0.03   0.03  -0.06     0.03  -0.02   0.02
     4   8    -0.04   0.08  -0.00     0.00  -0.01  -0.04     0.01  -0.01  -0.02
     5   7    -0.02  -0.02  -0.00     0.01  -0.03   0.03    -0.02  -0.04  -0.00
     6   7     0.03  -0.05   0.03    -0.03  -0.01   0.02    -0.10   0.09   0.07
     7   6    -0.02  -0.02   0.01     0.01  -0.03   0.05    -0.04  -0.07   0.03
     8   6    -0.01  -0.00   0.01     0.00  -0.03   0.06    -0.06  -0.09   0.05
     9   6    -0.02   0.00   0.00    -0.00  -0.02   0.05    -0.03  -0.03   0.01
    10   6    -0.03  -0.00  -0.01     0.00  -0.02   0.04     0.01  -0.05  -0.06
    11   6    -0.03  -0.01  -0.01     0.01  -0.03   0.03    -0.00  -0.05  -0.04
    12   6    -0.02  -0.01   0.00    -0.01   0.00   0.05    -0.03   0.05   0.04
    13   6    -0.02  -0.00   0.00    -0.00  -0.02   0.03    -0.03  -0.00   0.01
    14   6    -0.03  -0.02   0.01     0.01   0.03   0.04    -0.02   0.14  -0.01
    15   6    -0.14  -0.04   0.01     0.27   0.10   0.04    -0.02   0.23   0.03
    16   6    -0.03  -0.03   0.00     0.03  -0.02   0.01    -0.01  -0.04  -0.01
    17   6    -0.02  -0.05   0.03     0.01  -0.01  -0.00    -0.03  -0.03  -0.01
    18   6     0.04  -0.12   0.09     0.03  -0.02   0.01    -0.05  -0.01  -0.03
    19   6     0.08  -0.16   0.14     0.01   0.01  -0.02    -0.09   0.02  -0.06
    20   6     0.05  -0.13   0.11    -0.03   0.04  -0.06    -0.09   0.03  -0.07
    21   6    -0.02  -0.05   0.04    -0.04   0.04  -0.07    -0.06   0.00  -0.04
    22   6    -0.05  -0.01  -0.01    -0.02   0.01  -0.03    -0.03  -0.03  -0.01
    23   6    -0.03  -0.01  -0.01     0.00  -0.03   0.02     0.01  -0.04  -0.05
    24   6    -0.02  -0.02   0.01    -0.00  -0.02   0.02     0.00  -0.03  -0.02
    25   6    -0.01  -0.01   0.01    -0.01  -0.02   0.02     0.02  -0.00  -0.01
    26   6    -0.02   0.02   0.01    -0.01  -0.03   0.02     0.09  -0.03  -0.05
    27   6    -0.01   0.03   0.01    -0.01  -0.03   0.02     0.10  -0.01  -0.03
    28   6     0.01   0.01   0.02    -0.03  -0.02   0.02     0.05   0.05   0.01
    29   6     0.02  -0.02   0.03    -0.03  -0.01   0.02    -0.02   0.09   0.05
    30   6     0.01  -0.03   0.02    -0.02  -0.01   0.02    -0.04   0.06   0.03
    31   6     0.01  -0.06   0.02    -0.02  -0.01   0.02    -0.11   0.05   0.05
    32   6    -0.01  -0.04   0.01    -0.01  -0.02   0.02    -0.05  -0.01   0.01
    33   6    -0.03   0.09   0.01    -0.05   0.05  -0.06     0.04  -0.03   0.02
    34   6    -0.01   0.09   0.00    -0.10   0.12  -0.08     0.06  -0.06   0.03
    35   6     0.00   0.06   0.01    -0.11   0.13  -0.07     0.07  -0.07   0.03
    36   6     0.01   0.03   0.01    -0.06   0.06  -0.04     0.04  -0.04   0.02
    37   6     0.04  -0.01   0.02    -0.06   0.05  -0.02     0.05  -0.04   0.01
    38   6     0.05  -0.04   0.02     0.01  -0.03   0.03     0.02   0.00  -0.01
    39   6     0.03  -0.03   0.02     0.06  -0.10   0.05    -0.01   0.05  -0.02
    40   6     0.00   0.01   0.01     0.05  -0.08   0.03    -0.01   0.04  -0.02
    41   6    -0.01   0.04   0.01    -0.01  -0.00  -0.01     0.02   0.00  -0.00
    42   6    -0.03   0.07   0.00    -0.01   0.01  -0.03     0.02   0.00   0.01
    43   6    -0.04   0.07   0.00     0.00  -0.00  -0.02     0.01   0.01   0.00
    44   6    -0.03   0.09  -0.00     0.01  -0.00  -0.03     0.03   0.01  -0.01
    45   6    -0.01   0.11  -0.02     0.02   0.00  -0.04     0.07   0.03  -0.03
    46   6    -0.00   0.12  -0.03     0.03   0.01  -0.03     0.08   0.04  -0.02
    47   6    -0.03   0.09  -0.01     0.02   0.00  -0.02     0.04   0.02   0.00
    48   6    -0.03   0.09  -0.02     0.02   0.00  -0.02     0.04   0.00   0.02
    49   6    -0.06   0.06   0.00     0.00  -0.01  -0.00    -0.00  -0.02   0.06
    50   6    -0.09   0.03   0.02    -0.01  -0.01   0.00    -0.04  -0.04   0.07
    51   6    -0.08   0.04   0.02    -0.01  -0.01  -0.00    -0.03  -0.03   0.05
    52   6    -0.05   0.07   0.00     0.00  -0.00  -0.02     0.01  -0.00   0.02
    53   1    -0.01  -0.03   0.03     0.01  -0.03   0.05    -0.06  -0.05   0.02
    54   1    -0.03  -0.03   0.00     0.03  -0.04   0.05    -0.01  -0.09   0.03
    55   1     0.00  -0.00   0.01    -0.01  -0.03   0.08    -0.12  -0.08   0.11
    56   1    -0.02   0.01   0.00     0.01  -0.05   0.07    -0.04  -0.17   0.05
    57   1    -0.02   0.01   0.01    -0.01  -0.02   0.06    -0.03  -0.02   0.01
    58   1    -0.03  -0.00  -0.01     0.01  -0.03   0.05     0.01  -0.11  -0.09
    59   1    -0.03   0.00  -0.01    -0.00  -0.02   0.04     0.06  -0.00  -0.09
    60   1    -0.02  -0.01  -0.01    -0.02   0.01   0.08    -0.05   0.06   0.12
    61   1    -0.01   0.01  -0.00    -0.02  -0.02   0.02    -0.04   0.00  -0.02
    62   1    -0.03   0.00   0.02     0.00  -0.02   0.03    -0.01  -0.01   0.02
    63   1     0.05  -0.01   0.01    -0.18   0.01   0.02    -0.00   0.14  -0.09
    64   1    -0.23  -0.05   0.00     0.47   0.12   0.05    -0.04   0.23   0.12
    65   1    -0.15  -0.05   0.01     0.29   0.12   0.03    -0.01   0.30  -0.01
    66   1     0.06  -0.15   0.11     0.06  -0.04   0.04    -0.05  -0.02  -0.03
    67   1     0.14  -0.22   0.20     0.02   0.00  -0.02    -0.11   0.04  -0.08
    68   1     0.09  -0.16   0.15    -0.06   0.06  -0.09    -0.12   0.06  -0.09
    69   1    -0.04  -0.02   0.01    -0.07   0.07  -0.10    -0.06   0.01  -0.04
    70   1    -0.11   0.04  -0.06    -0.02   0.02  -0.04    -0.01  -0.04   0.01
    71   1    -0.03  -0.01  -0.01     0.00  -0.03   0.01     0.02  -0.04  -0.06
    72   1    -0.04   0.04  -0.00     0.00  -0.04   0.02     0.12  -0.08  -0.08
    73   1    -0.02   0.06   0.01    -0.01  -0.04   0.02     0.16  -0.04  -0.06
    74   1     0.02   0.02   0.03    -0.03  -0.02   0.02     0.06   0.07   0.02
    75   1     0.04  -0.03   0.03    -0.04  -0.00   0.02    -0.07   0.14   0.08
    76   1     0.02  -0.08   0.03    -0.02  -0.01   0.02    -0.16   0.07   0.08
    77   1    -0.02  -0.05   0.01    -0.00  -0.02   0.02    -0.07  -0.03   0.00
    78   1    -0.03   0.03  -0.00    -0.01  -0.01   0.01     0.00   0.01  -0.05
    79   1    -0.02   0.11   0.00    -0.13   0.16  -0.11     0.08  -0.09   0.05
    80   1     0.01   0.06   0.00    -0.16   0.19  -0.10     0.09  -0.11   0.05
    81   1     0.05  -0.02   0.02    -0.10   0.11  -0.04     0.07  -0.07   0.03
    82   1     0.07  -0.08   0.03     0.01  -0.04   0.04     0.02   0.00  -0.01
    83   1     0.04  -0.05   0.02     0.11  -0.17   0.09    -0.04   0.08  -0.04
    84   1    -0.01   0.02   0.01     0.10  -0.13   0.05    -0.04   0.08  -0.03
    85   1     0.01   0.13  -0.03     0.03   0.01  -0.04     0.09   0.04  -0.04
    86   1     0.02   0.14  -0.04     0.04   0.01  -0.04     0.11   0.06  -0.04
    87   1    -0.02   0.11  -0.03     0.03   0.01  -0.02     0.07   0.02   0.01
    88   1    -0.07   0.05   0.00     0.01  -0.01   0.00    -0.01  -0.03   0.07
    89   1    -0.11   0.00   0.03    -0.02  -0.02   0.01    -0.07  -0.06   0.10
    90   1    -0.10   0.01   0.03    -0.03  -0.02   0.00    -0.05  -0.04   0.06
    91   1    -0.04   0.09   0.02     0.00  -0.01  -0.04     0.02  -0.00   0.00
    92   1     0.12  -0.06  -0.10     0.00   0.01  -0.02     0.02  -0.01  -0.01
    93   1    -0.03  -0.01  -0.01     0.02  -0.03   0.03    -0.02  -0.06  -0.05
    94   1    -0.03  -0.03   0.00     0.02  -0.02  -0.01    -0.01  -0.03  -0.01
    95   1    -0.04  -0.04  -0.00     0.05  -0.03   0.02    -0.01  -0.05  -0.01
                     13                     14                     15
                      A                      A                      A
 Frequencies --     57.6569                61.2990                73.3193
 Red. masses --      4.5995                 4.1304                 4.8432
 Frc consts  --      0.0090                 0.0091                 0.0153
 IR Inten    --      0.7619                 0.1456                 0.8778
  Atom  AN      X      Y      Z        X      Y      Z        X      Y      Z
     1  17     0.02   0.06  -0.07    -0.00  -0.05  -0.03     0.01   0.02  -0.06
     2   8     0.00  -0.02  -0.01     0.05  -0.01   0.00     0.01  -0.05   0.09
     3   8     0.01   0.01  -0.06     0.04  -0.04  -0.02    -0.01   0.02  -0.06
     4   8     0.03   0.07  -0.05     0.05   0.01   0.06     0.03   0.00  -0.06
     5   7     0.00  -0.02  -0.01    -0.01  -0.00   0.01     0.02   0.01  -0.02
     6   7    -0.02   0.01   0.01    -0.03   0.05   0.01     0.04  -0.10   0.01
     7   6     0.00  -0.02   0.01    -0.03  -0.02  -0.00     0.05   0.05  -0.04
     8   6    -0.00  -0.03   0.02    -0.02  -0.04  -0.01     0.03   0.02  -0.02
     9   6    -0.01  -0.02   0.01     0.02  -0.01  -0.03     0.04   0.05  -0.03
    10   6     0.00  -0.02   0.00     0.03  -0.02  -0.06     0.03   0.04  -0.06
    11   6     0.01  -0.02  -0.00     0.01  -0.01  -0.02    -0.02   0.03   0.01
    12   6    -0.01  -0.01   0.01     0.03   0.02   0.00     0.05   0.05  -0.01
    13   6    -0.01  -0.01  -0.00     0.02   0.01   0.02     0.03  -0.02  -0.02
    14   6    -0.01   0.01  -0.00     0.05   0.05  -0.01     0.04   0.12  -0.05
    15   6     0.06   0.02   0.00    -0.15   0.05   0.01    -0.06   0.18  -0.00
    16   6     0.01  -0.02  -0.02    -0.02  -0.00   0.03     0.02  -0.00  -0.02
    17   6     0.00  -0.01  -0.01    -0.02  -0.00   0.03     0.01   0.00  -0.00
    18   6     0.01  -0.04   0.01    -0.06   0.05  -0.02    -0.06   0.04  -0.05
    19   6     0.00  -0.03   0.01    -0.05   0.04  -0.02    -0.09   0.06  -0.04
    20   6    -0.03   0.01  -0.01     0.00  -0.02   0.03    -0.04   0.03   0.02
    21   6    -0.04   0.03  -0.03     0.05  -0.07   0.08     0.04  -0.01   0.07
    22   6    -0.02   0.02  -0.03     0.03  -0.06   0.08     0.06  -0.02   0.05
    23   6     0.01  -0.02  -0.01     0.03  -0.01  -0.00    -0.04  -0.00   0.09
    24   6     0.01  -0.02  -0.01     0.02  -0.00  -0.00    -0.06   0.01   0.09
    25   6     0.01  -0.01  -0.00     0.02   0.00  -0.00    -0.07  -0.02   0.08
    26   6     0.02  -0.02  -0.01     0.04  -0.02  -0.01    -0.13   0.01   0.11
    27   6     0.01  -0.01  -0.01     0.04  -0.02  -0.01    -0.13  -0.04   0.10
    28   6    -0.00   0.01   0.00     0.01   0.01   0.00    -0.05  -0.12   0.05
    29   6    -0.02   0.02   0.01    -0.01   0.04   0.01     0.01  -0.15   0.02
    30   6    -0.01   0.01   0.00    -0.01   0.03   0.00    -0.00  -0.09   0.03
    31   6    -0.01  -0.00   0.01    -0.02   0.03   0.01     0.02  -0.05   0.03
    32   6    -0.00  -0.01  -0.00     0.01   0.01  -0.00    -0.03   0.01   0.07
    33   6     0.01   0.01  -0.03     0.02  -0.01  -0.02    -0.00   0.00  -0.04
    34   6     0.01  -0.04  -0.01    -0.04   0.06  -0.04     0.00  -0.02  -0.03
    35   6     0.01  -0.07   0.03    -0.08   0.11  -0.04     0.01  -0.04  -0.01
    36   6     0.02  -0.03   0.04    -0.04   0.08  -0.00     0.01  -0.02  -0.01
    37   6     0.04  -0.07   0.09    -0.08   0.13   0.00     0.01  -0.03   0.00
    38   6     0.04  -0.03   0.11    -0.03   0.09   0.04     0.00  -0.00  -0.00
    39   6     0.04   0.05   0.07     0.06  -0.02   0.08    -0.01   0.03  -0.02
    40   6     0.02   0.08   0.02     0.09  -0.06   0.07    -0.01   0.03  -0.03
    41   6     0.02   0.04   0.01     0.03  -0.00   0.02     0.00   0.01  -0.02
    42   6     0.02   0.05  -0.03     0.05  -0.02   0.01     0.00   0.01  -0.03
    43   6     0.02   0.05  -0.03     0.05  -0.01   0.00     0.02   0.00  -0.03
    44   6    -0.01   0.02  -0.01     0.03   0.01   0.03     0.03  -0.00  -0.05
    45   6    -0.11  -0.09   0.05    -0.02   0.01   0.03     0.03  -0.02  -0.04
    46   6    -0.16  -0.14   0.09    -0.06  -0.01   0.01     0.03  -0.03  -0.01
    47   6    -0.10  -0.07   0.05    -0.04  -0.03  -0.02     0.03  -0.02  -0.00
    48   6    -0.13  -0.10   0.08    -0.08  -0.06  -0.04     0.02  -0.03   0.02
    49   6    -0.04  -0.01   0.02    -0.06  -0.07  -0.07     0.02  -0.02   0.04
    50   6     0.09   0.12  -0.07     0.02  -0.05  -0.09     0.01   0.00   0.03
    51   6     0.11   0.14  -0.09     0.06  -0.03  -0.07     0.01   0.01   0.00
    52   6     0.01   0.04  -0.02     0.02  -0.02  -0.03     0.02  -0.00  -0.01
    53   1    -0.00  -0.02   0.01    -0.04  -0.01   0.00     0.06   0.04  -0.11
    54   1     0.01  -0.03   0.01    -0.04  -0.02  -0.00     0.08   0.10  -0.02
    55   1    -0.01  -0.03   0.02    -0.05  -0.03   0.01    -0.01   0.03   0.01
    56   1     0.00  -0.04   0.02    -0.03  -0.07  -0.03     0.04  -0.02  -0.01
    57   1    -0.01  -0.02   0.02     0.03  -0.02  -0.05     0.05   0.06  -0.04
    58   1     0.01  -0.03   0.00     0.02  -0.05  -0.09     0.00   0.01  -0.12
    59   1     0.00  -0.02  -0.00     0.08   0.00  -0.07     0.09   0.06  -0.07
    60   1    -0.02  -0.00   0.01     0.03   0.02   0.03     0.08   0.06   0.05
    61   1    -0.00   0.00  -0.02     0.03   0.01   0.02    -0.03  -0.07  -0.03
    62   1    -0.01  -0.00  -0.00     0.02   0.01   0.04     0.10  -0.07  -0.04
    63   1    -0.06  -0.00  -0.01     0.22   0.07  -0.04     0.11   0.13  -0.11
    64   1     0.12   0.03   0.01    -0.33   0.02   0.05    -0.14   0.18   0.07
    65   1     0.07   0.03  -0.00    -0.15   0.07  -0.00    -0.08   0.24  -0.04
    66   1     0.03  -0.06   0.02    -0.11   0.10  -0.06    -0.09   0.05  -0.08
    67   1     0.01  -0.05   0.03    -0.09   0.09  -0.06    -0.15   0.09  -0.08
    68   1    -0.04   0.02  -0.02     0.01  -0.03   0.04    -0.06   0.04   0.02
    69   1    -0.06   0.06  -0.05     0.09  -0.12   0.12     0.08  -0.03   0.11
    70   1    -0.03   0.03  -0.04     0.06  -0.10   0.11     0.11  -0.04   0.08
    71   1     0.01  -0.02  -0.01     0.02   0.00   0.01    -0.06  -0.00   0.13
    72   1     0.03  -0.03  -0.02     0.06  -0.04  -0.01    -0.18   0.06   0.15
    73   1     0.02  -0.01  -0.01     0.06  -0.04  -0.01    -0.18  -0.01   0.12
    74   1    -0.01   0.02   0.01     0.01   0.02   0.00    -0.04  -0.16   0.04
    75   1    -0.03   0.03   0.01    -0.04   0.06   0.01     0.07  -0.21  -0.02
    76   1    -0.02   0.00   0.01    -0.03   0.05   0.01     0.05  -0.05   0.01
    77   1     0.00  -0.02  -0.00     0.02   0.00  -0.00    -0.03   0.03   0.08
    78   1     0.01   0.04  -0.01     0.06   0.01   0.02     0.01  -0.09   0.13
    79   1     0.00  -0.07  -0.02    -0.07   0.07  -0.06    -0.00  -0.03  -0.03
    80   1     0.01  -0.11   0.06    -0.13   0.18  -0.06     0.02  -0.06  -0.00
    81   1     0.04  -0.12   0.12    -0.14   0.21  -0.03     0.02  -0.06   0.01
    82   1     0.06  -0.06   0.14    -0.05   0.13   0.04     0.01  -0.01   0.01
    83   1     0.04   0.08   0.08     0.11  -0.06   0.11    -0.02   0.06  -0.02
    84   1     0.01   0.13  -0.01     0.16  -0.13   0.10    -0.02   0.06  -0.04
    85   1    -0.15  -0.13   0.07    -0.03   0.03   0.05     0.03  -0.03  -0.04
    86   1    -0.25  -0.24   0.15    -0.10  -0.01   0.02     0.04  -0.04  -0.01
    87   1    -0.23  -0.20   0.14    -0.14  -0.07  -0.02     0.03  -0.04   0.03
    88   1    -0.06  -0.03   0.04    -0.09  -0.09  -0.09     0.01  -0.03   0.06
    89   1     0.17   0.20  -0.12     0.05  -0.05  -0.13     0.00   0.01   0.04
    90   1     0.20   0.23  -0.15     0.12  -0.01  -0.09     0.01   0.03  -0.00
    91   1     0.04  -0.00  -0.05     0.06  -0.05  -0.02    -0.01   0.02  -0.06
    92   1     0.02   0.07  -0.04     0.04  -0.02   0.03    -0.00   0.03  -0.04
    93   1     0.01  -0.02  -0.00    -0.02  -0.02  -0.03    -0.07   0.09  -0.00
    94   1     0.02  -0.01  -0.03    -0.02  -0.01   0.06     0.02   0.01  -0.04
    95   1     0.02  -0.03  -0.02    -0.05   0.02   0.03     0.03  -0.02  -0.03
                     16                     17                     18
                      A                      A                      A
 Frequencies --     77.0748                80.6829                89.7607
 Red. masses --      4.4991                 5.0025                 4.7198
 Frc consts  --      0.0157                 0.0192                 0.0224
 IR Inten    --      3.3043                 4.1620                 1.9816
  Atom  AN      X      Y      Z        X      Y      Z        X      Y      Z
     1  17    -0.03   0.05   0.02    -0.01  -0.04   0.10    -0.02  -0.07   0.04
     2   8     0.02  -0.07  -0.01    -0.02  -0.00   0.02    -0.07  -0.00  -0.06
     3   8    -0.02  -0.02   0.11     0.05   0.02  -0.04    -0.02   0.07  -0.08
     4   8    -0.02   0.04   0.03     0.01  -0.04   0.06    -0.07  -0.06   0.01
     5   7     0.06  -0.04  -0.01    -0.04   0.01  -0.01     0.05  -0.04   0.06
     6   7    -0.01  -0.01   0.01     0.02  -0.05   0.01     0.01  -0.03  -0.00
     7   6     0.07  -0.03  -0.02    -0.03   0.03  -0.02     0.07  -0.03   0.06
     8   6     0.08  -0.02  -0.03    -0.02   0.04  -0.04     0.11   0.07   0.02
     9   6     0.09   0.01  -0.05    -0.02   0.04  -0.04     0.09   0.06   0.03
    10   6     0.08  -0.00  -0.08    -0.03   0.04  -0.05     0.01   0.06   0.03
    11   6     0.04  -0.02  -0.04    -0.06   0.03  -0.02     0.01  -0.01   0.01
    12   6     0.11   0.01  -0.02    -0.01   0.03  -0.02     0.11  -0.01   0.04
    13   6     0.09  -0.04  -0.01    -0.02   0.01  -0.01     0.09  -0.03   0.07
    14   6     0.11   0.06  -0.04    -0.00   0.04  -0.03     0.09  -0.05   0.06
    15   6    -0.11   0.08  -0.01    -0.01   0.06  -0.02    -0.05  -0.10   0.05
    16   6     0.04  -0.04   0.02    -0.05  -0.00  -0.00     0.03  -0.08   0.08
    17   6     0.03  -0.04   0.01    -0.03  -0.01  -0.02     0.03  -0.08   0.07
    18   6     0.08  -0.08   0.05     0.09  -0.09   0.07    -0.02  -0.02   0.02
    19   6     0.04  -0.04   0.01     0.12  -0.11   0.05    -0.09   0.06  -0.07
    20   6    -0.05   0.05  -0.08     0.01  -0.03  -0.07    -0.11   0.07  -0.09
    21   6    -0.09   0.08  -0.11    -0.11   0.04  -0.15    -0.04  -0.01  -0.01
    22   6    -0.04   0.03  -0.06    -0.12   0.04  -0.12     0.03  -0.08   0.07
    23   6     0.02  -0.04  -0.01    -0.06   0.02   0.01    -0.03  -0.02  -0.05
    24   6     0.00  -0.03   0.00    -0.06   0.02   0.01    -0.03  -0.01  -0.04
    25   6    -0.00  -0.02   0.00    -0.04   0.01   0.01    -0.01  -0.00  -0.04
    26   6    -0.00  -0.02   0.00    -0.06   0.04   0.02    -0.00   0.03  -0.05
    27   6    -0.00  -0.01   0.00    -0.05   0.03   0.02     0.00   0.05  -0.04
    28   6    -0.00  -0.01   0.01     0.00  -0.02   0.01     0.02   0.05  -0.02
    29   6    -0.00  -0.01   0.01     0.03  -0.05   0.01     0.02   0.02  -0.00
    30   6    -0.01  -0.02   0.01     0.01  -0.03   0.01     0.01  -0.01  -0.01
    31   6    -0.01  -0.02   0.01    -0.01  -0.03   0.01    -0.01  -0.04  -0.01
    32   6    -0.00  -0.03   0.01    -0.05   0.00   0.02    -0.03  -0.03  -0.03
    33   6    -0.02   0.00   0.07     0.06  -0.01  -0.02    -0.02   0.05  -0.06
    34   6    -0.01   0.04   0.05     0.04  -0.03  -0.00    -0.02   0.02  -0.04
    35   6    -0.01   0.05   0.01     0.03  -0.02   0.02    -0.01  -0.01  -0.01
    36   6    -0.02   0.02   0.00     0.03   0.02   0.02     0.00   0.00   0.00
    37   6    -0.00   0.00  -0.03    -0.00   0.07   0.04     0.02  -0.03   0.04
    38   6    -0.00  -0.05  -0.04     0.00   0.11   0.04     0.03  -0.01   0.05
    39   6    -0.02  -0.08  -0.01     0.04   0.09   0.05     0.01   0.05   0.02
    40   6    -0.04  -0.07   0.01     0.08   0.03   0.04    -0.00   0.08  -0.02
    41   6    -0.03  -0.02   0.02     0.07   0.01   0.02    -0.00   0.04  -0.02
    42   6    -0.04  -0.01   0.05     0.08  -0.00  -0.00    -0.00   0.05  -0.05
    43   6    -0.06  -0.01   0.05     0.08   0.01  -0.01     0.01   0.05  -0.04
    44   6    -0.05   0.01   0.05     0.05  -0.00   0.02    -0.02  -0.00  -0.03
    45   6    -0.07   0.01   0.05     0.05   0.04  -0.00     0.01   0.02  -0.04
    46   6    -0.07   0.01   0.04     0.03   0.03  -0.02     0.02   0.03  -0.04
    47   6    -0.05   0.03   0.02     0.02  -0.00  -0.02     0.01   0.02  -0.02
    48   6    -0.01   0.07  -0.03    -0.05  -0.06  -0.01    -0.04  -0.02   0.02
    49   6     0.03   0.10  -0.06    -0.08  -0.11  -0.01    -0.07  -0.04   0.05
    50   6     0.01   0.06  -0.04    -0.02  -0.09  -0.03    -0.05  -0.00   0.03
    51   6    -0.03   0.01   0.01     0.05  -0.03  -0.04    -0.00   0.04  -0.01
    52   6    -0.06   0.00   0.03     0.06  -0.00  -0.03     0.01   0.04  -0.03
    53   1     0.08  -0.03  -0.02    -0.02   0.01  -0.01     0.10  -0.05   0.12
    54   1     0.06  -0.02  -0.02    -0.05   0.03  -0.02     0.01  -0.06   0.04
    55   1     0.08  -0.01  -0.01    -0.01   0.04  -0.04     0.21   0.07   0.02
    56   1     0.07  -0.03  -0.05    -0.03   0.05  -0.05     0.08   0.14  -0.00
    57   1     0.11   0.03  -0.06    -0.01   0.05  -0.05     0.11   0.10   0.02
    58   1     0.06  -0.02  -0.13    -0.05   0.03  -0.07     0.01   0.12   0.05
    59   1     0.12   0.03  -0.10    -0.01   0.04  -0.05    -0.04   0.06   0.03
    60   1     0.14   0.02   0.02     0.01   0.03  -0.01     0.16  -0.01   0.01
    61   1     0.06  -0.06  -0.01    -0.03  -0.00  -0.00     0.09  -0.02   0.07
[...]
 0908,-0.00005754,0.00002470,-0.00001176,-0.00002441,-0.00003375,-0.052
 35496,-0.07189118,-0.05808900,0.00716431,0.00784956,0.01289975,-0.0001
 7095,-0.00155161,0.00099503,-0.00025381,-0.00019991,0.00061907,0.00015
 774,0.00038969,0.00029199,-0.00014270,0.00004476,-0.00068341,0.0003973
 1,-0.00135351,0.00220684,-0.00055326,0.00007982,0.00174001,-0.00007152
 ,-0.00011832,-0.00008081,0.00000358,0.00008450,-0.00003459,-0.00009122
 ,-0.00006286,0.00000348,0.00000546,0.00006885,-0.00004561,-0.00002039,
 0.00000461,0.00000961,-0.00000021,0.00001261,-0.00001995,0.00000562,0.
 00002064,0.00000432,0.00002455,-0.00008794,0.00002021,-0.00000680,0.00
 009192,-0.00009391,0.00053387,0.00050292,-0.00078681,-0.00021047,-0.00
 006991,0.00033835,0.00006518,0.00017295,-0.00014165,-0.00001878,-0.000
 17028,-0.00007189,0.00001110,0.00006254,-0.00005373,-0.00000374,-0.000
 03816,-0.00004096,-0.00001229,0.00002477,0.00001783,0.00003105,0.00005
 729,-0.00003405,0.00000683,-0.00014460,-0.00005604,0.00005421,0.000183
 83,0.00056853,0.00165668,-0.00002201,-0.00021604,-0.00627424,-0.000871
 08,-0.00207577,0.00084299,0.00040536,0.00133915,-0.00059904,-0.0000613
 6,0.00003264,0.00042234,0.00009514,0.00029823,-0.00031198,-0.00006791,
 -0.00014444,0.00020398,-0.00000822,-0.00003708,-0.00001428,0.00000909,
 0.00003579,0.00016425,0.00000312,0.00002560,-0.00054292,-0.00014036,-0
 .00055302,-0.00000963,0.00008129,-0.00004794,0.00002273,-0.00007653,-0
 .00001105,0.00001253,0.00002784,-0.00002957,0.00002713,-0.00002483,-0.
 00003176,-0.00001108,-0.00002445,0.00001563,0.00003934,-0.00003380,-0.
 00001341,0.00004604,0.00004548,0.00003825,-0.00000405,0.00001478,-0.00
 000384,0.00064107,0.00001288,-0.00019733,0.00012986,0.00003974,0.00000
 442,0.00002686,0.00003742,-0.00000500,0.00000121,0.00001853,-0.0000095
 5,0.00001570,0.00001004,0.00001406,0.00002573,-0.00008854,-0.00009644,
 -0.00001075,-0.00009012,0.00008086,0.00001877,0.00000812,-0.00006408,0
 .00004098,0.00003181,0.00003082,0.00018202,-0.00123830,0.00062281,0.00
 070590,-0.00134447,0.00330015,0.00006825,-0.00008479,0.00006009,0.0000
 3317,0.00000102,-0.00001815,0.00001817,-0.00000586,-0.00000963,0.00000
 732,-0.00002143,0.00002034,-0.00000165,0.00000529,0.00002959,0.0000012
 3,0.00004461,0.00002926,0.00042601,0.00058888,-0.00023520,0.00008123,0
 .00004131,-0.00003105,0.00000622,0.00001106,0.00004206,0.00000801,0.00
 000830,0.00002320,0.00000058,-0.00001203,0.00001096,-0.00000013,-0.000
 02113,-0.00000667,-0.00002867,-0.00003232,0.00004916,0.00003824,0.0000
 3252,-0.00001455,0.00005159,0.00001501,-0.00000294,0.00000848,0.000000
 04,-0.00001571,-0.00003043,-0.00000684,-0.00002931,-0.00001868,0.00000
 758,0.00001394,0.00000217,0.00001560,0.00003932,0.00004719,0.00020486,
 0.00001558,0.00044409,-0.00055177,0.00000231,-0.00005283,-0.00010988,-
 0.00007036,0.06181555,0.08806440,-0.00031398,0.00015442,-0.00022660,-0
 .00045779,-0.00062050,-0.00004224,0.00097946,-0.00029645,-0.00085622,0
 .00422328,-0.00306402,-0.00355904,0.00795518,0.00446723,0.01004929,-0.
 00001657,-0.00004361,-0.00000951,0.00151878,-0.00021506,-0.00238027,0.
 00028008,0.00020850,0.00069495,0.00002594,0.00001617,0.00010092,-0.000
 16678,0.00018180,-0.00036099,0.00060344,-0.00081486,0.00132731,-0.0000
 8614,-0.00006715,-0.00007948,-0.00005304,0.00082250,0.00040013,0.00003
 521,-0.00002442,0.00004141,-0.00002366,-0.00001979,-0.00009217,-0.0915
 4832,-0.05798240,-0.12847308,-0.01605128,0.00143815,-0.03037241,-0.000
 42464,0.00121192,-0.00102051,0.00027596,-0.00029944,-0.00025160,-0.000
 02510,-0.00007280,0.00002529,0.00004449,-0.00028886,0.00009506,-0.0003
 5766,0.00171718,-0.00126225,0.00148861,0.00149915,-0.00109163,-0.00034
 568,-0.00007974,-0.00013771,0.00000604,-0.00002265,0.00003078,-0.00011
 338,-0.00003011,-0.00008513,-0.00001518,-0.00001418,-0.00001922,-0.000
 00332,-0.00000343,-0.00001561,-0.00000977,-0.00000365,-0.00001098,0.00
 003080,0.00002012,-0.00000030,0.00001816,0.00004782,0.00001502,-0.0000
 2509,-0.00008838,0.00002130,-0.00051993,-0.00070573,0.00036587,-0.0003
 0791,0.00004703,0.00014731,0.00007541,0.00020675,-0.00018791,-0.000006
 93,-0.00017472,-0.00014366,-0.00001281,0.00007946,-0.00005892,-0.00000
 744,-0.00004995,-0.00007812,-0.00003444,0.00001333,0.00004135,0.000020
 86,0.00011879,-0.00007648,-0.00000574,-0.00020219,0.00002277,0.0000432
 2,0.00053589,0.00059243,0.00204857,0.00018060,-0.00039934,-0.00757108,
 -0.00105136,-0.00265252,0.00094804,0.00055083,0.00155903,-0.00075389,-
 0.00013690,0.00000971,0.00055253,0.00013873,0.00034945,-0.00040252,-0.
 00007536,-0.00018906,0.00026481,-0.00000441,-0.00006271,-0.00001289,0.
 00002145,0.00006142,0.00017886,0.00002569,0.00001510,-0.00064392,-0.00
 024627,-0.00066265,-0.00001607,0.00013457,-0.00012921,0.00002691,-0.00
 014186,-0.00004784,0.00008272,0.00006431,-0.00011139,0.00009243,-0.000
 05821,-0.00005830,-0.00003870,0.00000678,-0.00000047,0.00005022,-0.000
 03743,0.00000270,0.00009291,0.00005625,0.00005754,0.00000045,0.0000340
 0,-0.00001845,0.00084400,-0.00016536,0.00017570,-0.00004228,0.00007833
 ,-0.00005513,0.00009501,-0.00001582,0.00001332,-0.00001097,0.00002300,
 -0.00000552,0.00001814,0.00000070,0.00002551,-0.00003741,0.00000801,0.
 00001376,0.00003242,-0.00000366,-0.00008731,-0.00001907,0.00006061,-0.
 00006598,0.00003858,0.00007758,0.00009970,0.00007582,0.00089520,0.0002
 6415,-0.00071986,0.00284186,-0.00307317,0.00010409,0.00001254,0.000142
 63,0.00002782,-0.00000549,0.00003274,0.00001106,0.00000933,0.00000862,
 0.00001258,0.00000404,0.00000284,0.00001616,-0.00000209,0.00000478,0.0
 0004551,0.00002048,0.00000188,0.00038632,0.00029265,-0.00032858,0.0001
 4225,0.00000878,0.00001030,0.00004020,0.00001306,0.00003986,0.00002605
 ,0.00000605,0.00002634,0.00001186,-0.00001484,0.00001369,0.00001383,-0
 .00001884,-0.00000258,-0.00000538,-0.00005277,0.00008230,0.00005134,-0
 .00002076,-0.00001302,0.00005510,0.00000771,-0.00000633,0.00001008,-0.
 00000727,-0.00001754,-0.00003848,-0.00001457,-0.00003512,-0.00002459,0
 .00000332,0.00001980,0.00000183,0.00000421,0.00005993,-0.00055578,0.00
 032067,-0.00011553,0.00054286,-0.00061786,0.00027558,-0.00001686,-0.00
 004422,-0.00011368,0.10181430,0.05973620,0.16590894,0.00003958,-0.0000
 2268,-0.00005060,-0.00000729,0.00006630,0.00001813,0.00061846,0.000401
 75,0.00027869,-0.00071197,-0.00035900,-0.00079632,-0.02367828,0.026141
 07,0.01778271,-0.00001326,0.00000344,0.00002114,-0.00151297,0.00067323
 ,0.00032200,-0.00000248,-0.00003871,-0.00002912,0.00009086,0.00008401,
 0.00002262,-0.00003257,0.00002863,-0.00009634,-0.00087509,-0.00000236,
 0.00169554,0.00005692,0.00090804,0.00024325,-0.00257378,-0.00240185,0.
 00078058,-0.00019347,-0.00003365,0.00001441,0.00000557,0.00000654,0.00
 004565,-0.05357393,0.05673095,0.01073400,0.00345833,0.00722017,-0.0010
 3269,-0.00009891,0.00010883,-0.00044093,-0.00000031,-0.00014820,0.0000
 9725,0.00002890,-0.00000540,0.00007569,-0.00017507,0.00015753,0.000211
 83,0.00046694,0.00027314,-0.00048770,0.00009405,-0.00000413,0.00002873
 ,-0.00001739,-0.00004318,-0.00002059,0.00000720,-0.00006578,0.00000153
 ,0.00004159,0.00018628,-0.00005347,-0.00001684,-0.00004420,0.00004137,
 -0.00000065,-0.00000748,0.00000747,-0.00001247,-0.00001566,0.00002213,
 0.00000464,-0.00003347,0.00002240,0.00000201,0.00000868,-0.00000657,-0
 .00001963,0.00001493,0.00002074,-0.00016545,-0.00028068,0.00024165,0.0
 0014171,0.00001588,-0.00009156,-0.00004739,-0.00001614,0.00003572,0.00
 000408,0.00004055,-0.00001774,-0.00002086,-0.00000143,0.00002203,-0.00
 000379,0.00001887,-0.00000135,-0.00000383,0.00000791,-0.00000532,-0.00
 000552,-0.00000091,-0.00001356,-0.00001704,0.00000126,0.00004113,0.000
 01953,0.00002138,-0.00011869,-0.00022224,0.00005328,0.00003250,0.00070
 260,0.00015591,0.00036297,-0.00009424,-0.00005003,-0.00018373,0.000105
 13,0.00001169,0.00001059,-0.00008106,-0.00000523,-0.00002170,0.0000554
 5,0.00001214,0.00002159,-0.00003493,0.00000751,0.00001989,-0.00000373,
 -0.00000538,-0.00002071,0.00000392,0.00000669,0.00000019,0.00003079,0.
 00000102,0.00006136,-0.00004087,-0.00000854,0.00005806,-0.00093009,-0.
 00050635,-0.00023750,0.00001578,0.00001633,-0.00000496,0.00001390,-0.0
 0001318,-0.00000770,-0.00000143,0.00000248,-0.00001551,0.00001567,-0.0
 0001228,-0.00000072,0.00001322,0.00001364,-0.00000133,-0.00006850,-0.0
 0003487,0.00006080,-0.00015168,-0.00001163,0.00002448,-0.00013111,-0.0
 0008723,0.00007268,-0.00000438,0.00000498,-0.00001022,0.00000578,-0.00
 001212,0.00000941,0.00000411,0.00001565,-0.00001484,-0.00001277,-0.000
 14690,-0.00031050,0.00000687,-0.00003848,-0.00001644,0.00002552,0.0000
 3356,-0.00005518,0.00001050,0.00004712,0.00000092,0.00005559,0.0000810
 5,0.00007676,0.00002567,-0.00005617,-0.00003749,-0.00018797,0.00025784
 ,-0.00034356,-0.00001600,0.00004020,-0.00000872,-0.00000459,-0.0000000
 6,0.00001090,-0.00000082,0.00001903,-0.00000808,0.00000473,0.00000634,
 -0.00001372,0.00000497,-0.00001519,0.00000014,-0.00003421,-0.00004733,
 0.00004644,0.00000209,-0.00002353,0.00000158,0.00000932,-0.00000233,0.
 00001399,0.00000968,-0.00000278,0.00000565,0.00000478,-0.00000270,0.00
 000637,0.00000561,-0.00000447,-0.00000095,0.00001170,0.00000128,-0.000
 00748,-0.00000258,-0.00000683,0.00000436,-0.00000442,-0.00000364,-0.00
 000102,-0.00000063,-0.00000181,0.00000045,0.00000222,-0.00000070,0.000
 00298,0.00000025,-0.00000221,-0.00000063,-0.00000414,-0.00000565,-0.00
 000884,0.00003938,-0.00001319,-0.00001681,-0.00001918,0.00003385,0.000
 06883,-0.00039695,-0.00055376,0.00049677,0.00568936,-0.01147978,-0.004
 53839,0.07427375,0.00001487,0.00000284,-0.00000865,0.00000748,-0.00001
 106,0.00006266,0.00024903,-0.00010735,0.00003371,0.00002719,0.00012418
 ,0.00002241,0.00698340,0.00090070,-0.00419708,0.00001398,-0.00002779,-
 0.00001442,0.00026075,0.00035684,0.00058773,-0.00002495,-0.00004360,-0
 .00007704,-0.00001342,0.00001011,0.00000711,0.00002939,-0.00009980,0.0
 0003628,-0.00032088,0.00084490,-0.00022018,0.00003606,0.00026309,0.000
 06923,-0.00045533,-0.00055807,0.00013935,-0.00006118,-0.00001035,0.000
 00067,-0.00000037,0.00000440,0.00002581,0.06579757,-0.24026963,-0.0514
 7065,0.00583470,-0.02788100,0.00844902,0.00034666,0.00009141,0.0006460
 8,-0.00016192,0.00005934,-0.00019562,-0.00003289,-0.00009834,-0.000106
 16,-0.00038514,-0.00027002,0.00017105,0.00050315,-0.00038062,0.0013000
 2,-0.00004312,-0.00001227,-0.00010210,0.00000061,0.00006254,0.00004908
 ,0.00000523,-0.00000230,0.00004031,-0.00013884,-0.00023142,-0.00000328
 ,0.00000711,-0.00000584,-0.00001547,0.00000590,-0.00000369,-0.00001332
 ,0.00001224,0.00001181,-0.00002279,-0.00000544,0.00004445,-0.00001450,
 -0.00000466,0.00001196,0.00000361,0.00002620,-0.00004288,-0.00000180,-
 0.00008838,-0.00008824,0.00003703,0.00003243,-0.00000311,0.00001861,0.
 00000010,-0.00000245,-0.00000823,-0.00000151,-0.00001415,-0.00001242,0
 .00000284,0.00000434,0.00000292,0.00000174,-0.00000166,-0.00000913,-0.
 00000249,-0.00000054,0.00000726,0.00000533,0.00001209,-0.00000614,-0.0
 0000932,-0.00002797,0.00002477,-0.00000377,0.00002701,-0.00002447,0.00
 004846,0.00000447,0.00000217,-0.00009260,-0.00003445,-0.00006572,0.000
 00560,0.00000411,0.00002077,-0.00000604,-0.00000197,-0.00000069,0.0000
 0790,0.00000379,0.00001723,-0.00000632,-0.00000203,-0.00000432,0.00000
 563,-0.00000053,0.00000283,-0.00000126,-0.00000199,-0.00000331,0.00001
 382,-0.00000214,0.00000397,-0.00003174,-0.00000760,-0.00002091,-0.0000
 1886,-0.00007804,0.00003039,0.00001331,0.00002582,-0.00003564,-0.00001
 001,-0.00001282,0.00002225,-0.00002454,0.00002001,0.00001445,0.0000086
 1,0.00000636,-0.00000290,-0.00003243,0.00002100,0.00001480,-0.00001703
 ,-0.00000323,-0.00001596,-0.00001403,-0.00001610,0.00001540,-0.0000924
 5,0.00000760,0.00001425,-0.00008742,-0.00001543,0.00003535,-0.00000333
 ,0.00000379,-0.00000690,0.00000654,-0.00000577,0.00000484,-0.00000008,
 0.00000449,-0.00001173,0.00019161,-0.00004514,0.00035198,0.00001456,0.
 00003710,-0.00002596,0.00004615,-0.00000984,0.00000624,0.00000588,-0.0
 0002417,0.00006209,0.00009629,0.00007837,0.00000533,-0.00001433,0.0000
 1933,-0.00011621,0.00027024,0.00003423,0.00019572,0.00003264,-0.000025
 05,0.00001691,0.00000680,0.00000247,-0.00000332,0.00000257,-0.00001426
 ,0.00000632,-0.00000339,-0.00000746,0.00001033,-0.00000581,0.00001776,
 -0.00000571,-0.00002032,-0.00002487,-0.00001856,-0.00001852,0.00004099
 ,-0.00000154,-0.00000239,0.00000739,0.00000490,-0.00000163,0.00000195,
 0.00000214,-0.00000158,-0.00000182,0.00000242,-0.00000053,-0.00000219,
 -0.00000125,-0.00000024,-0.00000075,-0.00000194,-0.00000200,0.00000026
 ,-0.00000039,0.00000051,0.00000062,-0.00000204,0.00000025,0.00000057,-
 0.00000112,-0.00000173,0.00000036,-0.00000167,-0.00000180,0.00000151,0
 .00000094,-0.00000229,0.00000311,-0.00000003,-0.00006371,0.00003279,-0
 .00003230,-0.00000944,0.00000514,0.00001446,-0.00019770,-0.00020826,0.
 00019254,-0.00118034,-0.01685416,-0.01050444,-0.07726177,0.28437682,-0
 .00001577,-0.00002116,0.00001080,-0.00009165,0.00022874,0.00007641,0.0
 0055900,0.00018980,-0.00002361,-0.00024710,-0.00004561,-0.00030316,0.0
 1338819,-0.01259491,-0.00440746,-0.00000501,-0.00002890,0.00002340,-0.
 00019945,0.00001883,0.00023941,-0.00004206,-0.00000617,-0.00006517,-0.
 00001040,-0.00005897,0.00003680,-0.00002365,0.00005964,-0.00005005,0.0
 0158695,-0.00020357,-0.00151296,-0.00000786,-0.00039853,-0.00007924,0.
 00127503,0.00103284,-0.00024072,0.00009866,0.00002842,0.00000041,-0.00
 000527,-0.00000280,-0.00003979,0.01452653,-0.05205128,-0.05017753,-0.0
 0520227,0.02550467,0.00056168,-0.00029635,0.00118875,-0.00131844,0.000
 14251,-0.00019624,0.00019599,0.00000856,0.00015711,0.00011087,0.000614
 91,0.00041447,-0.00014264,-0.00044372,0.00074296,-0.00212962,0.0000753
 7,-0.00017115,-0.00026605,-0.00002177,0.00003032,-0.00002809,0.0000014
 0,-0.00005653,-0.00000794,0.00008261,0.00014145,-0.00005093,-0.0000353
 0,-0.00006344,0.00003135,0.00001448,-0.00000241,-0.00002544,-0.0000079
 7,-0.00000725,0.00001139,0.00000720,-0.00001456,0.00000201,-0.00000577
 ,0.00004389,-0.00000871,-0.00001273,-0.00004444,0.00004548,-0.00012152
 ,-0.00022401,0.00020581,-0.00004342,0.00002312,-0.00001484,0.00001106,
 0.00001207,-0.00001174,0.00000132,-0.00001475,-0.00001462,0.00000361,0
 .00000433,0.00000004,0.00000316,-0.00000584,-0.00001177,-0.00000292,-0
 .00000611,0.00001277,0.00000598,0.00001787,-0.00000564,-0.00001702,-0.
 00002602,0.00003568,0.00002426,0.00005838,-0.00006153,-0.00004694,0.00
 001718,0.00000241,0.00017927,0.00000629,0.00006620,-0.00003188,0.00000
 241,-0.00005264,0.00002435,0.00000144,0.00000024,-0.00001730,0.0000013
 6,-0.00000257,0.00001095,0.00000296,0.00000361,-0.00000639,0.00000223,
 0.00000393,-0.00000057,-0.00000120,-0.00000511,0.00000233,0.00000254,0
 .00000016,0.00000283,-0.00000357,0.00001040,-0.00002893,0.00003011,-0.
 00006123,-0.00016611,-0.00013996,0.00000040,-0.00000390,0.00000034,-0.
 00001138,0.00000292,-0.00000206,0.00000781,-0.00001396,0.00000973,-0.0
 0001460,-0.00000760,0.00000848,0.00001130,-0.00000786,-0.00001337,0.00
 000717,0.00004547,0.00002617,-0.00003795,0.00006825,0.00001344,0.00010
 345,0.00000678,0.00007497,-0.00006135,0.00001691,-0.00002076,0.0000128
 3,-0.00000715,0.00000676,-0.00000343,-0.00000094,-0.00000980,0.0000115
 0,-0.00029886,-0.00015686,-0.00068291,-0.00001544,-0.00000795,0.000014
 43,-0.00004798,-0.00001801,0.00001952,-0.00001036,0.00004768,-0.000111
 19,-0.00009582,-0.00005110,-0.00009570,-0.00007413,-0.00004433,-0.0003
 5893,-0.00052872,0.00060471,-0.00052854,-0.00000467,-0.00000533,0.0000
 4110,-0.00000393,0.00000373,0.00001229,0.00000156,0.00001378,-0.000009
 25,0.00000569,-0.00000060,-0.00001126,0.00001272,-0.00001813,-0.000006
 99,-0.00002895,-0.00010375,0.00003198,-0.00000033,0.00000731,0.0000250
 4,0.00000576,0.00000755,-0.00000122,-0.00000149,0.00000215,0.00000031,
 -0.00000174,-0.00000092,0.00000066,-0.00000074,0.00000036,-0.00000074,
 0.00000034,-0.00000018,-0.00000290,0.00000185,-0.00000720,0.00000289,-
 0.00000122,-0.00000285,-0.00000073,-0.00000008,-0.00000106,0.00000007,
 0.00000010,-0.00000062,0.00000038,-0.00000050,-0.00000058,0.00000038,-
 0.00000106,-0.00000123,-0.00000027,-0.00006368,-0.00000685,-0.00001372
 ,0.00001712,0.00001871,-0.00000020,0.00064022,0.00071428,-0.00050374,0
 .00005177,-0.01926340,-0.00410512,-0.02514972,0.05460213,0.06569053\\0
 .00000040,0.00000083,-0.00000144,-0.00000089,-0.00000365,0.00001669,0.
 00000159,-0.00000195,0.00000099,0.00001538,0.00000452,-0.00000581,-0.0
 0000086,0.00000222,0.00000133,-0.00000072,0.00000136,0.00000127,0.0000
 0198,0.00000225,-0.00000141,-0.00000133,-0.00000237,-0.00000085,-0.000
 00244,-0.00000453,0.00000037,0.00000083,0.00000024,0.00000103,-0.00000
 068,0.00000064,0.00000064,0.00000037,0.00000624,-0.00000066,0.00000233
 ,-0.00000208,0.00000012,0.00000054,0.00000128,0.00000131,-0.00000079,-
 0.00000087,0.00000042,0.00001118,0.00000061,-0.00000497,-0.00000091,-0
 .00000143,0.00000147,0.00000052,-0.00000029,0.00000045,0.00000042,0.00
 000162,-0.00000001,-0.00000072,-0.00000154,-0.00000047,0.00000076,0.00
 000097,0.00000125,-0.00000033,0.00000081,0.00000030,0.00000205,-0.0000
 0063,-0.00000146,0.00000039,-0.00000234,0.00000021,-0.00000047,-0.0000
 0018,-0.00000006,-0.00000145,0.00000099,0.00000201,0.00000077,-0.00000
 094,0.00000015,0.00000023,0.00000035,-0.00000097,-0.00000103,0.0000006
 5,0.00000105,0.00000198,0.00000060,-0.00000145,-0.00000178,-0.00000296
 ,-0.00000123,0.00000078,0.00000139,-0.00000082,-0.00000233,-0.00000289
 ,-0.00000058,-0.00000013,0.00000004,0.00000155,0.00000053,0.00000182,0
 .00000074,-0.00000061,-0.00000097,-0.00000070,-0.00000012,0.00000042,0
 .00000069,0.00000012,-0.00000038,-0.00000050,-0.00000060,-0.00000117,0
 .00000108,0.00000001,-0.00000070,-0.00000113,-0.00000139,-0.00000271,0
 .00000440,0.00000396,0.00000933,-0.00000219,-0.00000021,-0.00000030,-0
 .00000046,0.00000008,-0.00000357,0.00000417,0.00000030,-0.00000179,-0.
 00000107,-0.00000003,0.00000057,0.00000108,-0.00000040,-0.00000086,-0.
 00000103,0.00000097,0.00000046,0.00000042,-0.00000041,0.00000039,0.000
 00132,-0.00000027,-0.00000034,-0.00000142,-0.00000042,-0.00000014,0.00
 000033,-0.00000121,0.00000060,-0.00000195,-0.00000016,-0.00000089,-0.0
 0000020,0.00000008,-0.00000092,-0.00000050,-0.00000068,0.00000003,0.00
 000022,-0.00000012,0.00000092,-0.00000134,-0.00000017,-0.00000044,0.00
 000056,-0.00000061,-0.00000133,0.00000092,0.00000080,-0.00000097,0.000
 00002,0.00000077,0.00000036,-0.00000010,0.00000034,0.00000037,0.000000
 34,-0.00000012,-0.00000068,-0.00000069,-0.00000013,0.00000124,0.000000
 35,0.00000117,-0.00000009,0.00000041,0.00000003,-0.00000014,-0.0000002
 2,-0.00000013,0.00000050,-0.00000044,-0.00000017,-0.00000052,0.0000003
 9,0.00000068,0.00000038,0.00000041,-0.00000036,-0.00000013,-0.00000053
 ,0.00000009,0.00000009,-0.00000138,0.00000019,-0.00000126,-0.00000057,
 0.00000029,0.00000012,0.00000047,-0.00000069,0.00000007,-0.00000027,0.
 00000020,-0.00000003,0.00000026,0.00000012,-0.00000003,-0.00000010,0.0
 0000039,0.00000068,0.00000037,0.00000067,-0.00000033,0.00000078,-0.000
 00596,0.00000023,-0.00002101,0.00000007,0.00000032,-0.00000044,-0.0000
 0041,-0.00000028,-0.00000014,-0.00000008,0.00000008,0.00000001,-0.0000
 0006,-0.00000010,-0.00000003,-0.00000016,-0.00000006,0.,-0.00000010,-0
 .00000086,-0.00000020,-0.00000003,-0.00000005,0.00000122,-0.00000007,-
 0.00000017,-0.00000020,-0.00000047,-0.00000008,-0.00000011,0.00000018,
 -0.00000006,-0.00000051,0.00000010,-0.00000003,0.00000050,-0.00000032,
 -0.00000003,-0.00000006,-0.00000112,0.00000015,-0.00000071,-0.00000325
 ,-0.00000023,-0.00000155,-0.00000003,-0.00000132,0.00000009,-0.0000165
 9,0.00000625,0.00000967,-0.00000007,-0.00000040,0.00000010\\\@


 DO YOU KNOW THAT THE LETTERS IN "EPISCOPAL", WHEN
 REARRANGED, SPELL "PEPSI COLA"?
 Job cpu time:       0 days  0 hours  0 minutes 33.8 seconds.
 File lengths (MBytes):  RWF=   2598 Int=      0 D2E=      0 Chk=      7 Scr=      2
 Normal termination of Gaussian 09 at Mon Apr 18 12:40:17 2022.
