 Entering Gaussian System, Link 0=/home/tjiang/softs/gaussian/g16-avx/g16/g16
 Initial command:
 /home/tjiang/softs/gaussian/g16-avx/g16/l1.exe "/dev/shm/edumont/8178217/Gau-45953.inp" -scrdir="/dev/shm/edumont/8178217/"
 Entering Link 1 = /home/tjiang/softs/gaussian/g16-avx/g16/l1.exe PID=     45955.
  
 Copyright (c) 1988-2017, Gaussian, Inc.  All Rights Reserved.
  
 This is part of the Gaussian(R) 16 program.  It is based on
 the Gaussian(R) 09 system (copyright 2009, Gaussian, Inc.),
 the Gaussian(R) 03 system (copyright 2003, Gaussian, Inc.),
 the Gaussian(R) 98 system (copyright 1998, Gaussian, Inc.),
 the Gaussian(R) 94 system (copyright 1995, Gaussian, Inc.),
 the Gaussian 92(TM) system (copyright 1992, Gaussian, Inc.),
 the Gaussian 90(TM) system (copyright 1990, Gaussian, Inc.),
 the Gaussian 88(TM) system (copyright 1988, Gaussian, Inc.),
 the Gaussian 86(TM) system (copyright 1986, Carnegie Mellon
 University), and the Gaussian 82(TM) system (copyright 1983,
 Carnegie Mellon University). Gaussian is a federally registered
 trademark of Gaussian, Inc.
  
 This software contains proprietary and confidential information,
 including trade secrets, belonging to Gaussian, Inc.
  
 This software is provided under written license and may be
 used, copied, transmitted, or stored only in accord with that
 written license.
  
 The following legend is applicable only to US Government
 contracts under FAR:
  
                    RESTRICTED RIGHTS LEGEND
  
 Use, reproduction and disclosure by the US Government is
 subject to restrictions as set forth in subparagraphs (a)
 and (c) of the Commercial Computer Software - Restricted
 Rights clause in FAR 52.227-19.
  
 Gaussian, Inc.
 340 Quinnipiac St., Bldg. 40, Wallingford CT 06492
  
  
 ---------------------------------------------------------------
 Warning -- This program may not be used in any manner that
 competes with the business of Gaussian, Inc. or will provide
 assistance to any competitor of Gaussian, Inc.  The licensee
 of this program is prohibited from giving any competitor of
 Gaussian, Inc. access to this program.  By using this program,
 the user acknowledges that Gaussian, Inc. is engaged in the
 business of creating and licensing software in the field of
 computational chemistry and represents and warrants to the
 licensee that it is not a competitor of Gaussian, Inc. and that
 it will not use this program in any manner prohibited above.
 ---------------------------------------------------------------
  

 Cite this work as:
 Gaussian 16, Revision B.01,
 M. J. Frisch, G. W. Trucks, H. B. Schlegel, G. E. Scuseria, 
 M. A. Robb, J. R. Cheeseman, G. Scalmani, V. Barone, 
 G. A. Petersson, H. Nakatsuji, X. Li, M. Caricato, A. V. Marenich, 
 J. Bloino, B. G. Janesko, R. Gomperts, B. Mennucci, H. P. Hratchian, 
 J. V. Ortiz, A. F. Izmaylov, J. L. Sonnenberg, D. Williams-Young, 
 F. Ding, F. Lipparini, F. Egidi, J. Goings, B. Peng, A. Petrone, 
 T. Henderson, D. Ranasinghe, V. G. Zakrzewski, J. Gao, N. Rega, 
 G. Zheng, W. Liang, M. Hada, M. Ehara, K. Toyota, R. Fukuda, 
 J. Hasegawa, M. Ishida, T. Nakajima, Y. Honda, O. Kitao, H. Nakai, 
 T. Vreven, K. Throssell, J. A. Montgomery, Jr., J. E. Peralta, 
 F. Ogliaro, M. J. Bearpark, J. J. Heyd, E. N. Brothers, K. N. Kudin, 
 V. N. Staroverov, T. A. Keith, R. Kobayashi, J. Normand, 
 K. Raghavachari, A. P. Rendell, J. C. Burant, S. S. Iyengar, 
 J. Tomasi, M. Cossi, J. M. Millam, M. Klene, C. Adamo, R. Cammi, 
 J. W. Ochterski, R. L. Martin, K. Morokuma, O. Farkas, 
 J. B. Foresman, and D. J. Fox, Gaussian, Inc., Wallingford CT, 2016.
 
 ******************************************
 Gaussian 16:  ES64L-G16RevB.01 20-Dec-2017
                29-Jan-2021 
 ******************************************
 -----------------------------
 #n b3lyp/aug-cc-pvtz opt freq
 -----------------------------
 1/18=20,19=15,26=3,38=1/1,3;
 2/9=110,12=2,17=6,18=5,40=1/2;
 3/5=16,6=1,7=10,11=2,25=1,30=1,71=1,74=-5/1,2,3;
 4//1;
 5/5=2,38=5/2;
 6/7=2,8=2,9=2,10=2,28=1/1;
 7//1,2,3,16;
 1/18=20,19=15,26=3/3(2);
 2/9=110/2;
 99//99;
 2/9=110/2;
 3/5=16,6=1,7=10,11=2,25=1,30=1,71=1,74=-5/1,2,3;
 4/5=5,16=3,69=1/1;
 5/5=2,38=5/2;
 7//1,2,3,16;
 1/18=20,19=15,26=3/3(-5);
 2/9=110/2;
 6/7=2,8=2,9=2,10=2,19=2,28=1/1;
 99/9=1/99;
 -------------------------------------------------
 Energy of chloromethane using the AM1 hamiltonian
 -------------------------------------------------
 Symbolic Z-matrix:
 Charge =  0 Multiplicity = 1
 c
 h                    1    hc2
 h                    1    hc3      2    hch3
 h                    1    hc4      3    hch4     2    dih4     0
 cl                   1    clc5     4    clch5    3    dih5     0
       Variables:
  hc2                   1.09                     
  hc3                   1.09                     
  hch3                109.471                    
  hc4                   1.09                     
  hch4                109.471                    
  dih4               -120.                       
  clc5                  1.64362                  
  clch5               109.471                    
  dih5                120.                       
 
     3 tetrahedral angles replaced.

 GradGradGradGradGradGradGradGradGradGradGradGradGradGradGradGradGradGrad
 Berny optimization.
 Initialization pass.
                           ----------------------------
                           !    Initial Parameters    !
                           ! (Angstroms and Degrees)  !
 --------------------------                            --------------------------
 ! Name  Definition              Value          Derivative Info.                !
 --------------------------------------------------------------------------------
 ! R1    R(1,2)                  1.09           estimate D2E/DX2                !
 ! R2    R(1,3)                  1.09           estimate D2E/DX2                !
 ! R3    R(1,4)                  1.09           estimate D2E/DX2                !
 ! R4    R(1,5)                  1.6436         estimate D2E/DX2                !
 ! A1    A(2,1,3)              109.4712         estimate D2E/DX2                !
 ! A2    A(2,1,4)              109.4712         estimate D2E/DX2                !
 ! A3    A(2,1,5)              109.4712         estimate D2E/DX2                !
 ! A4    A(3,1,4)              109.4712         estimate D2E/DX2                !
 ! A5    A(3,1,5)              109.4712         estimate D2E/DX2                !
 ! A6    A(4,1,5)              109.4712         estimate D2E/DX2                !
 ! D1    D(2,1,4,3)           -120.0            estimate D2E/DX2                !
 ! D2    D(2,1,5,3)            120.0            estimate D2E/DX2                !
 ! D3    D(2,1,5,4)           -120.0            estimate D2E/DX2                !
 ! D4    D(3,1,5,4)            120.0            estimate D2E/DX2                !
 --------------------------------------------------------------------------------
 Trust Radius=3.00D-01 FncErr=1.00D-07 GrdErr=1.00D-06 EigMax=2.50D+02 EigMin=1.00D-04
 Number of steps in this run=     24 maximum allowed number of steps=    100.
 GradGradGradGradGradGradGradGradGradGradGradGradGradGradGradGradGradGrad

                          Input orientation:                          
 ---------------------------------------------------------------------
 Center     Atomic      Atomic             Coordinates (Angstroms)
 Number     Number       Type             X           Y           Z
 ---------------------------------------------------------------------
      1          6           0        0.000000    0.000000    0.000000
      2          1           0        0.000000    0.000000    1.090000
      3          1           0        1.027662    0.000000   -0.363333
      4          1           0       -0.513831   -0.889981   -0.363333
      5         17           0       -0.774811    1.342012   -0.547874
 ---------------------------------------------------------------------
                    Distance matrix (angstroms):
                    1          2          3          4          5
     1  C    0.000000
     2  H    1.090000   0.000000
     3  H    1.090000   1.779963   0.000000
     4  H    1.090000   1.779963   1.779963   0.000000
     5  Cl   1.643622   2.254764   2.254764   2.254764   0.000000
 Stoichiometry    CH3Cl
 Framework group  C3V[C3(CCl),3SGV(H)]
 Deg. of freedom     3
 Full point group                 C3V     NOp   6
 Largest Abelian subgroup         CS      NOp   2
 Largest concise Abelian subgroup CS      NOp   2
                         Standard orientation:                         
 ---------------------------------------------------------------------
 Center     Atomic      Atomic             Coordinates (Angstroms)
 Number     Number       Type             X           Y           Z
 ---------------------------------------------------------------------
      1          6           0        0.000000   -0.000000   -1.032753
      2          1           0        0.000000    1.027662   -1.396086
      3          1           0       -0.889981   -0.513831   -1.396086
      4          1           0        0.889981   -0.513831   -1.396086
      5         17           0       -0.000000    0.000000    0.610869
 ---------------------------------------------------------------------
 Rotational constants (GHZ):         158.2742734          15.3673234          15.3673234
 Standard basis: Aug-CC-pVTZ (5D, 7F)
 There are   120 symmetry adapted cartesian basis functions of A'  symmetry.
 There are    69 symmetry adapted cartesian basis functions of A"  symmetry.
 There are   102 symmetry adapted basis functions of A'  symmetry.
 There are    63 symmetry adapted basis functions of A"  symmetry.
   165 basis functions,   267 primitive gaussians,   189 cartesian basis functions
    13 alpha electrons       13 beta electrons
       nuclear repulsion energy        54.4396529966 Hartrees.
 NAtoms=    5 NActive=    5 NUniq=    3 SFac= 2.78D+00 NAtFMM=   60 NAOKFM=F Big=F
 Integral buffers will be    131072 words long.
 Raffenetti 2 integral format.
 Two-electron integral symmetry is turned on.
 One-electron integrals computed using PRISM.
 NBasis=   165 RedAO= T EigKep=  6.52D-05  NBF=   102    63
 NBsUse=   165 1.00D-06 EigRej= -1.00D+00 NBFU=   102    63
 ExpMin= 2.53D-02 ExpMax= 4.56D+05 ExpMxC= 1.44D+03 IAcc=3 IRadAn=         5 AccDes= 0.00D+00
 Harris functional with IExCor=  402 and IRadAn=       5 diagonalized for initial guess.
 HarFok:  IExCor=  402 AccDes= 0.00D+00 IRadAn=         5 IDoV= 1 UseB2=F ITyADJ=14
 ICtDFT=  3500011 ScaDFX=  1.000000  1.000000  1.000000  1.000000
 FoFCou: FMM=F IPFlag=           0 FMFlag=      100000 FMFlg1=           0
         NFxFlg=           0 DoJE=T BraDBF=F KetDBF=T FulRan=T
         wScrn=  0.000000 ICntrl=       500 IOpCl=  0 I1Cent=   200000004 NGrid=           0
         NMat0=    1 NMatS0=      1 NMatT0=    0 NMatD0=    1 NMtDS0=    0 NMtDT0=    0
 Petite list used in FoFCou.
 Initial guess orbital symmetries:
       Occupied  (A1) (A1) (A1) (A1) (E) (E) (A1) (A1) (E) (E)
                 (A1) (E) (E)
       Virtual   (A1) (A1) (E) (E) (A1) (A1) (E) (E) (A1) (E) (E)
                 (E) (E) (A1) (E) (E) (A1) (E) (E) (A1) (E) (E)
                 (A2) (A1) (E) (E) (E) (E) (A1) (E) (E) (A1) (E)
                 (E) (E) (E) (A1) (A1) (E) (E) (A1) (E) (E) (E)
                 (E) (A2) (E) (E) (A1) (E) (E) (A1) (A2) (E) (E)
                 (A1) (A1) (E) (E) (A1) (E) (E) (E) (E) (A2) (E)
                 (E) (A1) (E) (E) (A1) (A1) (E) (E) (A2) (A1) (E)
                 (E) (E) (E) (A1) (E) (E) (A1) (E) (E) (A2) (E)
                 (E) (E) (E) (A1) (A1) (E) (E) (E) (E) (A1) (A1)
                 (E) (E) (A1) (A2) (E) (E) (A1) (A1) (E) (E) (E)
                 (E) (A2) (A1) (E) (E) (E) (E) (E) (E) (E) (E)
                 (A2) (E) (E) (A1) (A1) (E) (E) (A1) (E) (E) (A1)
                 (E) (E) (A1) (A2) (E) (E) (E) (E) (A1) (A1) (E)
                 (E) (A2) (A1) (E) (E) (E) (E) (A1) (A1)
 The electronic state of the initial guess is 1-A1.
 Requested convergence on RMS density matrix=1.00D-08 within 128 cycles.
 Requested convergence on MAX density matrix=1.00D-06.
 Requested convergence on             energy=1.00D-06.
 No special actions if energy rises.
 SCF Done:  E(RB3LYP) =  -500.154736988     A.U. after    9 cycles
            NFock=  9  Conv=0.45D-08     -V/T= 2.0026

 **********************************************************************

            Population analysis using the SCF Density.

 **********************************************************************

 Orbital symmetries:
       Occupied  (A1) (A1) (A1) (A1) (E) (E) (A1) (A1) (E) (E)
                 (A1) (E) (E)
       Virtual   (A1) (A1) (E) (E) (A1) (E) (E) (A1) (E) (E) (A1)
                 (E) (E) (A1) (E) (E) (A1) (E) (E) (A1) (E) (E)
                 (A2) (A1) (E) (E) (A1) (E) (E) (E) (E) (A1) (E)
                 (E) (E) (E) (A1) (A1) (E) (E) (A1) (E) (E) (E)
                 (E) (A2) (E) (E) (A1) (E) (E) (A1) (A2) (E) (E)
                 (A1) (A1) (E) (E) (A1) (E) (E) (E) (E) (A2) (E)
                 (E) (A1) (E) (E) (A1) (A1) (E) (E) (A2) (A1) (E)
                 (E) (E) (E) (A1) (E) (E) (A1) (E) (E) (A2) (E)
                 (E) (E) (E) (A1) (A1) (E) (E) (E) (E) (A1) (A1)
                 (E) (E) (A2) (E) (E) (A1) (A1) (A1) (E) (E) (E)
                 (E) (A2) (A1) (E) (E) (E) (E) (E) (E) (E) (E)
                 (A2) (E) (E) (A1) (A1) (E) (E) (E) (E) (A1) (A1)
                 (E) (E) (A1) (A2) (E) (E) (E) (E) (A1) (A1) (E)
                 (E) (A2) (A1) (E) (E) (E) (E) (A1) (A1)
 The electronic state is 1-A1.
 Alpha  occ. eigenvalues -- -101.55066 -10.22124  -9.45846  -7.22127  -7.21238
 Alpha  occ. eigenvalues --   -7.21238  -0.89204  -0.66947  -0.46357  -0.46357
 Alpha  occ. eigenvalues --   -0.43642  -0.29734  -0.29734
 Alpha virt. eigenvalues --   -0.01294   0.01562   0.01832   0.01832   0.05800
 Alpha virt. eigenvalues --    0.08250   0.08250   0.08374   0.08755   0.08755
 Alpha virt. eigenvalues --    0.10855   0.11202   0.11202   0.17126   0.19281
 Alpha virt. eigenvalues --    0.19281   0.21537   0.24022   0.24022   0.26712
 Alpha virt. eigenvalues --    0.26722   0.26722   0.27604   0.30558   0.31937
 Alpha virt. eigenvalues --    0.31937   0.34520   0.35460   0.35460   0.38490
 Alpha virt. eigenvalues --    0.38490   0.41145   0.42148   0.42148   0.52269
 Alpha virt. eigenvalues --    0.52269   0.55477   0.58257   0.64825   0.64825
 Alpha virt. eigenvalues --    0.65012   0.70755   0.70755   0.71528   0.71528
 Alpha virt. eigenvalues --    0.74099   0.75537   0.75537   0.79999   0.80577
 Alpha virt. eigenvalues --    0.80577   0.84245   0.86623   0.88603   0.88603
 Alpha virt. eigenvalues --    0.92108   0.92827   0.94831   0.94831   0.98070
 Alpha virt. eigenvalues --    0.99357   0.99357   1.03880   1.03880   1.12138
 Alpha virt. eigenvalues --    1.12898   1.12898   1.22827   1.24699   1.24699
 Alpha virt. eigenvalues --    1.32697   1.36080   1.37421   1.37421   1.44846
 Alpha virt. eigenvalues --    1.46738   1.47849   1.47849   1.52281   1.52281
 Alpha virt. eigenvalues --    1.56688   1.62190   1.62190   1.70120   1.73303
 Alpha virt. eigenvalues --    1.73303   1.77859   1.84015   1.84015   1.97078
 Alpha virt. eigenvalues --    1.97078   2.01565   2.16351   2.30719   2.30719
 Alpha virt. eigenvalues --    2.33695   2.33695   2.45783   2.61313   2.63619
 Alpha virt. eigenvalues --    2.63619   2.75914   2.77112   2.77112   2.79015
 Alpha virt. eigenvalues --    2.81760   2.89666   2.90664   2.90664   3.05595
 Alpha virt. eigenvalues --    3.05595   3.24580   3.25192   3.26385   3.26385
 Alpha virt. eigenvalues --    3.29432   3.29432   3.54096   3.54096   3.56152
 Alpha virt. eigenvalues --    3.56152   3.74125   3.77285   3.77285   3.80390
 Alpha virt. eigenvalues --    3.89377   3.94314   3.94314   4.18628   4.18628
 Alpha virt. eigenvalues --    4.19867   4.34860   4.39112   4.39112   4.54080
 Alpha virt. eigenvalues --    4.58251   4.69512   4.69512   4.85821   4.85821
 Alpha virt. eigenvalues --    4.96998   5.20947   5.21658   5.21658   5.22961
 Alpha virt. eigenvalues --    5.55409   5.69781   5.69781   6.22712   6.22712
 Alpha virt. eigenvalues --    7.50787  15.94916
          Condensed to atoms (all electrons):
               1          2          3          4          5
     1  C    5.317659   0.409278   0.409278   0.409278   0.023296
     2  H    0.409278   0.387191   0.001248   0.001248  -0.020782
     3  H    0.409278   0.001248   0.387191   0.001248  -0.020782
     4  H    0.409278   0.001248   0.001248   0.387191  -0.020782
     5  Cl   0.023296  -0.020782  -0.020782  -0.020782  17.135708
 Mulliken charges:
               1
     1  C   -0.568789
     2  H    0.221816
     3  H    0.221816
     4  H    0.221816
     5  Cl  -0.096659
 Sum of Mulliken charges =  -0.00000
 Mulliken charges with hydrogens summed into heavy atoms:
               1
     1  C    0.096659
     5  Cl  -0.096659
 Electronic spatial extent (au):  <R**2>=            121.4341
 Charge=             -0.0000 electrons
 Dipole moment (field-independent basis, Debye):
    X=             -0.0000    Y=              0.0000    Z=             -1.6202  Tot=              1.6202
 Quadrupole moment (field-independent basis, Debye-Ang):
   XX=            -19.9275   YY=            -19.9275   ZZ=            -18.9669
   XY=             -0.0000   XZ=              0.0000   YZ=              0.0000
 Traceless Quadrupole moment (field-independent basis, Debye-Ang):
   XX=             -0.3202   YY=             -0.3202   ZZ=              0.6404
   XY=             -0.0000   XZ=              0.0000   YZ=              0.0000
 Octapole moment (field-independent basis, Debye-Ang**2):
  XXX=              0.0000  YYY=              0.7411  ZZZ=              3.1441  XYY=              0.0000
  XXY=             -0.7411  XXZ=             -0.7371  XZZ=             -0.0000  YZZ=             -0.0000
  YYZ=             -0.7371  XYZ=             -0.0000
 Hexadecapole moment (field-independent basis, Debye-Ang**3):
 XXXX=            -29.4680 YYYY=            -29.4680 ZZZZ=           -107.6166 XXXY=             -0.0000
 XXXZ=              0.0000 YYYX=             -0.0000 YYYZ=             -0.9735 ZZZX=              0.0000
 ZZZY=             -0.0000 XXYY=             -9.8227 XXZZ=            -23.0332 YYZZ=            -23.0332
 XXYZ=              0.9735 YYXZ=              0.0000 ZZXY=             -0.0000
 N-N= 5.443965299658D+01 E-N=-1.295258762526D+03  KE= 4.988588852012D+02
 Symmetry A'   KE= 4.510496330583D+02
 Symmetry A"   KE= 4.780925214291D+01
 Calling FoFJK, ICntrl=      2127 FMM=F ISym2X=1 I1Cent= 0 IOpClX= 0 NMat=1 NMatS=1 NMatT=0.
 ***** Axes restored to original set *****
 -------------------------------------------------------------------
 Center     Atomic                   Forces (Hartrees/Bohr)
 Number     Number              X              Y              Z
 -------------------------------------------------------------------
      1        6           0.034897883   -0.060444906    0.024676530
      2        1           0.002443187   -0.004231724   -0.000890275
      3        1          -0.000024963   -0.004231724    0.002600217
      4        1           0.003677262   -0.002094243    0.002600217
      5       17          -0.040993369    0.071002598   -0.028986689
 -------------------------------------------------------------------
 Cartesian Forces:  Max     0.071002598 RMS     0.029570753

 GradGradGradGradGradGradGradGradGradGradGradGradGradGradGradGradGradGrad
 Berny optimization.
 FormGI is forming the generalized inverse of G from B-inverse, IUseBI=4.
 Internal  Forces:  Max     0.086960068 RMS     0.023367705
 Search for a local minimum.
 Step number   1 out of a maximum of   24
 All quantities printed in internal units (Hartrees-Bohrs-Radians)
 Mixed Optimization -- RFO/linear search
 Second derivative matrix not updated -- first step.
 The second derivative matrix:
                          R1        R2        R3        R4        A1
           R1           0.34813
           R2           0.00000   0.34813
           R3           0.00000   0.00000   0.34813
           R4           0.00000   0.00000   0.00000   0.43630
           A1           0.00000   0.00000   0.00000   0.00000   0.16000
           A2           0.00000   0.00000   0.00000   0.00000   0.00000
           A3           0.00000   0.00000   0.00000   0.00000   0.00000
           A4           0.00000   0.00000   0.00000   0.00000   0.00000
           A5           0.00000   0.00000   0.00000   0.00000   0.00000
           A6           0.00000   0.00000   0.00000   0.00000   0.00000
           D1           0.00000   0.00000   0.00000   0.00000   0.00000
           D2           0.00000   0.00000   0.00000   0.00000   0.00000
           D3           0.00000   0.00000   0.00000   0.00000   0.00000
           D4           0.00000   0.00000   0.00000   0.00000   0.00000
                          A2        A3        A4        A5        A6
           A2           0.16000
           A3           0.00000   0.16000
           A4           0.00000   0.00000   0.16000
           A5           0.00000   0.00000   0.00000   0.16000
           A6           0.00000   0.00000   0.00000   0.00000   0.16000
           D1           0.00000   0.00000   0.00000   0.00000   0.00000
           D2           0.00000   0.00000   0.00000   0.00000   0.00000
           D3           0.00000   0.00000   0.00000   0.00000   0.00000
           D4           0.00000   0.00000   0.00000   0.00000   0.00000
                          D1        D2        D3        D4
           D1           0.00235
           D2           0.00000   0.01777
           D3           0.00000   0.00000   0.01777
           D4           0.00000   0.00000   0.00000   0.01777
 ITU=  0
     Eigenvalues ---    0.05812   0.06724   0.08890   0.16000   0.16000
     Eigenvalues ---    0.34813   0.34813   0.34813   0.43630
 RFO step:  Lambda=-1.74443927D-02 EMin= 5.81189867D-02
 Linear search not attempted -- first point.
 Iteration  1 RMS(Cart)=  0.05648708 RMS(Int)=  0.00059067
 Iteration  2 RMS(Cart)=  0.00033159 RMS(Int)=  0.00048102
 Iteration  3 RMS(Cart)=  0.00000003 RMS(Int)=  0.00048102
 ClnCor:  largest displacement from symmetrization is 1.72D-03 for atom     4.
 Variable       Old X    -DE/DX   Delta X   Delta X   Delta X     New X
                                 (Linear)    (Quad)   (Total)
    R1        2.05980  -0.00089   0.00000  -0.00244  -0.00208   2.05772
    R2        2.05980  -0.00089   0.00000  -0.00244  -0.00208   2.05772
    R3        2.05980  -0.00089   0.00000  -0.00244  -0.00208   2.05772
    R4        3.10600   0.08696   0.00000   0.19165   0.19165   3.29764
    A1        1.91063  -0.00152   0.00000  -0.02338  -0.02610   1.88453
    A2        1.91063  -0.00323   0.00000  -0.02666  -0.02610   1.88453
    A3        1.91063   0.00235   0.00000   0.02542   0.02543   1.93606
    A4        1.91063  -0.00323   0.00000  -0.02666  -0.02610   1.88453
    A5        1.91063   0.00235   0.00000   0.02542   0.02543   1.93606
    A6        1.91063   0.00328   0.00000   0.02587   0.02543   1.93606
    D1       -2.09440   0.00582   0.00000   0.06129   0.06090  -2.03350
    D2        2.09440   0.00101   0.00000   0.00249   0.00000   2.09440
    D3       -2.09440   0.00051   0.00000   0.00125   0.00000  -2.09440
    D4        2.09440  -0.00051   0.00000  -0.00125   0.00000   2.09440
         Item               Value     Threshold  Converged?
 Maximum Force            0.086960     0.000450     NO 
 RMS     Force            0.023368     0.000300     NO 
 Maximum Displacement     0.149048     0.001800     NO 
 RMS     Displacement     0.056401     0.001200     NO 
 Predicted change in Energy=-9.098591D-03
 GradGradGradGradGradGradGradGradGradGradGradGradGradGradGradGradGradGrad

                          Input orientation:                          
 ---------------------------------------------------------------------
 Center     Atomic      Atomic             Coordinates (Angstroms)
 Number     Number       Type             X           Y           Z
 ---------------------------------------------------------------------
      1          6           0        0.002271   -0.003933    0.001606
      2          1           0        0.016115   -0.027912    1.090151
      3          1           0        1.033176   -0.027912   -0.348190
      4          1           0       -0.492416   -0.908713   -0.348190
      5         17           0       -0.820348    1.420885   -0.580074
 ---------------------------------------------------------------------
                    Distance matrix (angstroms):
                    1          2          3          4          5
     1  C    0.000000
     2  H    1.088898   0.000000
     3  H    1.088898   1.761602   0.000000
     4  H    1.088898   1.761602   1.761602   0.000000
     5  Cl   1.745038   2.363966   2.363966   2.363966   0.000000
 Stoichiometry    CH3Cl
 Framework group  C3V[C3(CCl),3SGV(H)]
 Deg. of freedom     3
 Full point group                 C3V     NOp   6
 Largest Abelian subgroup         CS      NOp   2
 Largest concise Abelian subgroup CS      NOp   2
                         Standard orientation:                         
 ---------------------------------------------------------------------
 Center     Atomic      Atomic             Coordinates (Angstroms)
 Number     Number       Type             X           Y           Z
 ---------------------------------------------------------------------
      1          6           0       -0.000000    0.000000   -1.096107
      2          1           0       -0.000000    1.017061   -1.485061
      3          1           0       -0.880801   -0.508531   -1.485061
      4          1           0        0.880801   -0.508531   -1.485061
      5         17           0        0.000000   -0.000000    0.648931
 ---------------------------------------------------------------------
 Rotational constants (GHZ):         161.5908276          13.7089066          13.7089066
 Standard basis: Aug-CC-pVTZ (5D, 7F)
 There are   120 symmetry adapted cartesian basis functions of A'  symmetry.
 There are    69 symmetry adapted cartesian basis functions of A"  symmetry.
 There are   102 symmetry adapted basis functions of A'  symmetry.
 There are    63 symmetry adapted basis functions of A"  symmetry.
   165 basis functions,   267 primitive gaussians,   189 cartesian basis functions
    13 alpha electrons       13 beta electrons
       nuclear repulsion energy        51.9963350832 Hartrees.
 NAtoms=    5 NActive=    5 NUniq=    3 SFac= 2.78D+00 NAtFMM=   60 NAOKFM=F Big=F
 Integral buffers will be    131072 words long.
 Raffenetti 2 integral format.
 Two-electron integral symmetry is turned on.
 One-electron integrals computed using PRISM.
 NBasis=   165 RedAO= T EigKep=  7.34D-05  NBF=   102    63
 NBsUse=   165 1.00D-06 EigRej= -1.00D+00 NBFU=   102    63
 Initial guess from the checkpoint file:  "/dev/shm/edumont/8178217/Gau-45955.chk"
 B after Tr=    -0.000000    0.000000    0.000000
         Rot=    1.000000   -0.000000   -0.000000   -0.000000 Ang=   0.00 deg.
 Initial guess orbital symmetries:
       Occupied  (A1) (A1) (A1) (A1) (E) (E) (A1) (A1) (E) (E)
                 (A1) (E) (E)
       Virtual   (A1) (A1) (E) (E) (A1) (E) (E) (A1) (E) (E) (A1)
                 (E) (E) (A1) (E) (E) (A1) (E) (E) (A1) (E) (E)
                 (A2) (A1) (E) (E) (A1) (E) (E) (E) (E) (A1) (E)
                 (E) (E) (E) (A1) (A1) (E) (E) (A1) (E) (E) (E)
                 (E) (A2) (E) (E) (A1) (E) (E) (A1) (A2) (E) (E)
                 (A1) (A1) (E) (E) (A1) (E) (E) (E) (E) (A2) (E)
                 (E) (A1) (E) (E) (A1) (A1) (E) (E) (A2) (A1) (E)
                 (E) (E) (E) (A1) (E) (E) (A1) (E) (E) (A2) (E)
                 (E) (E) (E) (A1) (A1) (E) (E) (E) (E) (A1) (A1)
                 (E) (E) (A2) (E) (E) (A1) (A1) (A1) (E) (E) (E)
                 (E) (A2) (A1) (E) (E) (E) (E) (E) (E) (E) (E)
                 (A2) (E) (E) (A1) (A1) (E) (E) (E) (E) (A1) (A1)
                 (E) (E) (A1) (A2) (E) (E) (E) (E) (A1) (A1) (E)
                 (E) (A2) (A1) (E) (E) (E) (E) (A1) (A1)
 ExpMin= 2.53D-02 ExpMax= 4.56D+05 ExpMxC= 1.44D+03 IAcc=3 IRadAn=         5 AccDes= 0.00D+00
 Harris functional with IExCor=  402 and IRadAn=       5 diagonalized for initial guess.
 HarFok:  IExCor=  402 AccDes= 0.00D+00 IRadAn=         5 IDoV= 1 UseB2=F ITyADJ=14
 ICtDFT=  3500011 ScaDFX=  1.000000  1.000000  1.000000  1.000000
 FoFCou: FMM=F IPFlag=           0 FMFlag=      100000 FMFlg1=           0
         NFxFlg=           0 DoJE=T BraDBF=F KetDBF=T FulRan=T
         wScrn=  0.000000 ICntrl=       500 IOpCl=  0 I1Cent=   200000004 NGrid=           0
         NMat0=    1 NMatS0=      1 NMatT0=    0 NMatD0=    1 NMtDS0=    0 NMtDT0=    0
 Petite list used in FoFCou.
 Requested convergence on RMS density matrix=1.00D-08 within 128 cycles.
 Requested convergence on MAX density matrix=1.00D-06.
 Requested convergence on             energy=1.00D-06.
 No special actions if energy rises.
 SCF Done:  E(RB3LYP) =  -500.164320512     A.U. after    9 cycles
            NFock=  9  Conv=0.22D-08     -V/T= 2.0030
 Calling FoFJK, ICntrl=      2127 FMM=F ISym2X=1 I1Cent= 0 IOpClX= 0 NMat=1 NMatS=1 NMatT=0.
 ***** Axes restored to original set *****
 -------------------------------------------------------------------
 Center     Atomic                   Forces (Hartrees/Bohr)
 Number     Number              X              Y              Z
 -------------------------------------------------------------------
      1        6           0.014185934   -0.024570759    0.010030970
      2        1          -0.002000333    0.003464678   -0.001038055
      3        1          -0.001645465    0.003464678   -0.001539913
      4        1          -0.002177766    0.003157354   -0.001539913
      5       17          -0.008362370    0.014484050   -0.005913089
 -------------------------------------------------------------------
 Cartesian Forces:  Max     0.024570759 RMS     0.009206930

 GradGradGradGradGradGradGradGradGradGradGradGradGradGradGradGradGradGrad
 Berny optimization.
 Using GEDIIS/GDIIS optimizer.
 FormGI is forming the generalized inverse of G from B-inverse, IUseBI=4.
 Internal  Forces:  Max     0.017739266 RMS     0.005158407
 Search for a local minimum.
 Step number   2 out of a maximum of   24
 All quantities printed in internal units (Hartrees-Bohrs-Radians)
 Mixed Optimization -- RFO/linear search
 Update second derivatives using D2CorX and points    1    2
 DE= -9.58D-03 DEPred=-9.10D-03 R= 1.05D+00
 TightC=F SS=  1.41D+00  RLast= 2.11D-01 DXNew= 5.0454D-01 6.3239D-01
 Trust test= 1.05D+00 RLast= 2.11D-01 DXMaxT set to 5.05D-01
 The second derivative matrix:
                          R1        R2        R3        R4        A1
           R1           0.34810
           R2          -0.00003   0.34810
           R3          -0.00003  -0.00003   0.34810
           R4           0.00481   0.00481   0.00481   0.34398
           A1          -0.00023  -0.00023  -0.00023   0.00724   0.15953
           A2          -0.00028  -0.00028  -0.00028  -0.00744   0.00014
           A3           0.00025   0.00025   0.00025  -0.00020   0.00017
           A4          -0.00028  -0.00028  -0.00028  -0.00744   0.00014
           A5           0.00025   0.00025   0.00025  -0.00020   0.00017
           A6           0.00028   0.00028   0.00028   0.00803  -0.00017
           D1           0.00018   0.00018   0.00018   0.04819  -0.00201
           D2           0.00003   0.00003   0.00003   0.00865  -0.00036
           D3           0.00002   0.00002   0.00002   0.00432  -0.00018
           D4          -0.00002  -0.00002  -0.00002  -0.00432   0.00018
                          A2        A3        A4        A5        A6
           A2           0.16142
           A3          -0.00073   0.16026
           A4           0.00142  -0.00073   0.16142
           A5          -0.00073   0.00026  -0.00073   0.16026
           A6          -0.00145   0.00076  -0.00145   0.00076   0.16148
           D1          -0.00421   0.00299  -0.00421   0.00299   0.00422
           D2          -0.00075   0.00053  -0.00075   0.00053   0.00075
           D3          -0.00038   0.00027  -0.00038   0.00027   0.00038
           D4           0.00038  -0.00027   0.00038  -0.00027  -0.00038
                          D1        D2        D3        D4
           D1           0.00966
           D2           0.00129   0.01800
           D3           0.00065   0.00011   0.01783
           D4          -0.00065  -0.00011  -0.00006   0.01783
 ITU=  1  0
 Use linear search instead of GDIIS.
     Eigenvalues ---    0.05767   0.06481   0.09930   0.16000   0.16080
     Eigenvalues ---    0.34067   0.34813   0.34813   0.35760
 RFO step:  Lambda=-1.04461798D-03 EMin= 5.76687859D-02
 Quartic linear search produced a step of  0.25484.
 Iteration  1 RMS(Cart)=  0.01506030 RMS(Int)=  0.00056854
 Iteration  2 RMS(Cart)=  0.00027134 RMS(Int)=  0.00049315
 Iteration  3 RMS(Cart)=  0.00000004 RMS(Int)=  0.00049315
 ClnCor:  largest displacement from symmetrization is 3.24D-03 for atom     4.
 Variable       Old X    -DE/DX   Delta X   Delta X   Delta X     New X
                                 (Linear)    (Quad)   (Total)
    R1        2.05772  -0.00114  -0.00053  -0.00372  -0.00493   2.05279
    R2        2.05772  -0.00114  -0.00053  -0.00372  -0.00493   2.05279
    R3        2.05772  -0.00114  -0.00053  -0.00372  -0.00493   2.05279
    R4        3.29764   0.01774   0.04884   0.02319   0.07203   3.36968
    A1        1.88453   0.00138  -0.00665   0.02727   0.02277   1.90730
    A2        1.88453   0.00278  -0.00665   0.03232   0.02277   1.90730
    A3        1.93606  -0.00193   0.00648  -0.02900  -0.02211   1.91396
    A4        1.88453   0.00278  -0.00665   0.03232   0.02277   1.90730
    A5        1.93606  -0.00193   0.00648  -0.02900  -0.02211   1.91396
    A6        1.93606  -0.00274   0.00648  -0.02935  -0.02211   1.91396
    D1       -2.03350  -0.00454   0.01552  -0.06594  -0.05278  -2.08628
    D2        2.09440  -0.00082   0.00000  -0.00408   0.00000   2.09440
    D3       -2.09440  -0.00041   0.00000  -0.00204   0.00000  -2.09440
    D4        2.09440   0.00041   0.00000   0.00204   0.00000   2.09440
         Item               Value     Threshold  Converged?
 Maximum Force            0.017739     0.000450     NO 
 RMS     Force            0.005158     0.000300     NO 
 Maximum Displacement     0.033758     0.001800     NO 
 RMS     Displacement     0.014760     0.001200     NO 
 Predicted change in Energy=-8.601571D-04
 GradGradGradGradGradGradGradGradGradGradGradGradGradGradGradGradGradGrad

                          Input orientation:                          
 ---------------------------------------------------------------------
 Center     Atomic      Atomic             Coordinates (Angstroms)
 Number     Number       Type             X           Y           Z
 ---------------------------------------------------------------------
      1          6           0        0.012584   -0.021797    0.008899
      2          1           0        0.014389   -0.024923    1.095183
      3          1           0        1.037345   -0.024923   -0.351495
      4          1           0       -0.497089   -0.910829   -0.351495
      5         17           0       -0.828004    1.434145   -0.585487
 ---------------------------------------------------------------------
                    Distance matrix (angstroms):
                    1          2          3          4          5
     1  C    0.000000
     2  H    1.086291   0.000000
     3  H    1.086291   1.771812   0.000000
     4  H    1.086291   1.771812   1.771812   0.000000
     5  Cl   1.783157   2.379739   2.379739   2.379739   0.000000
 Stoichiometry    CH3Cl
 Framework group  C3V[C3(CCl),3SGV(H)]
 Deg. of freedom     3
 Full point group                 C3V     NOp   6
 Largest Abelian subgroup         CS      NOp   2
 Largest concise Abelian subgroup CS      NOp   2
                         Standard orientation:                         
 ---------------------------------------------------------------------
 Center     Atomic      Atomic             Coordinates (Angstroms)
 Number     Number       Type             X           Y           Z
 ---------------------------------------------------------------------
      1          6           0        0.000000   -0.000000   -1.123737
      2          1           0        0.000000    1.022956   -1.489236
      3          1           0       -0.885906   -0.511478   -1.489236
      4          1           0        0.885906   -0.511478   -1.489236
      5         17           0       -0.000000    0.000000    0.659420
 ---------------------------------------------------------------------
 Rotational constants (GHZ):         159.7338410          13.2533927          13.2533927
 Standard basis: Aug-CC-pVTZ (5D, 7F)
 There are   120 symmetry adapted cartesian basis functions of A'  symmetry.
 There are    69 symmetry adapted cartesian basis functions of A"  symmetry.
 There are   102 symmetry adapted basis functions of A'  symmetry.
 There are    63 symmetry adapted basis functions of A"  symmetry.
   165 basis functions,   267 primitive gaussians,   189 cartesian basis functions
    13 alpha electrons       13 beta electrons
       nuclear repulsion energy        51.2752434096 Hartrees.
 NAtoms=    5 NActive=    5 NUniq=    3 SFac= 2.78D+00 NAtFMM=   60 NAOKFM=F Big=F
 Integral buffers will be    131072 words long.
 Raffenetti 2 integral format.
 Two-electron integral symmetry is turned on.
 One-electron integrals computed using PRISM.
 NBasis=   165 RedAO= T EigKep=  7.50D-05  NBF=   102    63
 NBsUse=   165 1.00D-06 EigRej= -1.00D+00 NBFU=   102    63
 Initial guess from the checkpoint file:  "/dev/shm/edumont/8178217/Gau-45955.chk"
 B after Tr=     0.000000   -0.000000   -0.000000
         Rot=    1.000000    0.000000    0.000000    0.000000 Ang=   0.00 deg.
 Initial guess orbital symmetries:
       Occupied  (A1) (A1) (A1) (A1) (E) (E) (A1) (A1) (E) (E)
                 (A1) (E) (E)
       Virtual   (A1) (A1) (E) (E) (A1) (A1) (E) (E) (E) (E) (A1)
                 (E) (E) (A1) (E) (E) (A1) (E) (E) (E) (E) (A1)
                 (A2) (A1) (E) (E) (A1) (E) (E) (E) (E) (A1) (E)
                 (E) (E) (E) (A1) (A1) (E) (E) (A1) (E) (E) (E)
                 (E) (A2) (E) (E) (A1) (E) (E) (A1) (E) (E) (A2)
                 (A1) (A1) (E) (E) (A1) (E) (E) (E) (E) (A2) (E)
                 (E) (A1) (E) (E) (A1) (A1) (E) (E) (A2) (A1) (E)
                 (E) (E) (E) (A1) (E) (E) (A1) (E) (E) (A2) (E)
                 (E) (E) (E) (A1) (A1) (E) (E) (E) (E) (A1) (E)
                 (E) (A1) (A1) (A2) (E) (E) (A1) (A1) (E) (E) (E)
                 (E) (E) (E) (A2) (A1) (E) (E) (E) (E) (E) (E)
                 (A1) (A2) (E) (E) (A1) (E) (E) (E) (E) (A1) (A1)
                 (E) (E) (A1) (A2) (E) (E) (E) (E) (A1) (A1) (A2)
                 (E) (E) (A1) (E) (E) (E) (E) (A1) (A1)
 ExpMin= 2.53D-02 ExpMax= 4.56D+05 ExpMxC= 1.44D+03 IAcc=3 IRadAn=         5 AccDes= 0.00D+00
 Harris functional with IExCor=  402 and IRadAn=       5 diagonalized for initial guess.
 HarFok:  IExCor=  402 AccDes= 0.00D+00 IRadAn=         5 IDoV= 1 UseB2=F ITyADJ=14
 ICtDFT=  3500011 ScaDFX=  1.000000  1.000000  1.000000  1.000000
 FoFCou: FMM=F IPFlag=           0 FMFlag=      100000 FMFlg1=           0
         NFxFlg=           0 DoJE=T BraDBF=F KetDBF=T FulRan=T
         wScrn=  0.000000 ICntrl=       500 IOpCl=  0 I1Cent=   200000004 NGrid=           0
         NMat0=    1 NMatS0=      1 NMatT0=    0 NMatD0=    1 NMtDS0=    0 NMtDT0=    0
 Petite list used in FoFCou.
 Requested convergence on RMS density matrix=1.00D-08 within 128 cycles.
 Requested convergence on MAX density matrix=1.00D-06.
 Requested convergence on             energy=1.00D-06.
 No special actions if energy rises.
 SCF Done:  E(RB3LYP) =  -500.165533374     A.U. after    8 cycles
            NFock=  8  Conv=0.47D-08     -V/T= 2.0031
 Calling FoFJK, ICntrl=      2127 FMM=F ISym2X=1 I1Cent= 0 IOpClX= 0 NMat=1 NMatS=1 NMatT=0.
 ***** Axes restored to original set *****
 -------------------------------------------------------------------
 Center     Atomic                   Forces (Hartrees/Bohr)
 Number     Number              X              Y              Z
 -------------------------------------------------------------------
      1        6           0.005417740   -0.009383800    0.003830921
      2        1          -0.001329674    0.002303064   -0.000402945
      3        1          -0.000823125    0.002303064   -0.001119314
      4        1          -0.001582949    0.001864379   -0.001119314
      5       17          -0.001681991    0.002913294   -0.001189347
 -------------------------------------------------------------------
 Cartesian Forces:  Max     0.009383800 RMS     0.003331846

 GradGradGradGradGradGradGradGradGradGradGradGradGradGradGradGradGradGrad
 Berny optimization.
 Using GEDIIS/GDIIS optimizer.
 FormGI is forming the generalized inverse of G from B-inverse, IUseBI=4.
 Internal  Forces:  Max     0.003568042 RMS     0.001623244
 Search for a local minimum.
 Step number   3 out of a maximum of   24
 All quantities printed in internal units (Hartrees-Bohrs-Radians)
 Mixed Optimization -- RFO/linear search
 Update second derivatives using D2CorX and points    1    2    3
 DE= -1.21D-03 DEPred=-8.60D-04 R= 1.41D+00
 TightC=F SS=  1.41D+00  RLast= 1.05D-01 DXNew= 8.4853D-01 3.1562D-01
 Trust test= 1.41D+00 RLast= 1.05D-01 DXMaxT set to 5.05D-01
 The second derivative matrix:
                          R1        R2        R3        R4        A1
           R1           0.34759
           R2          -0.00054   0.34759
           R3          -0.00054  -0.00054   0.34759
           R4           0.01265   0.01265   0.01265   0.27022
           A1           0.00203   0.00203   0.00203  -0.03816   0.15318
           A2           0.00122   0.00122   0.00122  -0.03728  -0.00457
           A3          -0.00164  -0.00164  -0.00164   0.03788   0.00556
           A4           0.00122   0.00122   0.00122  -0.03728  -0.00457
           A5          -0.00164  -0.00164  -0.00164   0.03788   0.00556
           A6          -0.00117  -0.00117  -0.00117   0.03691   0.00430
           D1           0.00251   0.00251   0.00251   0.00094  -0.00722
           D2           0.00047   0.00047   0.00047  -0.00037  -0.00133
           D3           0.00024   0.00024   0.00024  -0.00019  -0.00066
           D4          -0.00024  -0.00024  -0.00024   0.00019   0.00066
                          A2        A3        A4        A5        A6
           A2           0.15809
           A3           0.00322   0.15569
           A4          -0.00191   0.00322   0.15809
           A5           0.00322  -0.00431   0.00322   0.15569
           A6           0.00172  -0.00299   0.00172  -0.00299   0.15846
           D1          -0.00856   0.00755  -0.00856   0.00755   0.00834
           D2          -0.00156   0.00138  -0.00156   0.00138   0.00152
           D3          -0.00078   0.00069  -0.00078   0.00069   0.00076
           D4           0.00078  -0.00069   0.00078  -0.00069  -0.00076
                          D1        D2        D3        D4
           D1           0.00682
           D2           0.00078   0.01791
           D3           0.00039   0.00007   0.01781
           D4          -0.00039  -0.00007  -0.00003   0.01781
 ITU=  1  1  0
 Use linear search instead of GDIIS.
     Eigenvalues ---    0.05584   0.06692   0.08037   0.15837   0.16000
     Eigenvalues ---    0.28764   0.34813   0.34813   0.35365
 RFO step:  Lambda=-1.80568967D-04 EMin= 5.58404999D-02
 Quartic linear search produced a step of  0.59648.
 Iteration  1 RMS(Cart)=  0.01280318 RMS(Int)=  0.00069775
 Iteration  2 RMS(Cart)=  0.00028869 RMS(Int)=  0.00063019
 Iteration  3 RMS(Cart)=  0.00000002 RMS(Int)=  0.00063019
 ClnCor:  largest displacement from symmetrization is 8.07D-04 for atom     4.
 Variable       Old X    -DE/DX   Delta X   Delta X   Delta X     New X
                                 (Linear)    (Quad)   (Total)
    R1        2.05279  -0.00041  -0.00294   0.00007  -0.00270   2.05010
    R2        2.05279  -0.00041  -0.00294   0.00007  -0.00270   2.05010
    R3        2.05279  -0.00041  -0.00294   0.00007  -0.00270   2.05010
    R4        3.36968   0.00357   0.04297  -0.00626   0.03671   3.40639
    A1        1.90730   0.00084   0.01358   0.01236   0.02380   1.93110
    A2        1.90730   0.00176   0.01358   0.01061   0.02380   1.93110
    A3        1.91396  -0.00128  -0.01319  -0.01123  -0.02426   1.88969
    A4        1.90730   0.00176   0.01358   0.01061   0.02380   1.93110
    A5        1.91396  -0.00128  -0.01319  -0.01123  -0.02426   1.88969
    A6        1.91396  -0.00178  -0.01319  -0.01089  -0.02426   1.88969
    D1       -2.08628  -0.00314  -0.03148  -0.02779  -0.06036  -2.14664
    D2        2.09440  -0.00055   0.00000   0.00129  -0.00000   2.09440
    D3       -2.09440  -0.00027  -0.00000   0.00065   0.00000  -2.09440
    D4        2.09440   0.00027  -0.00000  -0.00065   0.00000   2.09440
         Item               Value     Threshold  Converged?
 Maximum Force            0.003568     0.000450     NO 
 RMS     Force            0.001623     0.000300     NO 
 Maximum Displacement     0.029414     0.001800     NO 
 RMS     Displacement     0.012767     0.001200     NO 
 Predicted change in Energy=-2.297582D-04
 GradGradGradGradGradGradGradGradGradGradGradGradGradGradGradGradGradGrad

                          Input orientation:                          
 ---------------------------------------------------------------------
 Center     Atomic      Atomic             Coordinates (Angstroms)
 Number     Number       Type             X           Y           Z
 ---------------------------------------------------------------------
      1          6           0        0.021571   -0.037362    0.015253
      2          1           0        0.010213   -0.017689    1.099879
      3          1           0        1.040380   -0.017689   -0.356998
      4          1           0       -0.504871   -0.909840   -0.356998
      5         17           0       -0.828175    1.434441   -0.585608
 ---------------------------------------------------------------------
                    Distance matrix (angstroms):
                    1          2          3          4          5
     1  C    0.000000
     2  H    1.084864   0.000000
     3  H    1.084864   1.784302   0.000000
     4  H    1.084864   1.784302   1.784302   0.000000
     5  Cl   1.802583   2.377486   2.377486   2.377486   0.000000
 Stoichiometry    CH3Cl
 Framework group  C3V[C3(CCl),3SGV(H)]
 Deg. of freedom     3
 Full point group                 C3V     NOp   6
 Largest Abelian subgroup         CS      NOp   2
 Largest concise Abelian subgroup CS      NOp   2
                         Standard orientation:                         
 ---------------------------------------------------------------------
 Center     Atomic      Atomic             Coordinates (Angstroms)
 Number     Number       Type             X           Y           Z
 ---------------------------------------------------------------------
      1          6           0        0.000000   -0.000000   -1.139367
      2          1           0        0.000000    1.030167   -1.479492
      3          1           0       -0.892151   -0.515084   -1.479492
      4          1           0        0.892151   -0.515084   -1.479492
      5         17           0       -0.000000    0.000000    0.663216
 ---------------------------------------------------------------------
 Rotational constants (GHZ):         157.5053640          13.0682921          13.0682921
 Standard basis: Aug-CC-pVTZ (5D, 7F)
 There are   120 symmetry adapted cartesian basis functions of A'  symmetry.
 There are    69 symmetry adapted cartesian basis functions of A"  symmetry.
 There are   102 symmetry adapted basis functions of A'  symmetry.
 There are    63 symmetry adapted basis functions of A"  symmetry.
   165 basis functions,   267 primitive gaussians,   189 cartesian basis functions
    13 alpha electrons       13 beta electrons
       nuclear repulsion energy        50.9650351815 Hartrees.
 NAtoms=    5 NActive=    5 NUniq=    3 SFac= 2.78D+00 NAtFMM=   60 NAOKFM=F Big=F
 Integral buffers will be    131072 words long.
 Raffenetti 2 integral format.
 Two-electron integral symmetry is turned on.
 One-electron integrals computed using PRISM.
 NBasis=   165 RedAO= T EigKep=  7.51D-05  NBF=   102    63
 NBsUse=   165 1.00D-06 EigRej= -1.00D+00 NBFU=   102    63
 Initial guess from the checkpoint file:  "/dev/shm/edumont/8178217/Gau-45955.chk"
 B after Tr=     0.000000   -0.000000    0.000000
         Rot=    1.000000    0.000000    0.000000    0.000000 Ang=   0.00 deg.
 Initial guess orbital symmetries:
       Occupied  (A1) (A1) (A1) (A1) (E) (E) (A1) (A1) (E) (E)
                 (A1) (E) (E)
       Virtual   (A1) (A1) (E) (E) (A1) (A1) (E) (E) (E) (E) (A1)
                 (E) (E) (A1) (E) (E) (A1) (E) (E) (E) (E) (A1)
                 (A2) (A1) (E) (E) (A1) (E) (E) (E) (E) (A1) (E)
                 (E) (E) (E) (A1) (A1) (E) (E) (A1) (E) (E) (E)
                 (E) (A2) (E) (E) (A1) (E) (E) (A1) (E) (E) (A2)
                 (A1) (A1) (E) (E) (A1) (E) (E) (E) (E) (A2) (E)
                 (E) (A1) (E) (E) (A1) (A1) (E) (E) (A2) (E) (E)
                 (A1) (E) (E) (A1) (E) (E) (A1) (E) (E) (A2) (E)
                 (E) (E) (E) (A1) (A1) (E) (E) (E) (E) (A1) (E)
                 (E) (A1) (A1) (A2) (A1) (E) (E) (A1) (E) (E) (E)
                 (E) (E) (E) (A2) (A1) (E) (E) (E) (E) (E) (E)
                 (A1) (A2) (E) (E) (A1) (E) (E) (E) (E) (A1) (A1)
                 (E) (E) (A1) (A2) (E) (E) (E) (E) (A1) (A1) (E)
                 (E) (A2) (A1) (E) (E) (E) (E) (A1) (A1)
 ExpMin= 2.53D-02 ExpMax= 4.56D+05 ExpMxC= 1.44D+03 IAcc=3 IRadAn=         5 AccDes= 0.00D+00
 Harris functional with IExCor=  402 and IRadAn=       5 diagonalized for initial guess.
 HarFok:  IExCor=  402 AccDes= 0.00D+00 IRadAn=         5 IDoV= 1 UseB2=F ITyADJ=14
 ICtDFT=  3500011 ScaDFX=  1.000000  1.000000  1.000000  1.000000
 FoFCou: FMM=F IPFlag=           0 FMFlag=      100000 FMFlg1=           0
         NFxFlg=           0 DoJE=T BraDBF=F KetDBF=T FulRan=T
         wScrn=  0.000000 ICntrl=       500 IOpCl=  0 I1Cent=   200000004 NGrid=           0
         NMat0=    1 NMatS0=      1 NMatT0=    0 NMatD0=    1 NMtDS0=    0 NMtDT0=    0
 Petite list used in FoFCou.
 Requested convergence on RMS density matrix=1.00D-08 within 128 cycles.
 Requested convergence on MAX density matrix=1.00D-06.
 Requested convergence on             energy=1.00D-06.
 No special actions if energy rises.
 SCF Done:  E(RB3LYP) =  -500.165803727     A.U. after    8 cycles
            NFock=  8  Conv=0.64D-08     -V/T= 2.0032
 Calling FoFJK, ICntrl=      2127 FMM=F ISym2X=1 I1Cent= 0 IOpClX= 0 NMat=1 NMatS=1 NMatT=0.
 ***** Axes restored to original set *****
 -------------------------------------------------------------------
 Center     Atomic                   Forces (Hartrees/Bohr)
 Number     Number              X              Y              Z
 -------------------------------------------------------------------
      1        6           0.000131311   -0.000227437    0.000092851
      2        1          -0.000131535    0.000227825   -0.000248503
      3        1          -0.000278136    0.000227825   -0.000041178
      4        1          -0.000058234    0.000354785   -0.000041178
      5       17           0.000336594   -0.000582998    0.000238008
 -------------------------------------------------------------------
 Cartesian Forces:  Max     0.000582998 RMS     0.000255643

 GradGradGradGradGradGradGradGradGradGradGradGradGradGradGradGradGradGrad
 Berny optimization.
 Using GEDIIS/GDIIS optimizer.
 FormGI is forming the generalized inverse of G from B-inverse, IUseBI=4.
 Internal  Forces:  Max     0.000714023 RMS     0.000256672
 Search for a local minimum.
 Step number   4 out of a maximum of   24
 All quantities printed in internal units (Hartrees-Bohrs-Radians)
 Mixed Optimization -- En-DIIS/RFO-DIIS
 Update second derivatives using D2CorX and points    1    2    3    4
 DE= -2.70D-04 DEPred=-2.30D-04 R= 1.18D+00
 TightC=F SS=  1.41D+00  RLast= 9.21D-02 DXNew= 8.4853D-01 2.7624D-01
 Trust test= 1.18D+00 RLast= 9.21D-02 DXMaxT set to 5.05D-01
 The second derivative matrix:
                          R1        R2        R3        R4        A1
           R1           0.34724
           R2          -0.00089   0.34724
           R3          -0.00089  -0.00089   0.34724
           R4           0.01311   0.01311   0.01311   0.26689
           A1           0.00392   0.00392   0.00392  -0.03744   0.14360
           A2           0.00291   0.00291   0.00291  -0.03697  -0.01386
           A3          -0.00347  -0.00347  -0.00347   0.03831   0.01508
           A4           0.00291   0.00291   0.00291  -0.03697  -0.01386
           A5          -0.00347  -0.00347  -0.00347   0.03831   0.01508
           A6          -0.00289  -0.00289  -0.00289   0.03810   0.01366
           D1           0.00312   0.00312   0.00312  -0.00042  -0.00784
           D2           0.00059   0.00059   0.00059  -0.00030  -0.00150
           D3           0.00030   0.00030   0.00030  -0.00015  -0.00075
           D4          -0.00030  -0.00030  -0.00030   0.00015   0.00075
                          A2        A3        A4        A5        A6
           A2           0.15021
           A3           0.01202   0.14639
           A4          -0.00979   0.01202   0.15021
           A5           0.01202  -0.01361   0.01202   0.14639
           A6           0.00975  -0.01191   0.00975  -0.01191   0.15026
           D1          -0.01300   0.00962  -0.01300   0.00962   0.01248
           D2          -0.00240   0.00180  -0.00240   0.00180   0.00231
           D3          -0.00120   0.00090  -0.00120   0.00090   0.00115
           D4           0.00120  -0.00090   0.00120  -0.00090  -0.00115
                          D1        D2        D3        D4
           D1           0.01978
           D2           0.00305   0.01831
           D3           0.00153   0.00027   0.01791
           D4          -0.00153  -0.00027  -0.00013   0.01791
 ITU=  1  1  1  0
 Use linear search instead of GDIIS.
     Eigenvalues ---    0.05112   0.06925   0.07508   0.15849   0.16000
     Eigenvalues ---    0.28194   0.34813   0.34813   0.35214
 RFO step:  Lambda=-3.41388414D-06 EMin= 5.11180705D-02
 Quartic linear search produced a step of  0.03166.
 Iteration  1 RMS(Cart)=  0.00114019 RMS(Int)=  0.00001537
 Iteration  2 RMS(Cart)=  0.00000125 RMS(Int)=  0.00001532
 Iteration  3 RMS(Cart)=  0.00000000 RMS(Int)=  0.00001532
 ClnCor:  largest displacement from symmetrization is 2.36D-05 for atom     4.
 Variable       Old X    -DE/DX   Delta X   Delta X   Delta X     New X
                                 (Linear)    (Quad)   (Total)
    R1        2.05010  -0.00024  -0.00009  -0.00062  -0.00070   2.04939
    R2        2.05010  -0.00024  -0.00009  -0.00062  -0.00070   2.04939
    R3        2.05010  -0.00024  -0.00009  -0.00062  -0.00070   2.04939
    R4        3.40639  -0.00071   0.00116  -0.00249  -0.00132   3.40506
    A1        1.93110   0.00008   0.00075   0.00071   0.00142   1.93252
    A2        1.93110   0.00017   0.00075   0.00068   0.00142   1.93252
    A3        1.88969  -0.00013  -0.00077  -0.00073  -0.00149   1.88820
    A4        1.93110   0.00017   0.00075   0.00068   0.00142   1.93252
    A5        1.88969  -0.00013  -0.00077  -0.00073  -0.00149   1.88820
    A6        1.88969  -0.00017  -0.00077  -0.00071  -0.00149   1.88820
    D1       -2.14664  -0.00033  -0.00191  -0.00184  -0.00379  -2.15043
    D2        2.09440  -0.00005  -0.00000   0.00002  -0.00000   2.09440
    D3       -2.09440  -0.00003   0.00000   0.00001   0.00000  -2.09440
    D4        2.09440   0.00003   0.00000  -0.00001   0.00000   2.09440
         Item               Value     Threshold  Converged?
 Maximum Force            0.000714     0.000450     NO 
 RMS     Force            0.000257     0.000300     YES
 Maximum Displacement     0.002389     0.001800     NO 
 RMS     Displacement     0.001142     0.001200     YES
 Predicted change in Energy=-1.942928D-06
 GradGradGradGradGradGradGradGradGradGradGradGradGradGradGradGradGradGrad

                          Input orientation:                          
 ---------------------------------------------------------------------
 Center     Atomic      Atomic             Coordinates (Angstroms)
 Number     Number       Type             X           Y           Z
 ---------------------------------------------------------------------
      1          6           0        0.021970   -0.038054    0.015535
      2          1           0        0.009809   -0.016990    1.099755
      3          1           0        1.040129   -0.016990   -0.357337
      4          1           0       -0.505351   -0.909273   -0.357337
      5         17           0       -0.827445    1.433177   -0.585092
 ---------------------------------------------------------------------
                    Distance matrix (angstroms):
                    1          2          3          4          5
     1  C    0.000000
     2  H    1.084492   0.000000
     3  H    1.084492   1.784566   0.000000
     4  H    1.084492   1.784566   1.784566   0.000000
     5  Cl   1.801882   2.375434   2.375434   2.375434   0.000000
 Stoichiometry    CH3Cl
 Framework group  C3V[C3(CCl),3SGV(H)]
 Deg. of freedom     3
 Full point group                 C3V     NOp   6
 Largest Abelian subgroup         CS      NOp   2
 Largest concise Abelian subgroup CS      NOp   2
                         Standard orientation:                         
 ---------------------------------------------------------------------
 Center     Atomic      Atomic             Coordinates (Angstroms)
 Number     Number       Type             X           Y           Z
 ---------------------------------------------------------------------
      1          6           0       -0.000000    0.000000   -1.139099
      2          1           0        0.000000    1.030320   -1.477574
      3          1           0       -0.892283   -0.515160   -1.477574
      4          1           0        0.892283   -0.515160   -1.477574
      5         17           0        0.000000   -0.000000    0.662783
 ---------------------------------------------------------------------
 Rotational constants (GHZ):         157.4587498          13.0827844          13.0827844
 Standard basis: Aug-CC-pVTZ (5D, 7F)
 There are   120 symmetry adapted cartesian basis functions of A'  symmetry.
 There are    69 symmetry adapted cartesian basis functions of A"  symmetry.
 There are   102 symmetry adapted basis functions of A'  symmetry.
 There are    63 symmetry adapted basis functions of A"  symmetry.
   165 basis functions,   267 primitive gaussians,   189 cartesian basis functions
    13 alpha electrons       13 beta electrons
       nuclear repulsion energy        50.9893645060 Hartrees.
 NAtoms=    5 NActive=    5 NUniq=    3 SFac= 2.78D+00 NAtFMM=   60 NAOKFM=F Big=F
 Integral buffers will be    131072 words long.
 Raffenetti 2 integral format.
 Two-electron integral symmetry is turned on.
 One-electron integrals computed using PRISM.
 NBasis=   165 RedAO= T EigKep=  7.49D-05  NBF=   102    63
 NBsUse=   165 1.00D-06 EigRej= -1.00D+00 NBFU=   102    63
 Initial guess from the checkpoint file:  "/dev/shm/edumont/8178217/Gau-45955.chk"
 B after Tr=     0.000000    0.000000    0.000000
         Rot=    1.000000   -0.000000    0.000000   -0.000000 Ang=   0.00 deg.
 Initial guess orbital symmetries:
       Occupied  (A1) (A1) (A1) (A1) (E) (E) (A1) (A1) (E) (E)
                 (A1) (E) (E)
       Virtual   (A1) (A1) (E) (E) (A1) (A1) (E) (E) (A1) (E) (E)
                 (E) (E) (A1) (E) (E) (A1) (E) (E) (E) (E) (A1)
                 (A2) (A1) (E) (E) (A1) (E) (E) (E) (E) (A1) (E)
                 (E) (E) (E) (A1) (A1) (E) (E) (A1) (E) (E) (E)
                 (E) (A2) (E) (E) (A1) (E) (E) (A1) (A2) (E) (E)
                 (A1) (A1) (E) (E) (A1) (E) (E) (E) (E) (A2) (E)
                 (E) (A1) (E) (E) (A1) (A1) (E) (E) (A2) (E) (E)
                 (A1) (E) (E) (A1) (E) (E) (A1) (E) (E) (A2) (E)
                 (E) (A1) (E) (E) (A1) (E) (E) (E) (E) (A1) (E)
                 (E) (A1) (A1) (A2) (A1) (E) (E) (A1) (E) (E) (E)
                 (E) (E) (E) (A1) (A2) (E) (E) (E) (E) (E) (E)
                 (A2) (A1) (E) (E) (A1) (E) (E) (E) (E) (A1) (A1)
                 (E) (E) (A1) (A2) (E) (E) (E) (E) (A1) (A1) (E)
                 (E) (A2) (A1) (E) (E) (E) (E) (A1) (A1)
 Requested convergence on RMS density matrix=1.00D-08 within 128 cycles.
 Requested convergence on MAX density matrix=1.00D-06.
 Requested convergence on             energy=1.00D-06.
 No special actions if energy rises.
 SCF Done:  E(RB3LYP) =  -500.165806056     A.U. after    6 cycles
            NFock=  6  Conv=0.65D-08     -V/T= 2.0031
 Calling FoFJK, ICntrl=      2127 FMM=F ISym2X=1 I1Cent= 0 IOpClX= 0 NMat=1 NMatS=1 NMatT=0.
 ***** Axes restored to original set *****
 -------------------------------------------------------------------
 Center     Atomic                   Forces (Hartrees/Bohr)
 Number     Number              X              Y              Z
 -------------------------------------------------------------------
      1        6          -0.000028001    0.000048500   -0.000019800
      2        1          -0.000022404    0.000038805   -0.000024910
      3        1          -0.000030953    0.000038805   -0.000012819
      4        1          -0.000018129    0.000046209   -0.000012819
      5       17           0.000099488   -0.000172318    0.000070349
 -------------------------------------------------------------------
 Cartesian Forces:  Max     0.000172318 RMS     0.000061076

 GradGradGradGradGradGradGradGradGradGradGradGradGradGradGradGradGradGrad
 Berny optimization.
 Using GEDIIS/GDIIS optimizer.
 FormGI is forming the generalized inverse of G from B-inverse, IUseBI=4.
 Internal  Forces:  Max     0.000211046 RMS     0.000061512
 Search for a local minimum.
 Step number   5 out of a maximum of   24
 All quantities printed in internal units (Hartrees-Bohrs-Radians)
 Mixed Optimization -- En-DIIS/RFO-DIIS
 Swapping is turned off.
 Update second derivatives using D2CorX and points    1    2    3    4    5
 DE= -2.33D-06 DEPred=-1.94D-06 R= 1.20D+00
 TightC=F SS=  1.41D+00  RLast= 5.50D-03 DXNew= 8.4853D-01 1.6499D-02
 Trust test= 1.20D+00 RLast= 5.50D-03 DXMaxT set to 5.05D-01
 The second derivative matrix:
                          R1        R2        R3        R4        A1
           R1           0.34728
           R2          -0.00085   0.34728
           R3          -0.00085  -0.00085   0.34728
           R4           0.00485   0.00485   0.00485   0.21798
           A1           0.00690   0.00690   0.00690  -0.01125   0.13654
           A2           0.00537   0.00537   0.00537  -0.01640  -0.02116
           A3          -0.00615  -0.00615  -0.00615   0.01377   0.02243
           A4           0.00537   0.00537   0.00537  -0.01640  -0.02116
           A5          -0.00615  -0.00615  -0.00615   0.01377   0.02243
           A6          -0.00546  -0.00546  -0.00546   0.01616   0.02121
           D1           0.00572   0.00572   0.00572   0.02021  -0.00715
           D2           0.00094   0.00094   0.00094   0.00317  -0.00138
           D3           0.00047   0.00047   0.00047   0.00159  -0.00069
           D4          -0.00047  -0.00047  -0.00047  -0.00159   0.00069
                          A2        A3        A4        A5        A6
           A2           0.14359
           A3           0.01920   0.13893
           A4          -0.01641   0.01920   0.14359
           A5           0.01920  -0.02107   0.01920   0.13893
           A6           0.01669  -0.01938   0.01669  -0.01938   0.14298
           D1          -0.01579   0.01055  -0.01579   0.01055   0.01509
           D2          -0.00285   0.00194  -0.00285   0.00194   0.00271
           D3          -0.00142   0.00097  -0.00142   0.00097   0.00136
           D4           0.00142  -0.00097   0.00142  -0.00097  -0.00136
                          D1        D2        D3        D4
           D1           0.03281
           D2           0.00518   0.01865
           D3           0.00259   0.00044   0.01799
           D4          -0.00259  -0.00044  -0.00022   0.01799
 ITU=  1  1  1  1  0
     Eigenvalues ---    0.05102   0.06939   0.07522   0.15852   0.16000
     Eigenvalues ---    0.22874   0.34636   0.34813   0.34813
 En-DIIS/RFO-DIIS/Sim-DIIS IScMMF=       -3 using points:     5    4
 RFO step:  Lambda=-2.38065073D-07.
 DidBck=F Rises=F RFO-DIIS coefs:    1.16344   -0.16344
 Iteration  1 RMS(Cart)=  0.00029270 RMS(Int)=  0.00000030
 Iteration  2 RMS(Cart)=  0.00000002 RMS(Int)=  0.00000030
 ClnCor:  largest displacement from symmetrization is 2.36D-06 for atom     4.
 Variable       Old X    -DE/DX   Delta X   Delta X   Delta X     New X
                                 (Linear)    (Quad)   (Total)
    R1        2.04939  -0.00002  -0.00011   0.00005  -0.00007   2.04932
    R2        2.04939  -0.00002  -0.00011   0.00005  -0.00007   2.04932
    R3        2.04939  -0.00002  -0.00011   0.00005  -0.00007   2.04932
    R4        3.40506  -0.00021  -0.00022  -0.00062  -0.00084   3.40423
    A1        1.93252   0.00001   0.00023  -0.00004   0.00019   1.93271
    A2        1.93252   0.00003   0.00023  -0.00004   0.00019   1.93271
    A3        1.88820  -0.00002  -0.00024   0.00004  -0.00020   1.88800
    A4        1.93252   0.00003   0.00023  -0.00004   0.00019   1.93271
    A5        1.88820  -0.00002  -0.00024   0.00004  -0.00020   1.88800
    A6        1.88820  -0.00003  -0.00024   0.00004  -0.00020   1.88800
    D1       -2.15043  -0.00006  -0.00062   0.00010  -0.00052  -2.15094
    D2        2.09440  -0.00001   0.00000  -0.00000   0.00000   2.09440
    D3       -2.09440  -0.00000  -0.00000  -0.00000   0.00000  -2.09440
    D4        2.09440   0.00000   0.00000   0.00000   0.00000   2.09440
         Item               Value     Threshold  Converged?
 Maximum Force            0.000211     0.000450     YES
 RMS     Force            0.000062     0.000300     YES
 Maximum Displacement     0.000750     0.001800     YES
 RMS     Displacement     0.000293     0.001200     YES
 Predicted change in Energy=-1.190328D-07
 Optimization completed.
    -- Stationary point found.
                           ----------------------------
                           !   Optimized Parameters   !
                           ! (Angstroms and Degrees)  !
 --------------------------                            --------------------------
 ! Name  Definition              Value          Derivative Info.                !
 --------------------------------------------------------------------------------
 ! R1    R(1,2)                  1.0845         -DE/DX =    0.0                 !
 ! R2    R(1,3)                  1.0845         -DE/DX =    0.0                 !
 ! R3    R(1,4)                  1.0845         -DE/DX =    0.0                 !
 ! R4    R(1,5)                  1.8019         -DE/DX =   -0.0002              !
 ! A1    A(2,1,3)              110.7252         -DE/DX =    0.0                 !
 ! A2    A(2,1,4)              110.7252         -DE/DX =    0.0                 !
 ! A3    A(2,1,5)              108.1861         -DE/DX =    0.0                 !
 ! A4    A(3,1,4)              110.7252         -DE/DX =    0.0                 !
 ! A5    A(3,1,5)              108.1861         -DE/DX =    0.0                 !
 ! A6    A(4,1,5)              108.1861         -DE/DX =    0.0                 !
 ! D1    D(2,1,4,3)           -123.2104         -DE/DX =   -0.0001              !
 ! D2    D(2,1,5,3)            120.0            -DE/DX =    0.0                 !
 ! D3    D(2,1,5,4)           -120.0            -DE/DX =    0.0                 !
 ! D4    D(3,1,5,4)            120.0            -DE/DX =    0.0                 !
 --------------------------------------------------------------------------------
 GradGradGradGradGradGradGradGradGradGradGradGradGradGradGradGradGradGrad

                          Input orientation:                          
 ---------------------------------------------------------------------
 Center     Atomic      Atomic             Coordinates (Angstroms)
 Number     Number       Type             X           Y           Z
 ---------------------------------------------------------------------
      1          6           0        0.021970   -0.038054    0.015535
      2          1           0        0.009809   -0.016990    1.099755
      3          1           0        1.040129   -0.016990   -0.357337
      4          1           0       -0.505351   -0.909273   -0.357337
      5         17           0       -0.827445    1.433177   -0.585092
 ---------------------------------------------------------------------
                    Distance matrix (angstroms):
                    1          2          3          4          5
     1  C    0.000000
     2  H    1.084492   0.000000
     3  H    1.084492   1.784566   0.000000
     4  H    1.084492   1.784566   1.784566   0.000000
     5  Cl   1.801882   2.375434   2.375434   2.375434   0.000000
 Stoichiometry    CH3Cl
 Framework group  C3V[C3(CCl),3SGV(H)]
 Deg. of freedom     3
 Full point group                 C3V     NOp   6
 Largest Abelian subgroup         CS      NOp   2
 Largest concise Abelian subgroup CS      NOp   2
                         Standard orientation:                         
 ---------------------------------------------------------------------
 Center     Atomic      Atomic             Coordinates (Angstroms)
 Number     Number       Type             X           Y           Z
 ---------------------------------------------------------------------
      1          6           0        0.000000   -0.000000   -1.139099
      2          1           0        0.000000    1.030320   -1.477574
      3          1           0       -0.892283   -0.515160   -1.477574
      4          1           0        0.892283   -0.515160   -1.477574
      5         17           0       -0.000000    0.000000    0.662783
 ---------------------------------------------------------------------
 Rotational constants (GHZ):         157.4587498          13.0827844          13.0827844

 **********************************************************************

            Population analysis using the SCF Density.

 **********************************************************************

 Orbital symmetries:
       Occupied  (A1) (A1) (A1) (A1) (E) (E) (A1) (A1) (E) (E)
                 (A1) (E) (E)
       Virtual   (A1) (A1) (E) (E) (A1) (A1) (E) (E) (A1) (E) (E)
                 (E) (E) (A1) (E) (E) (A1) (E) (E) (E) (E) (A1)
                 (A2) (A1) (E) (E) (A1) (E) (E) (E) (E) (A1) (E)
                 (E) (E) (E) (A1) (A1) (E) (E) (A1) (E) (E) (E)
                 (E) (A2) (E) (E) (A1) (E) (E) (A1) (A2) (E) (E)
                 (A1) (A1) (E) (E) (A1) (E) (E) (E) (E) (A2) (E)
                 (E) (A1) (E) (E) (A1) (A1) (E) (E) (A2) (A1) (E)
                 (E) (E) (E) (A1) (E) (E) (A1) (E) (E) (A2) (E)
                 (E) (A1) (E) (E) (A1) (E) (E) (E) (E) (A1) (E)
                 (E) (A1) (A1) (A2) (A1) (E) (E) (A1) (E) (E) (E)
                 (E) (E) (E) (A1) (A2) (E) (E) (E) (E) (E) (E)
                 (A2) (A1) (E) (E) (A1) (E) (E) (E) (E) (A1) (A1)
                 (E) (E) (A1) (A2) (E) (E) (E) (E) (A1) (A1) (E)
                 (E) (A2) (A1) (E) (E) (E) (E) (A1) (A1)
 The electronic state is 1-A1.
 Alpha  occ. eigenvalues -- -101.55308 -10.23382  -9.45737  -7.22067  -7.21149
 Alpha  occ. eigenvalues --   -7.21149  -0.85267  -0.68429  -0.45640  -0.45640
 Alpha  occ. eigenvalues --   -0.41577  -0.30327  -0.30327
 Alpha virt. eigenvalues --   -0.01798   0.00182   0.01896   0.01896   0.04983
 Alpha virt. eigenvalues --    0.07497   0.08246   0.08246   0.08767   0.08880
 Alpha virt. eigenvalues --    0.08880   0.11290   0.11290   0.17164   0.18762
 Alpha virt. eigenvalues --    0.18762   0.21353   0.24024   0.24024   0.26465
 Alpha virt. eigenvalues --    0.26465   0.26768   0.27544   0.30472   0.32620
 Alpha virt. eigenvalues --    0.32620   0.33460   0.34434   0.34434   0.38505
 Alpha virt. eigenvalues --    0.38505   0.38958   0.41687   0.41687   0.51713
 Alpha virt. eigenvalues --    0.51713   0.56799   0.57693   0.64406   0.64406
 Alpha virt. eigenvalues --    0.65695   0.70145   0.70145   0.71834   0.71834
 Alpha virt. eigenvalues --    0.73799   0.75014   0.75014   0.79046   0.80914
 Alpha virt. eigenvalues --    0.80914   0.81648   0.87243   0.87296   0.87296
 Alpha virt. eigenvalues --    0.88309   0.91751   0.93903   0.93903   0.97222
 Alpha virt. eigenvalues --    0.97879   0.97879   1.02795   1.02795   1.10191
 Alpha virt. eigenvalues --    1.11082   1.11082   1.20738   1.21873   1.21873
 Alpha virt. eigenvalues --    1.29571   1.36273   1.37342   1.37342   1.44154
 Alpha virt. eigenvalues --    1.46216   1.46219   1.46219   1.48914   1.48914
 Alpha virt. eigenvalues --    1.52977   1.60403   1.60403   1.69190   1.71059
 Alpha virt. eigenvalues --    1.71059   1.77314   1.82426   1.82426   1.95384
 Alpha virt. eigenvalues --    1.96821   1.96821   2.18770   2.28114   2.28114
 Alpha virt. eigenvalues --    2.33292   2.33292   2.37850   2.56044   2.56044
 Alpha virt. eigenvalues --    2.65273   2.68215   2.76149   2.79992   2.81002
 Alpha virt. eigenvalues --    2.81002   2.84429   2.91404   2.91404   3.01570
 Alpha virt. eigenvalues --    3.01570   3.21729   3.21729   3.23293   3.24418
 Alpha virt. eigenvalues --    3.26088   3.26088   3.45135   3.45135   3.56952
 Alpha virt. eigenvalues --    3.56952   3.72329   3.72745   3.74249   3.74249
 Alpha virt. eigenvalues --    3.81197   3.87735   3.87735   4.14544   4.14544
 Alpha virt. eigenvalues --    4.16108   4.36339   4.39525   4.39525   4.50999
 Alpha virt. eigenvalues --    4.56878   4.65977   4.65977   4.82988   4.82988
 Alpha virt. eigenvalues --    4.86593   5.16116   5.16355   5.16355   5.30684
 Alpha virt. eigenvalues --    5.56747   5.66858   5.66858   6.20854   6.20854
 Alpha virt. eigenvalues --    6.99750  16.01061
          Condensed to atoms (all electrons):
               1          2          3          4          5
     1  C    5.219939   0.398021   0.398021   0.398021   0.096865
     2  H    0.398021   0.376003   0.001251   0.001251  -0.008344
     3  H    0.398021   0.001251   0.376003   0.001251  -0.008344
     4  H    0.398021   0.001251   0.001251   0.376003  -0.008344
     5  Cl   0.096865  -0.008344  -0.008344  -0.008344  17.112755
 Mulliken charges:
               1
     1  C   -0.510866
     2  H    0.231818
     3  H    0.231818
     4  H    0.231818
     5  Cl  -0.184587
 Sum of Mulliken charges =  -0.00000
 Mulliken charges with hydrogens summed into heavy atoms:
               1
     1  C    0.184587
     5  Cl  -0.184587
 Electronic spatial extent (au):  <R**2>=            132.7140
 Charge=             -0.0000 electrons
 Dipole moment (field-independent basis, Debye):
    X=             -0.0000    Y=             -0.0000    Z=             -1.9870  Tot=              1.9870
 Quadrupole moment (field-independent basis, Debye-Ang):
   XX=            -20.0739   YY=            -20.0739   ZZ=            -18.3374
   XY=             -0.0000   XZ=             -0.0000   YZ=              0.0000
 Traceless Quadrupole moment (field-independent basis, Debye-Ang):
   XX=             -0.5788   YY=             -0.5788   ZZ=              1.1576
   XY=             -0.0000   XZ=             -0.0000   YZ=              0.0000
 Octapole moment (field-independent basis, Debye-Ang**2):
  XXX=             -0.0000  YYY=              0.7950  ZZZ=              2.0646  XYY=              0.0000
  XXY=             -0.7950  XXZ=             -0.9974  XZZ=              0.0000  YZZ=             -0.0000
  YYZ=             -0.9974  XYZ=              0.0000
 Hexadecapole moment (field-independent basis, Debye-Ang**3):
 XXXX=            -29.7734 YYYY=            -29.7734 ZZZZ=           -120.2506 XXXY=             -0.0000
 XXXZ=             -0.0000 YYYX=             -0.0000 YYYZ=             -1.1730 ZZZX=             -0.0000
 ZZZY=              0.0000 XXYY=             -9.9245 XXZZ=            -25.0425 YYZZ=            -25.0425
 XXYZ=              1.1730 YYXZ=             -0.0000 ZZXY=             -0.0000
 N-N= 5.098936450600D+01 E-N=-1.288223039906D+03  KE= 4.985977582550D+02
 Symmetry A'   KE= 4.508127249266D+02
 Symmetry A"   KE= 4.778503332844D+01
 B after Tr=     0.053218   -0.092177    0.037630
         Rot=    1.000000    0.000001    0.000002   -0.000002 Ang=   0.00 deg.
 Final structure in terms of initial Z-matrix:
 C
 H,1,hc2
 H,1,hc3,2,hch3
 H,1,hc4,3,hch4,2,dih4,0
 Cl,1,clc5,4,clch5,3,dih5,0
      Variables:
 hc2=1.0844925
 hc3=1.0844925
 hch3=110.72519705
 hc4=1.0844925
 hch4=110.72519705
 dih4=-123.21038966
 clc5=1.80188234
 clch5=108.18610203
 dih5=118.39480517
 1\1\GINC-XLR178NODE096\FOpt\RB3LYP\Aug-CC-pVTZ\C1H3Cl1\EDUMONT\29-Jan-
 2021\0\\#n b3lyp/aug-cc-pvtz opt freq\\Energy of chloromethane using t
 he AM1 hamiltonian\\0,1\C,0.0219704487,-0.0380539335,0.0155354533\H,0.
 0098091286,-0.0169899092,1.0997551654\H,1.0401288231,-0.0169899092,-0.
 35733692\H,-0.5053507186,-0.9092729386,-0.35733692\Cl,-0.8274450318,1.
 4331768356,-0.5850919931\\Version=ES64L-G16RevB.01\State=1-A1\HF=-500.
 1658061\RMSD=6.495e-09\RMSF=6.108e-05\Dipole=0.3685189,-0.6382934,0.26
 05822\Quadrupole=-0.1434449,0.4303347,-0.2868898,-0.4969077,0.2028617,
 -0.3513668\PG=C03V [C3(C1Cl1),3SGV(H1)]\\@


 I WISH TO HAVE NO CONNECTION WITH ANY SHIP THAT DOES NOT SAIL FAST,
 FOR I INTEND TO GO IN HARM'S WAY.
     -- JOHN PAUL JONES, USN 1747-1792
 Job cpu time:       0 days  0 hours  2 minutes 58.1 seconds.
 Elapsed time:       0 days  0 hours  2 minutes 58.6 seconds.
 File lengths (MBytes):  RWF=     23 Int=      0 D2E=      0 Chk=      3 Scr=      1
 Normal termination of Gaussian 16 at Fri Jan 29 22:04:23 2021.
 Link1:  Proceeding to internal job step number  2.
 ----------------------------------------------------------------------
 #N Geom=AllCheck Guess=TCheck SCRF=Check GenChk RB3LYP/Aug-CC-pVTZ Fre
 q
 ----------------------------------------------------------------------
 1/10=4,29=7,30=1,38=1,40=1/1,3;
 2/12=2,40=1/2;
 3/5=16,6=1,7=10,11=2,14=-4,25=1,30=1,70=2,71=2,74=-5,116=1,140=1/1,2,3;
 4/5=101/1;
 5/5=2,38=6,98=1/2;
 8/6=4,10=90,11=11/1;
 11/6=1,8=1,9=11,15=111,16=1/1,2,10;
 10/6=1/2;
 6/7=2,8=2,9=2,10=2,28=1/1;
 7/8=1,10=1,25=1/1,2,3,16;
 1/10=4,30=1/3;
 99//99;
 Structure from the checkpoint file:  "/dev/shm/edumont/8178217/Gau-45955.chk"
 -------------------------------------------------
 Energy of chloromethane using the AM1 hamiltonian
 -------------------------------------------------
 Charge =  0 Multiplicity = 1
 Redundant internal coordinates found in file.  (old form).
 C,0,0.0219704487,-0.0380539335,0.0155354533
 H,0,0.0098091286,-0.0169899092,1.0997551654
 H,0,1.0401288231,-0.0169899092,-0.35733692
 H,0,-0.5053507186,-0.9092729386,-0.35733692
 Cl,0,-0.8274450318,1.4331768356,-0.5850919931
 Recover connectivity data from disk.

 GradGradGradGradGradGradGradGradGradGradGradGradGradGradGradGradGradGrad
 Berny optimization.
 Initialization pass.
                           ----------------------------
                           !    Initial Parameters    !
                           ! (Angstroms and Degrees)  !
 --------------------------                            --------------------------
 ! Name  Definition              Value          Derivative Info.                !
[...]
 Octapole moment (field-independent basis, Debye-Ang**2):
  XXX=              0.0000  YYY=              0.7950  ZZZ=              2.0646  XYY=              0.0000
  XXY=             -0.7950  XXZ=             -0.9974  XZZ=             -0.0000  YZZ=             -0.0000
  YYZ=             -0.9974  XYZ=              0.0000
 Hexadecapole moment (field-independent basis, Debye-Ang**3):
 XXXX=            -29.7734 YYYY=            -29.7734 ZZZZ=           -120.2506 XXXY=              0.0000
 XXXZ=             -0.0000 YYYX=             -0.0000 YYYZ=             -1.1730 ZZZX=             -0.0000
 ZZZY=              0.0000 XXYY=             -9.9245 XXZZ=            -25.0425 YYZZ=            -25.0425
 XXYZ=              1.1730 YYXZ=             -0.0000 ZZXY=             -0.0000
 N-N= 5.098936450600D+01 E-N=-1.288223041717D+03  KE= 4.985977592793D+02
 Symmetry A'   KE= 4.508127257138D+02
 Symmetry A"   KE= 4.778503356550D+01
  Exact polarizability:  26.516  -0.000  26.518   0.000   0.000  36.957
 Approx polarizability:  36.975   0.000  36.975  -0.000  -0.000  51.865
 Calling FoFJK, ICntrl=    100127 FMM=F ISym2X=1 I1Cent= 0 IOpClX= 0 NMat=1 NMatS=1 NMatT=0.
 Full mass-weighted force constant matrix:
 Low frequencies ---   -0.0357   -0.0071   -0.0054    8.9534   13.2943   13.2976
 Low frequencies ---  706.7427 1025.6137 1025.6138
 Diagonal vibrational polarizability:
        0.1376342       0.1376367       1.6946372
 Harmonic frequencies (cm**-1), IR intensities (KM/Mole), Raman scattering
 activities (A**4/AMU), depolarization ratios for plane and unpolarized
 incident light, reduced masses (AMU), force constants (mDyne/A),
 and normal coordinates:
                      1                      2                      3
                     A1                      E                      E
 Frequencies --    706.7427              1025.6137              1025.6138
 Red. masses --      7.4711                 1.1652                 1.1652
 Frc consts  --      2.1987                 0.7222                 0.7222
 IR Inten    --     27.1210                 2.0595                 2.0596
  Atom  AN      X      Y      Z        X      Y      Z        X      Y      Z
     1   6    -0.00   0.00   0.63    -0.11   0.00  -0.00    -0.00  -0.11   0.00
     2   1     0.00  -0.06   0.42     0.27  -0.00  -0.00     0.00   0.13   0.76
     3   1     0.05   0.03   0.42     0.16  -0.06  -0.65    -0.06   0.23  -0.38
     4   1    -0.05   0.03   0.42     0.16   0.06   0.65     0.06   0.23  -0.38
     5  17     0.00  -0.00  -0.25     0.02  -0.00   0.00     0.00   0.02  -0.00
                      4                      5                      6
                     A1                      E                      E
 Frequencies --   1375.4435              1482.7256              1482.7257
 Red. masses --      1.1263                 1.0569                 1.0569
 Frc consts  --      1.2554                 1.3690                 1.3690
 IR Inten    --     11.7696                 6.0789                 6.0792
  Atom  AN      X      Y      Z        X      Y      Z        X      Y      Z
     1   6     0.00   0.00  -0.10    -0.07   0.00  -0.00    -0.00  -0.07  -0.00
     2   1    -0.00   0.19   0.54     0.74   0.00   0.00     0.00  -0.14  -0.31
     3   1    -0.16  -0.09   0.54     0.08  -0.38   0.27    -0.38   0.52   0.16
     4   1     0.16  -0.09   0.54     0.08   0.38  -0.27     0.38   0.52   0.16
     5  17    -0.00  -0.00  -0.01    -0.00   0.00  -0.00    -0.00  -0.00   0.00
                      7                      8                      9
                     A1                      E                      E
 Frequencies --   3072.7558              3167.4620              3167.4620
 Red. masses --      1.0260                 1.1092                 1.1092
 Frc consts  --      5.7075                 6.5564                 6.5564
 IR Inten    --     23.1551                 3.9266                 3.9259
  Atom  AN      X      Y      Z        X      Y      Z        X      Y      Z
     1   6    -0.00   0.00   0.04    -0.10   0.00   0.00    -0.00  -0.10  -0.00
     2   1    -0.00   0.55  -0.16    -0.02  -0.00   0.00    -0.00   0.78  -0.24
     3   1    -0.48  -0.28  -0.16     0.58   0.34   0.21     0.34   0.18   0.12
     4   1     0.48  -0.28  -0.16     0.58  -0.34  -0.21    -0.34   0.18   0.12
     5  17     0.00   0.00   0.00     0.00  -0.00  -0.00     0.00   0.00   0.00

 -------------------
 - Thermochemistry -
 -------------------
 Temperature   298.150 Kelvin.  Pressure   1.00000 Atm.
 Atom     1 has atomic number  6 and mass  12.00000
 Atom     2 has atomic number  1 and mass   1.00783
 Atom     3 has atomic number  1 and mass   1.00783
 Atom     4 has atomic number  1 and mass   1.00783
 Atom     5 has atomic number 17 and mass  34.96885
 Molecular mass:    49.99233 amu.
 Principal axes and moments of inertia in atomic units:
                           1         2         3
     Eigenvalues --    11.46168 137.94779 137.94779
           X            0.00000  -0.11509   0.99335
           Y           -0.00000   0.99335   0.11509
           Z            1.00000   0.00000  -0.00000
 This molecule is a prolate symmetric top.
 Rotational symmetry number  3.
 Rotational temperatures (Kelvin)      7.55683     0.62787     0.62787
 Rotational constants (GHZ):         157.45875    13.08278    13.08278
 Zero-point vibrational energy      98731.1 (Joules/Mol)
                                   23.59729 (Kcal/Mol)
 Vibrational temperatures:   1016.85  1475.63  1475.63  1978.96  2133.31
          (Kelvin)           2133.31  4421.01  4557.27  4557.27
 
 Zero-point correction=                           0.037605 (Hartree/Particle)
 Thermal correction to Energy=                    0.040633
 Thermal correction to Enthalpy=                  0.041577
 Thermal correction to Gibbs Free Energy=         0.014971
 Sum of electronic and zero-point Energies=           -500.128201
 Sum of electronic and thermal Energies=              -500.125173
 Sum of electronic and thermal Enthalpies=            -500.124229
 Sum of electronic and thermal Free Energies=         -500.150835
 
                     E (Thermal)             CV                S
                      KCal/Mol        Cal/Mol-Kelvin    Cal/Mol-Kelvin
 Total                   25.497              7.752             55.997
 Electronic               0.000              0.000              0.000
 Translational            0.889              2.981             37.651
 Rotational               0.889              2.981             17.834
 Vibrational             23.720              1.791              0.512
                       Q            Log10(Q)             Ln(Q)
 Total Bot       0.130002D-06         -6.886051        -15.855719
 Total V=0       0.257563D+11         10.410884         23.971946
 Vib (Bot)       0.530978D-17        -17.274923        -39.776981
 Vib (V=0)       0.105199D+01          0.022012          0.050684
 Electronic      0.100000D+01          0.000000          0.000000
 Translational   0.138934D+08          7.142809         16.446925
 Rotational      0.176223D+04          3.246063          7.474337
 ***** Axes restored to original set *****
 -------------------------------------------------------------------
 Center     Atomic                   Forces (Hartrees/Bohr)
 Number     Number              X              Y              Z
 -------------------------------------------------------------------
      1        6          -0.000028015    0.000048524   -0.000019810
      2        1          -0.000022406    0.000038809   -0.000024928
      3        1          -0.000030971    0.000038809   -0.000012815
      4        1          -0.000018124    0.000046226   -0.000012815
      5       17           0.000099516   -0.000172367    0.000070369
 -------------------------------------------------------------------
 Cartesian Forces:  Max     0.000172367 RMS     0.000061093
 FormGI is forming the generalized inverse of G from B-inverse, IUseBI=4.

 GradGradGradGradGradGradGradGradGradGradGradGradGradGradGradGradGradGrad
 Berny optimization.
 Internal  Forces:  Max     0.000211106 RMS     0.000061529
 Search for a local minimum.
 Step number   1 out of a maximum of    2
 All quantities printed in internal units (Hartrees-Bohrs-Radians)
 Second derivative matrix not updated -- analytic derivatives used.
 The second derivative matrix:
                          R1        R2        R3        R4        A1
           R1           0.34771
           R2           0.00270   0.34771
           R3           0.00270   0.00270   0.34771
           R4           0.00500   0.00500   0.00500   0.20687
           A1           0.00339   0.00339  -0.00358  -0.00669   0.01954
           A2           0.00488  -0.00339   0.00559  -0.01483  -0.00864
           A3          -0.00359  -0.00039  -0.00144   0.01134  -0.01359
           A4          -0.00339   0.00488   0.00559  -0.01483  -0.00864
           A5          -0.00039  -0.00359  -0.00144   0.01134  -0.01359
           A6          -0.00116  -0.00116  -0.00510   0.01553   0.02480
           D1          -0.00538  -0.00538  -0.00325   0.02931  -0.01288
           D2           0.00179   0.00179  -0.00593   0.00490   0.00791
           D3          -0.00314   0.00494  -0.00296   0.00245   0.00395
           D4          -0.00494   0.00314   0.00296  -0.00245  -0.00395
                          A2        A3        A4        A5        A6
           A2           0.03576
           A3          -0.02279   0.08851
           A4          -0.00189   0.02494   0.03576
           A5           0.02494  -0.04241  -0.02279   0.08851
           A6          -0.02868  -0.03407  -0.02868  -0.03407   0.10237
           D1          -0.01267   0.01587  -0.01267   0.01587   0.00845
           D2          -0.00911   0.00997  -0.00911   0.00997  -0.00909
           D3          -0.01350  -0.00371   0.00439   0.01368  -0.00455
           D4          -0.00439  -0.01368   0.01350   0.00371   0.00455
                          D1        D2        D3        D4
           D1           0.03419
           D2           0.00265   0.02081
           D3           0.00132   0.01040   0.02086
           D4          -0.00132  -0.01040   0.01045   0.02086
 ITU=  0
     Eigenvalues ---    0.04036   0.04778   0.06221   0.15017   0.15157
     Eigenvalues ---    0.22004   0.34553   0.34555   0.35395
 Angle between quadratic step and forces=  16.77 degrees.
 Linear search not attempted -- first point.
 Iteration  1 RMS(Cart)=  0.00029477 RMS(Int)=  0.00000003
 Iteration  2 RMS(Cart)=  0.00000002 RMS(Int)=  0.00000003
 ClnCor:  largest displacement from symmetrization is 6.25D-08 for atom     4.
 Variable       Old X    -DE/DX   Delta X   Delta X   Delta X     New X
                                 (Linear)    (Quad)   (Total)
    R1        2.04939  -0.00002   0.00000  -0.00007  -0.00007   2.04933
    R2        2.04939  -0.00002   0.00000  -0.00007  -0.00007   2.04933
    R3        2.04939  -0.00002   0.00000  -0.00007  -0.00007   2.04933
    R4        3.40506  -0.00021   0.00000  -0.00088  -0.00088   3.40418
    A1        1.93252   0.00001   0.00000   0.00018   0.00018   1.93270
    A2        1.93252   0.00003   0.00000   0.00018   0.00018   1.93270
    A3        1.88820  -0.00002   0.00000  -0.00019  -0.00019   1.88802
    A4        1.93252   0.00003   0.00000   0.00018   0.00018   1.93270
    A5        1.88820  -0.00002   0.00000  -0.00019  -0.00019   1.88802
    A6        1.88820  -0.00003   0.00000  -0.00019  -0.00019   1.88802
    D1       -2.15043  -0.00006   0.00000  -0.00048  -0.00048  -2.15090
    D2        2.09440  -0.00001   0.00000   0.00000   0.00000   2.09440
    D3       -2.09440  -0.00000   0.00000   0.00000   0.00000  -2.09440
    D4        2.09440   0.00000   0.00000  -0.00000  -0.00000   2.09440
         Item               Value     Threshold  Converged?
 Maximum Force            0.000211     0.000450     YES
 RMS     Force            0.000062     0.000300     YES
 Maximum Displacement     0.000765     0.001800     YES
 RMS     Displacement     0.000295     0.001200     YES
 Predicted change in Energy=-1.215989D-07
 Optimization completed.
    -- Stationary point found.
                           ----------------------------
                           !   Optimized Parameters   !
                           ! (Angstroms and Degrees)  !
 --------------------------                            --------------------------
 ! Name  Definition              Value          Derivative Info.                !
 --------------------------------------------------------------------------------
 ! R1    R(1,2)                  1.0845         -DE/DX =    0.0                 !
 ! R2    R(1,3)                  1.0845         -DE/DX =    0.0                 !
 ! R3    R(1,4)                  1.0845         -DE/DX =    0.0                 !
 ! R4    R(1,5)                  1.8019         -DE/DX =   -0.0002              !
 ! A1    A(2,1,3)              110.7252         -DE/DX =    0.0                 !
 ! A2    A(2,1,4)              110.7252         -DE/DX =    0.0                 !
 ! A3    A(2,1,5)              108.1861         -DE/DX =    0.0                 !
 ! A4    A(3,1,4)              110.7252         -DE/DX =    0.0                 !
 ! A5    A(3,1,5)              108.1861         -DE/DX =    0.0                 !
 ! A6    A(4,1,5)              108.1861         -DE/DX =    0.0                 !
 ! D1    D(2,1,4,3)           -123.2104         -DE/DX =   -0.0001              !
 ! D2    D(2,1,5,3)            120.0            -DE/DX =    0.0                 !
 ! D3    D(2,1,5,4)           -120.0            -DE/DX =    0.0                 !
 ! D4    D(3,1,5,4)            120.0            -DE/DX =    0.0                 !
 --------------------------------------------------------------------------------
 GradGradGradGradGradGradGradGradGradGradGradGradGradGradGradGradGradGrad


 ----------------------------------------------------------------------

 Electric dipole moment (input orientation):
 (Debye = 10**-18 statcoulomb cm , SI units = C m)
                  (au)            (Debye)         (10**-30 SI)
   Tot        0.781748D+00      0.198700D+01      0.662793D+01
   x          0.368519D+00      0.936683D+00      0.312444D+01
   y         -0.638294D+00     -0.162238D+01     -0.541168D+01
   z          0.260583D+00      0.662335D+00      0.220931D+01

 Dipole polarizability, Alpha (input orientation).
 (esu units = cm**3 , SI units = C**2 m**2 J**-1)
 Alpha(0;0):
               (au)            (10**-24 esu)      (10**-40 SI)
   iso        0.299972D+02      0.444513D+01      0.494587D+01
   aniso      0.104403D+02      0.154709D+01      0.172137D+01
   xx         0.288367D+02      0.427316D+01      0.475453D+01
   yx        -0.401888D+01     -0.595537D+00     -0.662625D+00
   yy         0.334773D+02      0.496083D+01      0.551967D+01
   zx         0.164029D+01      0.243066D+00      0.270448D+00
   zy        -0.284107D+01     -0.421003D+00     -0.468429D+00
   zz         0.276776D+02      0.410139D+01      0.456341D+01

 ----------------------------------------------------------------------

 Dipole orientation:
     6          0.00000000         -0.00000000          0.08807326
     1         -0.97351102          1.68617055          0.72769824
     1          1.94702204          0.00000000          0.72769824
     1         -0.97351102         -1.68617055          0.72769824
    17          0.00000000         -0.00000000         -3.31699087

 Electric dipole moment (dipole orientation):
 (Debye = 10**-18 statcoulomb cm , SI units = C m)
                  (au)            (Debye)         (10**-30 SI)
   Tot        0.781748D+00      0.198700D+01      0.662793D+01
   x          0.000000D+00      0.000000D+00      0.000000D+00
   y          0.000000D+00      0.000000D+00      0.000000D+00
   z          0.781748D+00      0.198700D+01      0.662793D+01

 Dipole polarizability, Alpha (dipole orientation).
 (esu units = cm**3 , SI units = C**2 m**2 J**-1)
 Alpha(0;0):
               (au)            (10**-24 esu)      (10**-40 SI)
   iso        0.299972D+02      0.444513D+01      0.494587D+01
   aniso      0.104403D+02      0.154709D+01      0.172137D+01
   xx         0.265168D+02      0.392938D+01      0.437202D+01
   yx        -0.606165D-03     -0.898244D-04     -0.999432D-04
   yy         0.265175D+02      0.392948D+01      0.437214D+01
   zx         0.163070D-03      0.241645D-04      0.268867D-04
   zy        -0.282446D-03     -0.418542D-04     -0.465691D-04
   zz         0.369574D+02      0.547652D+01      0.609345D+01

 ----------------------------------------------------------------------
 1\1\GINC-XLR178NODE096\Freq\RB3LYP\Aug-CC-pVTZ\C1H3Cl1\EDUMONT\29-Jan-
 2021\0\\#N Geom=AllCheck Guess=TCheck SCRF=Check GenChk RB3LYP/Aug-CC-
 pVTZ Freq\\Energy of chloromethane using the AM1 hamiltonian\\0,1\C,0.
 0219704487,-0.0380539335,0.0155354533\H,0.0098091286,-0.0169899092,1.0
 997551654\H,1.0401288231,-0.0169899092,-0.35733692\H,-0.5053507186,-0.
 9092729386,-0.35733692\Cl,-0.8274450318,1.4331768356,-0.5850919931\\Ve
 rsion=ES64L-G16RevB.01\State=1-A1\HF=-500.1658061\RMSD=1.253e-09\RMSF=
 6.109e-05\ZeroPoint=0.0376047\Thermal=0.0406327\Dipole=0.3685193,-0.63
 82942,0.2605825\DipoleDeriv=0.2316481,-0.2116423,0.086397,-0.2116423,0
 .4760316,-0.149644,0.0864031,-0.1496545,0.1705374,0.0592459,0.0477385,
 -0.0147611,0.0477385,0.0041223,0.025567,-0.0286042,0.0495438,-0.067876
 ,-0.0673861,0.0626229,0.0161667,0.0400185,0.0041216,0.0364837,0.030007
 8,0.0284932,0.0587503,0.0306897,-0.0166056,-0.0396792,0.0059988,-0.093
 9542,0.0042411,-0.0396798,-0.0117409,0.0587503,-0.2541894,0.1178886,-0
 .0481263,0.1178886,-0.3903155,0.0833571,-0.0481273,0.0833589,-0.220163
 2\Polar=28.8367164,-4.0188844,33.4773244,1.6402922,-2.8410694,27.67755
 87\Quadrupole=-0.1434446,0.4303338,-0.2868892,-0.4969066,0.2028613,-0.
 351366\PG=C03V [C3(C1Cl1),3SGV(H1)]\NImag=0\\0.51290692,0.09522719,0.4
 0294802,-0.03887642,0.06733594,0.54039674,-0.04842339,-0.00515304,0.00
 729043,0.04753700,-0.00515304,-0.04247317,-0.01262740,-0.00231315,0.05
 020799,0.00762566,-0.01320803,-0.32828927,-0.00640318,0.01109064,0.347
 28522,-0.29250537,-0.01417025,0.09392159,0.00246998,-0.00107611,-0.000
 14087,0.30995521,-0.01362282,-0.04247318,-0.00064918,0.00103118,0.0010
 6968,-0.00150597,0.00968531,0.05020799,0.09358648,-0.00045564,-0.08420
 722,0.03015284,0.00147420,-0.00814085,-0.09918203,-0.00587774,0.084867
 01,-0.11701598,-0.11494167,-0.04639859,0.00140030,0.00164876,0.0013746
 4,-0.01178800,-0.02337516,-0.01169034,0.12353252,-0.11548910,-0.217962
 57,-0.08166307,-0.00045853,0.00213936,-0.00063099,-0.00074774,0.002139
 36,-0.00022198,0.11731650,0.23663068,-0.04639865,-0.08127609,-0.084207
 22,-0.01635311,-0.02537602,-0.00814085,0.00603741,0.01001314,0.0050474
 5,0.05468129,0.08295529,0.08486701,-0.05496226,0.03903764,-0.01593693,
 -0.00298390,0.00689352,-0.00245626,-0.00813181,0.02628158,-0.01286693,
 0.00387122,-0.00062115,0.00203304,0.06220677,0.03903764,-0.10003905,0.
 02760358,0.00689352,-0.01094386,0.00425437,0.00630880,-0.01094383,0.00
 508117,0.01935163,-0.02294686,0.01368367,-0.07159151,0.14487352,-0.015
 93707,0.02760382,-0.04369313,-0.01468698,0.02543860,-0.00271424,-0.000
 63614,-0.00198027,0.00243365,0.00203304,-0.00043922,0.00243365,0.02922
 711,-0.05062284,0.04154008\\0.00002802,-0.00004852,0.00001981,0.000022
 41,-0.00003881,0.00002493,0.00003097,-0.00003881,0.00001282,0.00001812
 ,-0.00004623,0.00001282,-0.00009952,0.00017237,-0.00007037\\\@


 SEE YOU NOW,
 YOUR BAIT OF FALSEHOOD TAKES THIS CARP OF TRUTH.
 AND THUS DO WE OF WISDOM AND OF REACH...
 BY INDIRECTIONS FIND DIRECTIONS OUT.    -- HAMLET, II, 1
 Job cpu time:       0 days  0 hours  4 minutes  3.5 seconds.
 Elapsed time:       0 days  0 hours  4 minutes  4.4 seconds.
 File lengths (MBytes):  RWF=     23 Int=      0 D2E=      0 Chk=      3 Scr=      1
 Normal termination of Gaussian 16 at Fri Jan 29 22:08:29 2021.
