 Entering Gaussian System, Link 0=g09
 Input=/scratch/mverot/CH3Cl_freq/CH3Cl_freq.com
 Output=/scratch/mverot/CH3Cl_freq/CH3Cl_freq.log
 Initial command:
 /opt/g09/l1.exe "/scratch/mverot/CH3Cl_freq/Gau-2628245.inp" -scrdir="/scratch/mverot/CH3Cl_freq/"
 Entering Link 1 = /opt/g09/l1.exe PID=   2628247.
  
 Copyright (c) 1988,1990,1992,1993,1995,1998,2003,2009,2013,
            Gaussian, Inc.  All Rights Reserved.
  
 This is part of the Gaussian(R) 09 program.  It is based on
 the Gaussian(R) 03 system (copyright 2003, Gaussian, Inc.),
 the Gaussian(R) 98 system (copyright 1998, Gaussian, Inc.),
 the Gaussian(R) 94 system (copyright 1995, Gaussian, Inc.),
 the Gaussian 92(TM) system (copyright 1992, Gaussian, Inc.),
 the Gaussian 90(TM) system (copyright 1990, Gaussian, Inc.),
 the Gaussian 88(TM) system (copyright 1988, Gaussian, Inc.),
 the Gaussian 86(TM) system (copyright 1986, Carnegie Mellon
 University), and the Gaussian 82(TM) system (copyright 1983,
 Carnegie Mellon University). Gaussian is a federally registered
 trademark of Gaussian, Inc.
  
 This software contains proprietary and confidential information,
 including trade secrets, belonging to Gaussian, Inc.
  
 This software is provided under written license and may be
 used, copied, transmitted, or stored only in accord with that
 written license.
  
 The following legend is applicable only to US Government
 contracts under FAR:
  
                    RESTRICTED RIGHTS LEGEND
  
 Use, reproduction and disclosure by the US Government is
 subject to restrictions as set forth in subparagraphs (a)
 and (c) of the Commercial Computer Software - Restricted
 Rights clause in FAR 52.227-19.
  
 Gaussian, Inc.
 340 Quinnipiac St., Bldg. 40, Wallingford CT 06492
  
  
 ---------------------------------------------------------------
 Warning -- This program may not be used in any manner that
 competes with the business of Gaussian, Inc. or will provide
 assistance to any competitor of Gaussian, Inc.  The licensee
 of this program is prohibited from giving any competitor of
 Gaussian, Inc. access to this program.  By using this program,
 the user acknowledges that Gaussian, Inc. is engaged in the
 business of creating and licensing software in the field of
 computational chemistry and represents and warrants to the
 licensee that it is not a competitor of Gaussian, Inc. and that
 it will not use this program in any manner prohibited above.
 ---------------------------------------------------------------
  

 Cite this work as:
 Gaussian 09, Revision D.01,
 M. J. Frisch, G. W. Trucks, H. B. Schlegel, G. E. Scuseria, 
 M. A. Robb, J. R. Cheeseman, G. Scalmani, V. Barone, B. Mennucci, 
 G. A. Petersson, H. Nakatsuji, M. Caricato, X. Li, H. P. Hratchian, 
 A. F. Izmaylov, J. Bloino, G. Zheng, J. L. Sonnenberg, M. Hada, 
 M. Ehara, K. Toyota, R. Fukuda, J. Hasegawa, M. Ishida, T. Nakajima, 
 Y. Honda, O. Kitao, H. Nakai, T. Vreven, J. A. Montgomery, Jr., 
 J. E. Peralta, F. Ogliaro, M. Bearpark, J. J. Heyd, E. Brothers, 
 K. N. Kudin, V. N. Staroverov, T. Keith, R. Kobayashi, J. Normand, 
 K. Raghavachari, A. Rendell, J. C. Burant, S. S. Iyengar, J. Tomasi, 
 M. Cossi, N. Rega, J. M. Millam, M. Klene, J. E. Knox, J. B. Cross, 
 V. Bakken, C. Adamo, J. Jaramillo, R. Gomperts, R. E. Stratmann, 
 O. Yazyev, A. J. Austin, R. Cammi, C. Pomelli, J. W. Ochterski, 
 R. L. Martin, K. Morokuma, V. G. Zakrzewski, G. A. Voth, 
 P. Salvador, J. J. Dannenberg, S. Dapprich, A. D. Daniels, 
 O. Farkas, J. B. Foresman, J. V. Ortiz, J. Cioslowski, 
 and D. J. Fox, Gaussian, Inc., Wallingford CT, 2013.
 
 ******************************************
 Gaussian 09:  AM64L-G09RevD.01 24-Apr-2013
                11-Apr-2022 
 ******************************************
 -----------------
 #n AM1 freq=RAMAN
 -----------------
 1/10=4,30=1,38=1/1,3;
 2/12=2,17=6,18=5,40=1/2;
 3/5=2,16=1,25=1,41=700000,71=2,140=1/1,2,3;
 4/35=1/1;
 5/5=2,35=1,38=5,98=1/2;
 8/6=4,10=90,11=11/1;
 10/13=10,15=4/2;
 11/6=3,8=1,9=11,15=111,16=1/1,2,10;
 10/6=1/2;
 6/7=2,8=2,9=2,10=2,18=1,28=1/1;
 7/8=1,10=1,25=1/1,2,3,16;
 1/10=4,30=1/3;
 99//99;
 ----------------------
 Raman spectra of CH3Cl
 ----------------------
 Symbolic Z-matrix:
 Charge =  0 Multiplicity = 1
 6                     0.        0.       -1.09807 
 1                     0.        1.05544  -1.44649 
 1                    -0.91404  -0.52772  -1.44649 
 1                     0.91404  -0.52772  -1.44649 
 17                    0.        0.        0.64282 
 

 GradGradGradGradGradGradGradGradGradGradGradGradGradGradGradGradGradGrad
 Berny optimization.
 Initialization pass.
 Trust Radius=3.00D-01 FncErr=1.00D-07 GrdErr=1.00D-07
 Number of steps in this run=      2 maximum allowed number of steps=      2.
 GradGradGradGradGradGradGradGradGradGradGradGradGradGradGradGradGradGrad

                          Input orientation:                          
 ---------------------------------------------------------------------
 Center     Atomic      Atomic             Coordinates (Angstroms)
 Number     Number       Type             X           Y           Z
 ---------------------------------------------------------------------
      1          6           0        0.000000    0.000000   -1.098070
      2          1           0        0.000000    1.055442   -1.446492
      3          1           0       -0.914040   -0.527721   -1.446492
      4          1           0        0.914040   -0.527721   -1.446492
      5         17           0        0.000000    0.000000    0.642817
 ---------------------------------------------------------------------
                    Distance matrix (angstroms):
                    1          2          3          4          5
     1  C    0.000000
     2  H    1.111466   0.000000
     3  H    1.111466   1.828079   0.000000
     4  H    1.111466   1.828079   1.828080   0.000000
     5  Cl   1.740887   2.340763   2.340763   2.340763   0.000000
 Stoichiometry    CH3Cl
 Framework group  C3V[C3(CCl),3SGV(H)]
 Deg. of freedom     3
 Full point group                 C3V     NOp   6
 Largest Abelian subgroup         CS      NOp   2
 Largest concise Abelian subgroup CS      NOp   2
                         Standard orientation:                         
 ---------------------------------------------------------------------
 Center     Atomic      Atomic             Coordinates (Angstroms)
 Number     Number       Type             X           Y           Z
 ---------------------------------------------------------------------
      1          6           0        0.000000    0.000000   -1.098070
      2          1           0        0.000000    1.055442   -1.446492
      3          1           0       -0.914040   -0.527721   -1.446492
      4          1           0        0.914040   -0.527721   -1.446492
      5         17           0        0.000000    0.000000    0.642817
 ---------------------------------------------------------------------
 Rotational constants (GHZ):    150.0520916     13.8676522     13.8676522
 Standard basis: VSTO-6G (5D, 7F)
 There are     8 symmetry adapted cartesian basis functions of A'  symmetry.
 There are     3 symmetry adapted cartesian basis functions of A"  symmetry.
 There are     8 symmetry adapted basis functions of A'  symmetry.
 There are     3 symmetry adapted basis functions of A"  symmetry.
    11 basis functions,    66 primitive gaussians,    11 cartesian basis functions
     7 alpha electrons        7 beta electrons
       nuclear repulsion energy        36.8653902236 Hartrees.
 Integral buffers will be    131072 words long.
 Regular integral format.
 Two-electron integral symmetry is turned off.
 Do NDO integrals.
 One-electron integrals computed using PRISM.
 NBasis=    11 RedAO= T EigKep=  7.07D-01  NBF=     8     3
 NBsUse=    11 1.00D-06 EigRej= -1.00D+00 NBFU=     8     3
 Simple Huckel Guess.
 Initial guess orbital symmetries:
       Occupied  (A1) (A1) (E) (E) (A1) (E) (E)
       Virtual   (A1) (E) (E) (A1)
 The electronic state of the initial guess is 1-A1.
 Overlap will be assumed to be unity.
 Keep J ints in memory in canonical form, NReq=883806.
 Requested convergence on RMS density matrix=1.00D-08 within 128 cycles.
 Requested convergence on MAX density matrix=1.00D-06.
 Requested convergence on             energy=1.00D-06.
 No special actions if energy rises.
 Fock symm off for IB=2 I1=    1 I=    9 J=    3 Cut=1.00D-07 Err=3.24D-04
 Fock matrix is not symmetric: symmetry in diagonalization turned off.
 SCF Done:  E(RAM1) = -0.302438609063E-01 A.U. after   11 cycles
            NFock= 10  Conv=0.14D-08     -V/T= 0.9964
 Range of M.O.s used for correlation:     1    11
 NBasis=    11 NAE=     7 NBE=     7 NFC=     0 NFV=     0
 NROrb=     11 NOA=     7 NOB=     7 NVA=     4 NVB=     4
          Differentiating once with respect to electric field.
                with respect to dipole field.
          Electric field/nuclear overlap derivatives assumed to be zero.
 Keep J ints in memory in canonical form, NReq=866499.
          There are     3 degrees of freedom in the 1st order CPHF.  IDoFFX=0 NUNeed=     3.
 LinEq1:  Iter=  0 NonCon=     3 RMS=4.64D-01 Max=2.23D+00 NDo=     3
 AX will form     3 AO Fock derivatives at one time.
 LinEq1:  Iter=  1 NonCon=     3 RMS=3.22D-02 Max=1.07D-01 NDo=     3
 LinEq1:  Iter=  2 NonCon=     3 RMS=2.62D-03 Max=7.21D-03 NDo=     3
 LinEq1:  Iter=  3 NonCon=     3 RMS=3.15D-04 Max=6.88D-04 NDo=     3
 LinEq1:  Iter=  4 NonCon=     3 RMS=1.62D-05 Max=6.91D-05 NDo=     3
 LinEq1:  Iter=  5 NonCon=     3 RMS=1.72D-06 Max=5.34D-06 NDo=     3
 LinEq1:  Iter=  6 NonCon=     3 RMS=7.62D-08 Max=2.28D-07 NDo=     3
 LinEq1:  Iter=  7 NonCon=     0 RMS=2.18D-09 Max=6.65D-09 NDo=     3
 Linear equations converged to 1.000D-08 1.000D-07 after     7 iterations.
 End of Minotr F.D. properties file   721 does not exist.
 End of Minotr F.D. properties file   722 does not exist.
 End of Minotr F.D. properties file   788 does not exist.
 Symmetrizing basis deriv contribution to polar:
 IMax=3 JMax=2 DiffMx= 0.00D+00
 G2DrvN: will do     6 centers at a time, making    1 passes.
 PxScal for G2LodP:  IOpCl= 0 ISclPx=1 IMOff=     1 NMtTot=     4 NTT=      66 ScalPx= 3.20D+00
 Calling FoFCou, ICntrl=  3107 FMM=F I1Cent=   0 AccDes= 0.00D+00.
 End of G2Drv F.D. properties file   721 does not exist.
 End of G2Drv F.D. properties file   722 does not exist.
 End of G2Drv F.D. properties file   788 does not exist.
          IDoAtm=11111
          Differentiating once with respect to electric field.
                with respect to dipole field.
          Differentiating once with respect to nuclear coordinates.
          Electric field/nuclear overlap derivatives assumed to be zero.
 Keep J ints in memory in canonical form, NReq=866617.
          There are    12 degrees of freedom in the 1st order CPHF.  IDoFFX=4 NUNeed=    12.
 Recover   3 previous solutions.
 LinEq1:  Iter=  0 NonCon=     9 RMS=4.34D-02 Max=1.18D-01 NDo=     9
 AX will form     9 AO Fock derivatives at one time.
 LinEq1:  Iter=  1 NonCon=     9 RMS=4.86D-03 Max=1.55D-02 NDo=     9
 LinEq1:  Iter=  2 NonCon=     9 RMS=6.33D-04 Max=2.30D-03 NDo=     9
 LinEq1:  Iter=  3 NonCon=     9 RMS=4.88D-05 Max=9.79D-05 NDo=     9
 LinEq1:  Iter=  4 NonCon=     9 RMS=6.26D-06 Max=1.75D-05 NDo=     9
 LinEq1:  Iter=  5 NonCon=     9 RMS=4.30D-07 Max=1.07D-06 NDo=     9
 LinEq1:  Iter=  6 NonCon=     3 RMS=1.47D-08 Max=5.42D-08 NDo=     9
 LinEq1:  Iter=  7 NonCon=     0 RMS=1.23D-09 Max=3.23D-09 NDo=     9
 Linear equations converged to 1.000D-08 1.000D-07 after     7 iterations.
 Isotropic polarizability for W=    0.000000       13.36 Bohr**3.
 End of Minotr F.D. properties file   721 does not exist.
 End of Minotr F.D. properties file   722 does not exist.
 End of Minotr F.D. properties file   788 does not exist.

 **********************************************************************

            Population analysis using the SCF density.

 **********************************************************************

 Orbital symmetries:
       Occupied  (A1) (A1) (E) (E) (A1) (E) (E)
       Virtual   (A1) (E) (E) (A1)
 The electronic state is 1-A1.
 Alpha  occ. eigenvalues --   -1.36967  -1.06015  -0.55679  -0.55679  -0.54638
 Alpha  occ. eigenvalues --   -0.41666  -0.41666
 Alpha virt. eigenvalues --    0.05877   0.14206   0.14206   0.15422
          Condensed to atoms (all electrons):
               1          2          3          4          5
     1  C    4.177582   0.000000   0.000000   0.000000   0.000000
     2  H    0.000000   0.901985   0.000000   0.000000   0.000000
     3  H    0.000000   0.000000   0.901985   0.000000   0.000000
     4  H    0.000000   0.000000   0.000000   0.901985   0.000000
     5  Cl   0.000000   0.000000   0.000000   0.000000   7.116464
 Mulliken charges:
               1
     1  C   -0.177582
     2  H    0.098015
     3  H    0.098015
     4  H    0.098015
     5  Cl  -0.116464
 Sum of Mulliken charges =  -0.00000
 Mulliken charges with hydrogens summed into heavy atoms:
               1
     1  C    0.116464
     5  Cl  -0.116464
 APT charges:
               1
     1  C    0.246351
     2  H    0.034097
     3  H    0.034097
     4  H    0.034097
     5  Cl  -0.348641
 Sum of APT charges =  -0.00000
 APT charges with hydrogens summed into heavy atoms:
               1
     1  C    0.348641
     5  Cl  -0.348641
 Charge=             -0.0000 electrons
 Dipole moment (field-independent basis, Debye):
    X=             -0.0000    Y=              0.0000    Z=             -1.5119  Tot=              1.5119
 N-N= 3.686539022363D+01 E-N=-5.558692576771D+01  KE=-8.358122671707D+00
 Symmetry A'   KE=-6.739187228717D+00
 Symmetry A"   KE=-1.618935442990D+00
  Exact polarizability:   8.815  -0.000   8.815  -0.000   0.000  22.459
 Approx polarizability:   4.902  -0.000   4.902  -0.000   0.000  14.547
 Calling FoFJK, ICntrl=    100127 FMM=F ISym2X=1 I1Cent= 0 IOpClX= 0 NMat=1 NMatS=1 NMatT=0.
 Full mass-weighted force constant matrix:
 Low frequencies ---  -23.7168  -12.6535  -12.6535   -0.0001    0.0091    0.0091
 Low frequencies ---  837.7522  984.2306  984.2306
 Diagonal vibrational polarizability:
        0.0650582       0.0650582       2.3372013
 Diagonal vibrational hyperpolarizability:
       -0.0000000      -1.1761916     -45.1430948
 Harmonic frequencies (cm**-1), IR intensities (KM/Mole), Raman scattering
 activities (A**4/AMU), depolarization ratios for plane and unpolarized
 incident light, reduced masses (AMU), force constants (mDyne/A),
 and normal coordinates:
                      1                      2                      3
                     A1                      E                      E
 Frequencies --    837.7522               984.2306               984.2306
 Red. masses --      7.1610                 1.1593                 1.1593
 Frc consts  --      2.9611                 0.6616                 0.6616
 IR Inten    --     54.9640                 0.0664                 0.0664
 Raman Activ --     25.4009                16.1689                16.1689
 Depolar (P) --      0.4184                 0.7500                 0.7500
 Depolar (U) --      0.5899                 0.8571                 0.8571
  Atom  AN      X      Y      Z        X      Y      Z        X      Y      Z
     1   6     0.00  -0.00   0.61     0.11  -0.00  -0.00     0.00   0.11   0.00
     2   1    -0.00  -0.03   0.43    -0.17   0.00   0.00    -0.00  -0.17  -0.78
     3   1     0.02   0.01   0.43    -0.17   0.00   0.67     0.00  -0.17   0.39
     4   1    -0.02   0.01   0.43    -0.17  -0.00  -0.67    -0.00  -0.17   0.39
     5  17    -0.00   0.00  -0.25    -0.02   0.00   0.00    -0.00  -0.02  -0.00
                      4                      5                      6
                     A1                      E                      E
 Frequencies --   1345.6198              1368.0036              1368.0036
 Red. masses --      1.1375                 1.0814                 1.0814
 Frc consts  --      1.2136                 1.1924                 1.1924
 IR Inten    --     15.2447                 3.1409                 3.1409
 Raman Activ --      1.9275                40.3998                40.3998
 Depolar (P) --      0.6499                 0.7500                 0.7500
 Depolar (U) --      0.7878                 0.8571                 0.8571
  Atom  AN      X      Y      Z        X      Y      Z        X      Y      Z
     1   6    -0.00   0.00  -0.11    -0.01   0.08   0.00    -0.08  -0.01   0.00
     2   1     0.00   0.19   0.54     0.11   0.11   0.23     0.76  -0.02  -0.03
     3   1    -0.16  -0.09   0.54     0.39  -0.60  -0.09     0.05  -0.30   0.22
     4   1     0.16  -0.09   0.54    -0.36  -0.49  -0.15     0.16   0.46  -0.18
     5  17     0.00  -0.00  -0.01    -0.00   0.00   0.00    -0.00  -0.00   0.00
                      7                      8                      9
                      E                      E                     A1
 Frequencies --   3075.8211              3075.8211              3150.2880
 Red. masses --      1.0971                 1.0971                 1.0229
 Frc consts  --      6.1155                 6.1155                 5.9809
 IR Inten    --      6.3445                 6.3445                 1.1305
 Raman Activ --    108.4206               108.4206               154.7564
 Depolar (P) --      0.7500                 0.7500                 0.0461
 Depolar (U) --      0.8571                 0.8571                 0.0882
  Atom  AN      X      Y      Z        X      Y      Z        X      Y      Z
     1   6     0.09  -0.00  -0.00    -0.00  -0.09  -0.00     0.00  -0.00   0.04
     2   1     0.04   0.03  -0.01    -0.00   0.77  -0.26    -0.00   0.55  -0.16
     3   1    -0.55  -0.34  -0.22     0.38   0.18   0.14    -0.48  -0.28  -0.16
     4   1    -0.58   0.36   0.23    -0.33   0.14   0.12     0.48  -0.28  -0.16
     5  17     0.00  -0.00  -0.00    -0.00  -0.00  -0.00    -0.00   0.00   0.00

 -------------------
 - Thermochemistry -
 -------------------
 Temperature   298.150 Kelvin.  Pressure   1.00000 Atm.
 Atom     1 has atomic number  6 and mass  12.00000
 Atom     2 has atomic number  1 and mass   1.00783
 Atom     3 has atomic number  1 and mass   1.00783
 Atom     4 has atomic number  1 and mass   1.00783
 Atom     5 has atomic number 17 and mass  34.96885
 Molecular mass:    49.99233 amu.
 Principal axes and moments of inertia in atomic units:
                           1         2         3
     Eigenvalues --    12.02743 130.14036 130.14036
           X            0.00000   0.59851   0.80112
           Y            0.00000   0.80112  -0.59851
           Z            1.00000  -0.00000   0.00000
 This molecule is a prolate symmetric top.
 Rotational symmetry number  3.
 Rotational temperatures (Kelvin)      7.20136     0.66554     0.66554
 Rotational constants (GHZ):         150.05209    13.86765    13.86765
 Zero-point vibrational energy      96836.3 (Joules/Mol)
                                   23.14444 (Kcal/Mol)
 Vibrational temperatures:   1205.34  1416.09  1416.09  1936.04  1968.25
          (Kelvin)           1968.25  4425.41  4425.41  4532.56
 
 Zero-point correction=                           0.036883 (Hartree/Particle)
 Thermal correction to Energy=                    0.039888
 Thermal correction to Enthalpy=                  0.040833
 Thermal correction to Gibbs Free Energy=         0.014292
 Sum of electronic and zero-point Energies=              0.006639
 Sum of electronic and thermal Energies=                 0.009644
 Sum of electronic and thermal Enthalpies=               0.010589
 Sum of electronic and thermal Free Energies=           -0.015952
 
                     E (Thermal)             CV                S
                      KCal/Mol        Cal/Mol-Kelvin    Cal/Mol-Kelvin
 Total                   25.030              7.705             55.859
 Electronic               0.000              0.000              0.000
 Translational            0.889              2.981             37.651
 Rotational               0.889              2.981             17.766
 Vibrational             23.253              1.744              0.442
                       Q            Log10(Q)             Ln(Q)
 Total Bot       0.266773D-06         -6.573859        -15.136869
 Total V=0       0.246101D+11         10.391113         23.926421
 Vib (Bot)       0.112748D-16        -16.947892        -39.023965
 Vib (V=0)       0.104011D+01          0.017079          0.039325
 Electronic      0.100000D+01          0.000000          0.000000
 Translational   0.138935D+08          7.142810         16.446928
 Rotational      0.170304D+04          3.231224          7.440167
 ***** Axes restored to original set *****
 -------------------------------------------------------------------
 Center     Atomic                   Forces (Hartrees/Bohr)
 Number     Number              X              Y              Z
 -------------------------------------------------------------------
      1        6           0.000000000   -0.000000000   -0.000052263
      2        1          -0.000000000    0.000042428   -0.000041621
      3        1          -0.000036744   -0.000021214   -0.000041621
      4        1           0.000036744   -0.000021214   -0.000041621
      5       17           0.000000000    0.000000000    0.000177125
 -------------------------------------------------------------------
 Cartesian Forces:  Max     0.000177125 RMS     0.000054591

 GradGradGradGradGradGradGradGradGradGradGradGradGradGradGradGradGradGrad
 Berny optimization.
 Search for a local minimum.
 Step number   1 out of a maximum of    2
 All quantities printed in internal units (Hartrees-Bohrs-Radians)
 Second derivative matrix not updated -- analytic derivatives used.
 The second derivative matrix:
                          X1        Y1        Z1        X2        Y2
           X1           0.49999
           Y1          -0.00000   0.49999
           Z1          -0.00000  -0.00000   0.37016
           X2          -0.04149   0.00000  -0.00000   0.04108
           Y2           0.00000  -0.27376   0.07550  -0.00000   0.31487
           Z2          -0.00000   0.07424  -0.05689   0.00000  -0.08696
           X3          -0.21569  -0.10058  -0.06538  -0.00169  -0.00823
           Y3          -0.10058  -0.09956  -0.03775  -0.02471  -0.02071
           Z3          -0.06430  -0.03712  -0.05689   0.00358   0.00281
           X4          -0.21569   0.10058   0.06538  -0.00169   0.00823
           Y4           0.10058  -0.09956  -0.03775   0.02471  -0.02071
           Z4           0.06430  -0.03712  -0.05689  -0.00358   0.00281
           X5          -0.02711   0.00000   0.00000   0.00379   0.00000
           Y5          -0.00000  -0.02711  -0.00000   0.00000   0.00031
           Z5           0.00000  -0.00000  -0.19948  -0.00000   0.00584
                          Z2        X3        Y3        Z3        X4
           Z2           0.07342
           X3          -0.00064   0.24642
           Y3          -0.00451   0.11855   0.10953
           Z3           0.00589   0.07531   0.04348   0.07342
           X4           0.00064  -0.03022   0.00824   0.00423   0.24642
           Y4          -0.00451  -0.00824   0.00782   0.00170  -0.11855
           Z4           0.00589  -0.00423   0.00170   0.00589  -0.07531
           X5          -0.00000   0.00118  -0.00151  -0.01883   0.00118
           Y5           0.02174  -0.00151   0.00292  -0.01087   0.00151
           Z5          -0.02831  -0.00506  -0.00292  -0.02831   0.00506
                          Y4        Z4        X5        Y5        Z5
           Y4           0.10953
           Z4           0.04348   0.07342
           X5           0.00151   0.01883   0.02095
           Y5           0.00292  -0.01087   0.00000   0.02095
           Z5          -0.00292  -0.02831  -0.00000   0.00000   0.28442
 ITU=  0
     Eigenvalues ---    0.05817   0.05817   0.10731   0.10731   0.11929
     Eigenvalues ---    0.34563   0.59014   0.71845   0.71845
 Angle between quadratic step and forces=  33.05 degrees.
 ClnCor:  largest displacement from symmetrization is 4.23D-15 for atom     4.
 Linear search not attempted -- first point.
 ClnCor:  largest displacement from symmetrization is 9.93D-16 for atom     3.
 TrRot=  0.000000  0.000000  0.000133  0.000000  0.000000  0.000000
 Variable       Old X    -DE/DX   Delta X   Delta X   Delta X     New X
                                 (Linear)    (Quad)   (Total)
    X1        0.00000   0.00000   0.00000  -0.00000   0.00000   0.00000
    Y1       -0.00000  -0.00000   0.00000   0.00000   0.00000  -0.00000
    Z1       -2.07505  -0.00005   0.00000  -0.00009   0.00005  -2.07500
    X2       -0.00000  -0.00000   0.00000  -0.00000  -0.00000  -0.00000
    Y2        1.99450   0.00004   0.00000   0.00005   0.00005   1.99455
    Z2       -2.73347  -0.00004   0.00000  -0.00034  -0.00021  -2.73369
    X3       -1.72728  -0.00004   0.00000  -0.00005  -0.00005  -1.72733
    Y3       -0.99725  -0.00002   0.00000  -0.00003  -0.00003  -0.99727
    Z3       -2.73347  -0.00004   0.00000  -0.00034  -0.00021  -2.73369
    X4        1.72728   0.00004   0.00000   0.00005   0.00005   1.72733
    Y4       -0.99725  -0.00002   0.00000  -0.00003  -0.00003  -0.99727
    Z4       -2.73347  -0.00004   0.00000  -0.00034  -0.00021  -2.73369
    X5        0.00000   0.00000   0.00000  -0.00000   0.00000   0.00000
    Y5       -0.00000   0.00000   0.00000  -0.00000   0.00000  -0.00000
    Z5        1.21475   0.00018   0.00000   0.00046   0.00059   1.21534
         Item               Value     Threshold  Converged?
 Maximum Force            0.000177     0.000450     YES
 RMS     Force            0.000055     0.000300     YES
 Maximum Displacement     0.000589     0.001800     YES
 RMS     Displacement     0.000181     0.001200     YES
 Predicted change in Energy=-6.748639D-08
 Optimization completed.
    -- Stationary point found.
 GradGradGradGradGradGradGradGradGradGradGradGradGradGradGradGradGradGrad

 1\1\GINC-GTX1080DELTA\Freq\RAM1\ZDO\C1H3Cl1\MVEROT\11-Apr-2022\0\\#n A
 M1 freq=RAMAN\\Raman spectra of CH3Cl\\0,1\C,0.,0.,-1.09807\H,-0.00000
 02079,1.055442,-1.446492\H,-0.9140394803,-0.52772118,-1.446492\H,0.914
 0396882,-0.52772082,-1.446492\Cl,0.,0.,0.642817\\Version=AM64L-G09RevD
 .01\State=1-A1\HF=-0.0302439\RMSD=1.440e-09\RMSF=5.459e-05\ZeroPoint=0
 .036883\Thermal=0.0398883\Dipole=0.,0.,-0.5948292\DipoleDeriv=-0.02297
 19,0.,0.,0.,-0.0229719,0.,0.,0.,0.7849962,0.053768,0.,0.,0.,0.0684084,
 -0.0433869,0.,-0.0177717,-0.0198866,0.0647483,0.0063395,0.0375742,0.00
 63395,0.0574281,0.0216935,0.0153908,0.0088859,-0.0198866,0.0647483,-0.
 0063395,-0.0375742,-0.0063395,0.0574281,0.0216934,-0.0153908,0.0088859
 ,-0.0198866,-0.1602938,0.,0.,0.,-0.1602938,0.,0.,0.,-0.7253364\Polar=8
 .8153959,0.,8.8153959,0.,0.,22.4589793\PolarDeriv=-0.0000024,4.1126605
 ,0.0000024,1.9897856,0.,0.,4.1126605,0.0000024,-4.1126605,0.,1.9897856
 ,0.,3.6058513,0.,3.6058513,0.,0.,-12.0157454,-0.000001,2.7376904,-0.00
 00008,-2.2684641,0.0000002,-0.0000003,-0.5792663,-0.0000015,9.7642754,
 0.0000002,-3.2012464,1.3644076,-0.520081,0.0000001,-1.1120893,-0.00000
 08,4.0791714,-1.7965546,-7.4021213,-3.1944062,-0.5523291,-2.9680507,-0
 .4039067,-1.1816115,-1.5359273,-3.4248975,-3.0565789,-0.4039067,-2.501
 6599,-0.6822041,-0.9640871,-0.2563472,-0.6680832,-3.5326656,-2.0395864
 ,-1.7965546,7.4021244,-3.1944049,0.5523278,-2.968051,0.4039065,1.18161
 18,-1.5359271,3.4248969,-3.0565759,0.4039065,-2.5016595,-0.6822036,-0.
 9640873,0.2563471,-0.668083,3.5326664,-2.039585,-1.7965546,0.0000003,-
 0.4615512,-0.0000003,6.2147721,0.,0.,-0.4615512,-0.0000003,0.4615512,0
 .,6.2147721,0.,-1.1575947,0.,-1.1575947,0.,0.,17.4054109\HyperPolar=0.
 0000124,-20.9317437,-0.0000124,20.9317437,-20.1162047,0.,-20.1162047,0
 .,0.,-22.2636852\PG=C03V [C3(C1Cl1),3SGV(H1)]\NImag=0\\0.49998651,0.,0
 .49998651,0.,0.,0.37016310,-0.04148864,0.00000005,-0.00000001,0.041082
 04,0.00000005,-0.27376247,0.07549917,-0.00000005,0.31487247,-0.0000000
 1,0.07424247,-0.05689483,0.00000002,-0.08696269,0.07342018,-0.21569397
 ,-0.10057754,-0.06538419,-0.00169335,-0.00823154,-0.00064412,0.2464248
 2,-0.10057754,-0.09955713,-0.03774960,-0.02470877,-0.02071147,-0.00451
 043,0.11855476,0.10952969,-0.06429586,-0.03712125,-0.05689483,0.003584
 08,0.00281304,0.00589466,0.07531189,0.04348136,0.07342018,-0.21569405,
 0.10057750,0.06538420,-0.00169337,0.00823154,0.00064413,-0.03022051,0.
 00823861,0.00422821,0.24642491,0.10057750,-0.09955706,-0.03774957,0.02
 470878,-0.02071145,-0.00451043,-0.00823863,0.00781569,0.00169739,-0.11
 855471,0.10952960,0.06429587,-0.03712122,-0.05689483,-0.00358408,0.002
 81304,0.00589466,-0.00422821,0.00169738,0.00589466,-0.07531191,0.04348
 133,0.07342018,-0.02710974,0.,0.,0.00379330,0.,0.,0.00118301,-0.001507
 05,-0.01882836,0.00118301,0.00150705,0.01882837,0.02095034,0.,-0.02710
 974,0.,0.,0.00031291,0.02174112,-0.00150705,0.00292320,-0.01087057,0.0
 0150705,0.00292320,-0.01087056,0.,0.02095034,0.,0.,-0.19947866,0.,0.00
 583742,-0.02831467,-0.00505536,-0.00291871,-0.02831467,0.00505536,-0.0
 0291871,-0.02831467,0.,0.,0.28442268\\0.,0.,0.00005226,0.,-0.00004243,
 0.00004162,0.00003674,0.00002121,0.00004162,-0.00003674,0.00002121,0.0
 0004162,0.,0.,-0.00017713\\\@


 A MAN IS EXACTLY AS GREAT AS THE TIDE SURGING
 BENEATH HIM.      - BISMARCK
 Job cpu time:       0 days  0 hours  0 minutes  1.6 seconds.
 File lengths (MBytes):  RWF=     82 Int=      0 D2E=      0 Chk=      2 Scr=      2
 Normal termination of Gaussian 09 at Mon Apr 11 13:16:47 2022.
