 Entering Gaussian System, Link 0=g09
 Input=/scratch/mverot/anthraquinone-opt/anthraquinone-opt.com
 Output=/scratch/mverot/anthraquinone-opt/anthraquinone-opt.log
 Initial command:
 /opt/g09/l1.exe "/scratch/mverot/anthraquinone-opt/Gau-2745016.inp" -scrdir="/scratch/mverot/anthraquinone-opt/"
 Entering Link 1 = /opt/g09/l1.exe PID=   2745018.
  
 Copyright (c) 1988,1990,1992,1993,1995,1998,2003,2009,2013,
            Gaussian, Inc.  All Rights Reserved.
  
 This is part of the Gaussian(R) 09 program.  It is based on
 the Gaussian(R) 03 system (copyright 2003, Gaussian, Inc.),
 the Gaussian(R) 98 system (copyright 1998, Gaussian, Inc.),
 the Gaussian(R) 94 system (copyright 1995, Gaussian, Inc.),
 the Gaussian 92(TM) system (copyright 1992, Gaussian, Inc.),
 the Gaussian 90(TM) system (copyright 1990, Gaussian, Inc.),
 the Gaussian 88(TM) system (copyright 1988, Gaussian, Inc.),
 the Gaussian 86(TM) system (copyright 1986, Carnegie Mellon
 University), and the Gaussian 82(TM) system (copyright 1983,
 Carnegie Mellon University). Gaussian is a federally registered
 trademark of Gaussian, Inc.
  
 This software contains proprietary and confidential information,
 including trade secrets, belonging to Gaussian, Inc.
  
 This software is provided under written license and may be
 used, copied, transmitted, or stored only in accord with that
 written license.
  
 The following legend is applicable only to US Government
 contracts under FAR:
  
                    RESTRICTED RIGHTS LEGEND
  
 Use, reproduction and disclosure by the US Government is
 subject to restrictions as set forth in subparagraphs (a)
 and (c) of the Commercial Computer Software - Restricted
 Rights clause in FAR 52.227-19.
  
 Gaussian, Inc.
 340 Quinnipiac St., Bldg. 40, Wallingford CT 06492
  
  
 ---------------------------------------------------------------
 Warning -- This program may not be used in any manner that
 competes with the business of Gaussian, Inc. or will provide
 assistance to any competitor of Gaussian, Inc.  The licensee
 of this program is prohibited from giving any competitor of
 Gaussian, Inc. access to this program.  By using this program,
 the user acknowledges that Gaussian, Inc. is engaged in the
 business of creating and licensing software in the field of
 computational chemistry and represents and warrants to the
 licensee that it is not a competitor of Gaussian, Inc. and that
 it will not use this program in any manner prohibited above.
 ---------------------------------------------------------------
  

 Cite this work as:
 Gaussian 09, Revision D.01,
 M. J. Frisch, G. W. Trucks, H. B. Schlegel, G. E. Scuseria, 
 M. A. Robb, J. R. Cheeseman, G. Scalmani, V. Barone, B. Mennucci, 
 G. A. Petersson, H. Nakatsuji, M. Caricato, X. Li, H. P. Hratchian, 
 A. F. Izmaylov, J. Bloino, G. Zheng, J. L. Sonnenberg, M. Hada, 
 M. Ehara, K. Toyota, R. Fukuda, J. Hasegawa, M. Ishida, T. Nakajima, 
 Y. Honda, O. Kitao, H. Nakai, T. Vreven, J. A. Montgomery, Jr., 
 J. E. Peralta, F. Ogliaro, M. Bearpark, J. J. Heyd, E. Brothers, 
 K. N. Kudin, V. N. Staroverov, T. Keith, R. Kobayashi, J. Normand, 
 K. Raghavachari, A. Rendell, J. C. Burant, S. S. Iyengar, J. Tomasi, 
 M. Cossi, N. Rega, J. M. Millam, M. Klene, J. E. Knox, J. B. Cross, 
 V. Bakken, C. Adamo, J. Jaramillo, R. Gomperts, R. E. Stratmann, 
 O. Yazyev, A. J. Austin, R. Cammi, C. Pomelli, J. W. Ochterski, 
 R. L. Martin, K. Morokuma, V. G. Zakrzewski, G. A. Voth, 
 P. Salvador, J. J. Dannenberg, S. Dapprich, A. D. Daniels, 
 O. Farkas, J. B. Foresman, J. V. Ortiz, J. Cioslowski, 
 and D. J. Fox, Gaussian, Inc., Wallingford CT, 2013.
 
 ******************************************
 Gaussian 09:  AM64L-G09RevD.01 24-Apr-2013
                11-Apr-2022 
 ******************************************
 %chk=anthraquinone-opt
 -------------------------
 #n AM1 Opt symmetry=loose
 -------------------------
 1/14=-1,18=20,19=15,26=1,38=1/1,3;
 2/9=110,12=2,17=4,18=3,40=1/2;
 3/5=2,16=1,25=1,41=700000,71=1/1,2,3;
 4/35=1/1;
 5/5=2,35=1,38=5/2;
 6/7=2,8=2,9=2,10=2,28=1/1;
 7//1,2,3,16;
 1/14=-1,18=20,19=15,26=1/3(2);
 2/9=110/2;
 99//99;
 2/9=110/2;
 3/5=2,16=1,25=1,41=700000,71=1,135=20/1,2,3;
 4/5=5,16=3,35=1/1;
 5/5=2,35=1,38=5/2;
 7//1,2,3,16;
 1/14=-1,18=20,19=15,26=1/3(-5);
 2/9=110/2;
 6/7=2,8=2,9=2,10=2,19=2,28=1/1;
 99/9=1/99;
 -------------------------------------------------------
 Optimisation of anthraquinone using the AM1 hamiltonian
 -------------------------------------------------------
 Symbolic Z-matrix:
 Charge =  0 Multiplicity = 1
 C                    -0.6696   -1.2662    0.1053 
 C                    -2.0876   -0.8192   -0.017 
 C                     0.3876   -0.2137    0.0944 
 O                    -0.3836   -2.4543    0.2084 
 C                    -1.3588    1.598    -0.1475 
 C                     0.0592    1.151    -0.0256 
 O                    -1.6447    2.7861   -0.2512 
 C                    -2.416     0.5456   -0.137 
 C                    -3.1053   -1.7801   -0.0108 
 C                     1.077     2.1119   -0.0321 
 C                    -3.7573    0.9295   -0.2492 
 C                     1.7289   -0.5977    0.2063 
 C                    -4.437    -1.3892   -0.1228 
 C                    -4.7633   -0.033    -0.2422 
 C                     2.735     0.3648    0.1989 
 C                     2.4087    1.721     0.0796 
 H                    -2.8267   -2.8246    0.0833 
 H                     0.7984    3.1564   -0.1262 
 H                    -3.9841    1.9867   -0.341 
 H                     1.9557   -1.6549    0.2981 
 H                    -5.2236   -2.1387   -0.1174 
 H                    -5.8031    0.2698   -0.3298 
 H                     3.7748    0.062     0.2863 
 H                     3.1953    2.4705    0.0739 
 

 GradGradGradGradGradGradGradGradGradGradGradGradGradGradGradGradGradGrad
 Berny optimization.
 Initialization pass.
                           ----------------------------
                           !    Initial Parameters    !
                           ! (Angstroms and Degrees)  !
 --------------------------                            --------------------------
 ! Name  Definition              Value          Derivative Info.                !
 --------------------------------------------------------------------------------
 ! R1    R(1,2)                  1.4918         estimate D2E/DX2                !
 ! R2    R(1,3)                  1.4918         estimate D2E/DX2                !
 ! R3    R(1,4)                  1.2264         estimate D2E/DX2                !
 ! R4    R(2,8)                  1.4089         estimate D2E/DX2                !
 ! R5    R(2,9)                  1.3997         estimate D2E/DX2                !
 ! R6    R(3,6)                  1.4088         estimate D2E/DX2                !
 ! R7    R(3,12)                 1.3997         estimate D2E/DX2                !
 ! R8    R(5,6)                  1.4918         estimate D2E/DX2                !
 ! R9    R(5,7)                  1.2264         estimate D2E/DX2                !
 ! R10   R(5,8)                  1.4918         estimate D2E/DX2                !
 ! R11   R(6,10)                 1.3997         estimate D2E/DX2                !
 ! R12   R(8,11)                 1.3997         estimate D2E/DX2                !
 ! R13   R(9,13)                 1.3924         estimate D2E/DX2                !
 ! R14   R(9,17)                 1.0851         estimate D2E/DX2                !
 ! R15   R(10,16)                1.3924         estimate D2E/DX2                !
 ! R16   R(10,18)                1.0851         estimate D2E/DX2                !
 ! R17   R(11,14)                1.3923         estimate D2E/DX2                !
 ! R18   R(11,19)                1.0851         estimate D2E/DX2                !
 ! R19   R(12,15)                1.3924         estimate D2E/DX2                !
 ! R20   R(12,20)                1.0851         estimate D2E/DX2                !
 ! R21   R(13,14)                1.4            estimate D2E/DX2                !
 ! R22   R(13,21)                1.0865         estimate D2E/DX2                !
 ! R23   R(14,22)                1.0865         estimate D2E/DX2                !
 ! R24   R(15,16)                1.4            estimate D2E/DX2                !
 ! R25   R(15,23)                1.0865         estimate D2E/DX2                !
 ! R26   R(16,24)                1.0865         estimate D2E/DX2                !
 ! A1    A(2,1,3)              117.4907         estimate D2E/DX2                !
 ! A2    A(2,1,4)              121.2548         estimate D2E/DX2                !
 ! A3    A(3,1,4)              121.2544         estimate D2E/DX2                !
 ! A4    A(1,2,8)              121.2523         estimate D2E/DX2                !
 ! A5    A(1,2,9)              119.0162         estimate D2E/DX2                !
 ! A6    A(8,2,9)              119.7315         estimate D2E/DX2                !
 ! A7    A(1,3,6)              121.2561         estimate D2E/DX2                !
 ! A8    A(1,3,12)             119.0104         estimate D2E/DX2                !
 ! A9    A(6,3,12)             119.7335         estimate D2E/DX2                !
 ! A10   A(6,5,7)              121.2507         estimate D2E/DX2                !
 ! A11   A(6,5,8)              117.4956         estimate D2E/DX2                !
 ! A12   A(7,5,8)              121.2536         estimate D2E/DX2                !
 ! A13   A(3,6,5)              121.2525         estimate D2E/DX2                !
 ! A14   A(3,6,10)             119.7289         estimate D2E/DX2                !
 ! A15   A(5,6,10)             119.0186         estimate D2E/DX2                !
 ! A16   A(2,8,5)              121.2528         estimate D2E/DX2                !
 ! A17   A(2,8,11)             119.7293         estimate D2E/DX2                !
 ! A18   A(5,8,11)             119.0179         estimate D2E/DX2                !
 ! A19   A(2,9,13)             120.1533         estimate D2E/DX2                !
 ! A20   A(2,9,17)             118.3288         estimate D2E/DX2                !
 ! A21   A(13,9,17)            121.518          estimate D2E/DX2                !
 ! A22   A(6,10,16)            120.1555         estimate D2E/DX2                !
 ! A23   A(6,10,18)            118.3272         estimate D2E/DX2                !
 ! A24   A(16,10,18)           121.5173         estimate D2E/DX2                !
 ! A25   A(8,11,14)            120.1592         estimate D2E/DX2                !
 ! A26   A(8,11,19)            118.313          estimate D2E/DX2                !
 ! A27   A(14,11,19)           121.5277         estimate D2E/DX2                !
 ! A28   A(3,12,15)            120.1572         estimate D2E/DX2                !
 ! A29   A(3,12,20)            118.3163         estimate D2E/DX2                !
 ! A30   A(15,12,20)           121.5265         estimate D2E/DX2                !
 ! A31   A(9,13,14)            120.1143         estimate D2E/DX2                !
 ! A32   A(9,13,21)            119.8907         estimate D2E/DX2                !
 ! A33   A(14,13,21)           119.995          estimate D2E/DX2                !
 ! A34   A(11,14,13)           120.1124         estimate D2E/DX2                !
 ! A35   A(11,14,22)           119.8949         estimate D2E/DX2                !
 ! A36   A(13,14,22)           119.9927         estimate D2E/DX2                !
 ! A37   A(12,15,16)           120.1114         estimate D2E/DX2                !
 ! A38   A(12,15,23)           119.8967         estimate D2E/DX2                !
 ! A39   A(16,15,23)           119.992          estimate D2E/DX2                !
 ! A40   A(10,16,15)           120.1135         estimate D2E/DX2                !
 ! A41   A(10,16,24)           119.8898         estimate D2E/DX2                !
 ! A42   A(15,16,24)           119.9967         estimate D2E/DX2                !
 ! D1    D(3,1,2,8)             -0.0585         estimate D2E/DX2                !
 ! D2    D(3,1,2,9)            179.9794         estimate D2E/DX2                !
 ! D3    D(4,1,2,8)           -179.9254         estimate D2E/DX2                !
 ! D4    D(4,1,2,9)              0.1125         estimate D2E/DX2                !
 ! D5    D(2,1,3,6)              0.0581         estimate D2E/DX2                !
 ! D6    D(2,1,3,12)          -179.9569         estimate D2E/DX2                !
 ! D7    D(4,1,3,6)            179.9251         estimate D2E/DX2                !
 ! D8    D(4,1,3,12)            -0.09           estimate D2E/DX2                !
 ! D9    D(1,2,8,5)              0.0431         estimate D2E/DX2                !
 ! D10   D(1,2,8,11)          -179.9692         estimate D2E/DX2                !
 ! D11   D(9,2,8,5)           -179.995          estimate D2E/DX2                !
 ! D12   D(9,2,8,11)            -0.0074         estimate D2E/DX2                !
 ! D13   D(1,2,9,13)           179.965          estimate D2E/DX2                !
 ! D14   D(1,2,9,17)            -0.0043         estimate D2E/DX2                !
 ! D15   D(8,2,9,13)             0.0023         estimate D2E/DX2                !
 ! D16   D(8,2,9,17)          -179.967          estimate D2E/DX2                !
 ! D17   D(1,3,6,5)             -0.0425         estimate D2E/DX2                !
 ! D18   D(1,3,6,10)           179.9919         estimate D2E/DX2                !
 ! D19   D(12,3,6,5)           179.9727         estimate D2E/DX2                !
 ! D20   D(12,3,6,10)            0.007          estimate D2E/DX2                !
 ! D21   D(1,3,12,15)         -179.9947         estimate D2E/DX2                !
 ! D22   D(1,3,12,20)           -0.019          estimate D2E/DX2                !
 ! D23   D(6,3,12,15)           -0.0095         estimate D2E/DX2                !
 ! D24   D(6,3,12,20)          179.9662         estimate D2E/DX2                !
 ! D25   D(7,5,6,3)            179.9581         estimate D2E/DX2                !
 ! D26   D(7,5,6,10)            -0.076          estimate D2E/DX2                !
 ! D27   D(8,5,6,3)              0.024          estimate D2E/DX2                !
 ! D28   D(8,5,6,10)           179.9899         estimate D2E/DX2                !
 ! D29   D(6,5,8,2)             -0.0243         estimate D2E/DX2                !
 ! D30   D(6,5,8,11)           179.9879         estimate D2E/DX2                !
 ! D31   D(7,5,8,2)           -179.9584         estimate D2E/DX2                !
 ! D32   D(7,5,8,11)             0.0539         estimate D2E/DX2                !
 ! D33   D(3,6,10,16)           -0.0022         estimate D2E/DX2                !
 ! D34   D(3,6,10,18)          179.9669         estimate D2E/DX2                !
 ! D35   D(5,6,10,16)         -179.9686         estimate D2E/DX2                !
 ! D36   D(5,6,10,18)            0.0005         estimate D2E/DX2                !
 ! D37   D(2,8,11,14)            0.005          estimate D2E/DX2                !
 ! D38   D(2,8,11,19)         -179.9655         estimate D2E/DX2                !
 ! D39   D(5,8,11,14)          179.9929         estimate D2E/DX2                !
 ! D40   D(5,8,11,19)            0.0224         estimate D2E/DX2                !
 ! D41   D(2,9,13,14)            0.0051         estimate D2E/DX2                !
 ! D42   D(2,9,13,21)         -179.9932         estimate D2E/DX2                !
 ! D43   D(17,9,13,14)         179.9734         estimate D2E/DX2                !
 ! D44   D(17,9,13,21)          -0.0249         estimate D2E/DX2                !
 ! D45   D(6,10,16,15)          -0.0002         estimate D2E/DX2                !
 ! D46   D(6,10,16,24)         179.9894         estimate D2E/DX2                !
 ! D47   D(18,10,16,15)       -179.9683         estimate D2E/DX2                !
 ! D48   D(18,10,16,24)          0.0213         estimate D2E/DX2                !
 ! D49   D(8,11,14,13)           0.0024         estimate D2E/DX2                !
 ! D50   D(8,11,14,22)        -179.9854         estimate D2E/DX2                !
 ! D51   D(19,11,14,13)        179.9719         estimate D2E/DX2                !
 ! D52   D(19,11,14,22)         -0.0158         estimate D2E/DX2                !
 ! D53   D(3,12,15,16)           0.0072         estimate D2E/DX2                !
 ! D54   D(3,12,15,23)         179.9831         estimate D2E/DX2                !
 ! D55   D(20,12,15,16)       -179.9678         estimate D2E/DX2                !
 ! D56   D(20,12,15,23)          0.0081         estimate D2E/DX2                !
 ! D57   D(9,13,14,11)          -0.0075         estimate D2E/DX2                !
 ! D58   D(9,13,14,22)         179.9802         estimate D2E/DX2                !
 ! D59   D(21,13,14,11)        179.9908         estimate D2E/DX2                !
 ! D60   D(21,13,14,22)         -0.0215         estimate D2E/DX2                !
 ! D61   D(12,15,16,10)         -0.0023         estimate D2E/DX2                !
 ! D62   D(12,15,16,24)       -179.9919         estimate D2E/DX2                !
 ! D63   D(23,15,16,10)       -179.9782         estimate D2E/DX2                !
 ! D64   D(23,15,16,24)          0.0322         estimate D2E/DX2                !
 --------------------------------------------------------------------------------
 Trust Radius=3.00D-01 FncErr=1.00D-07 GrdErr=1.00D-07
 Number of steps in this run=    142 maximum allowed number of steps=    144.
 GradGradGradGradGradGradGradGradGradGradGradGradGradGradGradGradGradGrad

                          Input orientation:                          
 ---------------------------------------------------------------------
 Center     Atomic      Atomic             Coordinates (Angstroms)
 Number     Number       Type             X           Y           Z
 ---------------------------------------------------------------------
      1          6           0       -0.669600   -1.266200    0.105300
      2          6           0       -2.087600   -0.819200   -0.017000
      3          6           0        0.387600   -0.213700    0.094400
      4          8           0       -0.383600   -2.454300    0.208400
      5          6           0       -1.358800    1.598000   -0.147500
      6          6           0        0.059200    1.151000   -0.025600
      7          8           0       -1.644700    2.786100   -0.251200
      8          6           0       -2.416000    0.545600   -0.137000
      9          6           0       -3.105300   -1.780100   -0.010800
     10          6           0        1.077000    2.111900   -0.032100
     11          6           0       -3.757300    0.929500   -0.249200
     12          6           0        1.728900   -0.597700    0.206300
     13          6           0       -4.437000   -1.389200   -0.122800
     14          6           0       -4.763300   -0.033000   -0.242200
     15          6           0        2.735000    0.364800    0.198900
     16          6           0        2.408700    1.721000    0.079600
     17          1           0       -2.826700   -2.824600    0.083300
     18          1           0        0.798400    3.156400   -0.126200
     19          1           0       -3.984100    1.986700   -0.341000
     20          1           0        1.955700   -1.654900    0.298100
     21          1           0       -5.223600   -2.138700   -0.117400
     22          1           0       -5.803100    0.269800   -0.329800
     23          1           0        3.774800    0.062000    0.286300
     24          1           0        3.195300    2.470500    0.073900
 ---------------------------------------------------------------------
                    Distance matrix (angstroms):
                    1          2          3          4          5
     1  C    0.000000
     2  C    1.491808   0.000000
     3  C    1.491827   2.550619   0.000000
     4  O    1.226380   2.372335   2.372348   0.000000
     5  C    2.956780   2.528050   2.527981   4.183159   0.000000
     6  C    2.528070   2.913848   1.408777   3.639920   1.491775
     7  O    4.183186   3.639945   3.639847   5.409565   1.226407
     8  C    2.528090   1.408874   2.913804   3.639966   1.491753
     9  C    2.492029   1.399672   3.829494   2.812516   3.805326
    10  C    3.805397   4.313498   2.428928   4.800143   2.492094
    11  C    3.805346   2.428944   4.313370   4.800141   2.491995
    12  C    2.491966   3.829438   1.399665   2.812405   3.805281
    13  C    3.776303   2.419871   4.970487   4.204067   4.289439
    14  C    4.289513   2.797891   5.165048   5.024690   3.776208
    15  C    3.776271   4.970507   2.419890   4.203936   4.289519
    16  C    4.289517   5.165139   2.797879   5.024605   3.776342
    17  H    2.661236   2.139616   4.141092   2.474168   4.665554
    18  H    4.665620   4.913890   3.402204   5.743608   2.661311
    19  H    4.665453   3.402170   4.913562   5.743511   2.660964
    20  H    2.660913   4.140768   2.139507   2.473744   4.665386
    21  H    4.642173   3.403771   5.935996   4.861209   5.375920
    22  H    5.376005   3.884418   6.224025   6.089447   4.642106
    23  H    4.642151   5.936012   3.403815   4.861083   5.375995
    24  H    5.375999   6.224100   3.884396   6.089357   4.642209
                    6          7          8          9         10
     6  C    0.000000
     7  O    2.372282   0.000000
     8  C    2.550595   2.372295   0.000000
     9  C    4.313424   4.800138   2.428980   0.000000
    10  C    1.399746   2.812508   3.829536   5.713121   0.000000
    11  C    3.829456   2.812480   1.399662   2.797118   4.981532
    12  C    2.428915   4.800061   4.313373   4.981435   2.797095
    13  C    5.165063   5.024595   2.797873   1.392398   6.532237
    14  C    4.970440   4.203935   2.419848   2.419684   6.225258
    15  C    2.797931   5.024645   5.165106   6.225245   2.419645
    16  C    2.419942   4.204036   4.970534   6.532233   1.392374
    17  H    4.913825   5.743602   3.402272   1.085105   6.294539
    18  H    2.139665   2.474163   4.141106   6.294539   1.085105
    19  H    4.140791   2.473843   2.139468   3.882023   5.072063
    20  H    3.402142   5.743439   4.913580   5.071964   3.882001
    21  H    6.224028   6.089342   3.884388   2.151082   7.600818
    22  H    5.935959   4.861094   3.403775   3.403230   7.128656
    23  H    3.884442   6.089385   6.224071   7.128631   3.403174
    24  H    3.403837   4.861162   5.936026   7.600811   2.151052
                   11         12         13         14         15
    11  C    0.000000
    12  C    5.712986   0.000000
    13  C    2.419574   6.225199   0.000000
    14  C    1.392297   6.532128   1.400002   0.000000
    15  C    6.532200   1.392371   7.390371   7.521789   0.000000
    16  C    6.225282   2.419618   7.521829   7.390376   1.399994
    17  H    3.881989   5.072248   2.167006   3.413122   6.412343
    18  H    5.072338   3.881965   6.933391   6.412350   3.413084
    19  H    1.085144   6.294206   3.413126   2.167049   6.933135
    20  H    6.294206   1.085144   6.412049   6.933069   2.167103
    21  H    3.403125   7.128585   1.086517   2.159033   8.349064
    22  H    2.151046   7.600723   2.159018   1.086529   8.554981
    23  H    7.600779   2.151119   8.349072   8.554969   1.086513
    24  H    7.128655   3.403191   8.554997   8.349057   2.159045
                   16         17         18         19         20
    16  C    0.000000
    17  H    6.933391   0.000000
    18  H    2.166978   6.996971   0.000000
    19  H    6.412129   4.966710   4.928148   0.000000
    20  H    3.413159   4.928051   4.966687   6.996494   0.000000
    21  H    8.555004   2.501174   8.018893   4.313384   7.207569
    22  H    8.349087   4.313342   7.207893   2.501326   8.018585
    23  H    2.158989   7.207876   4.313285   8.018635   2.501402
    24  H    1.086518   8.018894   2.501125   7.207634   4.313444
                   21         22         23         24
    21  H    0.000000
    22  H    2.486324   0.000000
    23  H    9.272392   9.599944   0.000000
    24  H    9.599958   9.272392   2.486324   0.000000
 Stoichiometry    C14H8O2
 Framework group  C1[X(C14H8O2)]
 Deg. of freedom    66
 Full point group                 C1      NOp   1
 Largest Abelian subgroup         C1      NOp   1
 Largest concise Abelian subgroup C1      NOp   1
                         Standard orientation:                         
 ---------------------------------------------------------------------
 Center     Atomic      Atomic             Coordinates (Angstroms)
 Number     Number       Type             X           Y           Z
 ---------------------------------------------------------------------
      1          6           0        0.000005    1.478416   -0.000831
      2          6           0       -1.275324    0.704448    0.000016
      3          6           0        1.275295    0.704348   -0.000295
      4          8           0        0.000053    2.704795    0.000508
      5          6           0       -0.000032   -1.478363    0.000191
      6          6           0        1.275279   -0.704429   -0.000258
      7          8           0       -0.000009   -2.704770   -0.000544
      8          6           0       -1.275315   -0.704426    0.000045
      9          6           0       -2.490745    1.398589   -0.000017
     10          6           0        2.490784   -1.398573    0.000079
     11          6           0       -2.490747   -1.398529    0.000199
     12          6           0        2.490690    1.398522   -0.000143
     13          6           0       -3.695190    0.699960    0.000030
     14          6           0       -3.695159   -0.700042    0.000216
     15          6           0        3.695181    0.700025    0.000244
     16          6           0        3.695217   -0.699969    0.000332
     17          1           0       -2.464187    2.483369   -0.000590
     18          1           0        2.464227   -2.483353    0.000652
     19          1           0       -2.463921   -2.483341    0.000795
     20          1           0        2.463864    2.483334   -0.000738
     21          1           0       -4.636201    1.243116   -0.000108
     22          1           0       -4.636178   -1.243208    0.000577
     23          1           0        4.636192    1.243173    0.000083
     24          1           0        4.636214   -1.243151    0.000768
 ---------------------------------------------------------------------
 Rotational constants (GHZ):      1.1015177      0.4423886      0.3156273
 Standard basis: VSTO-6G (5D, 7F)
 There are    72 symmetry adapted cartesian basis functions of A   symmetry.
 There are    72 symmetry adapted basis functions of A   symmetry.
    72 basis functions,   432 primitive gaussians,    72 cartesian basis functions
    38 alpha electrons       38 beta electrons
       nuclear repulsion energy       524.5665521729 Hartrees.
 Integral buffers will be    131072 words long.
 Regular integral format.
 Two-electron integral symmetry is turned off.
 Do NDO integrals.
 One-electron integrals computed using PRISM.
 NBasis=    72 RedAO= F EigKep=  0.00D+00  NBF=    72
 NBsUse=    72 1.00D-04 EigRej=  0.00D+00 NBFU=    72
 Simple Huckel Guess.
 Overlap will be assumed to be unity.
 Keep J ints in memory in canonical form, NReq=925171.
 Requested convergence on RMS density matrix=1.00D-08 within 128 cycles.
 Requested convergence on MAX density matrix=1.00D-06.
 Requested convergence on             energy=1.00D-06.
 No special actions if energy rises.
 SCF Done:  E(RAM1) = -0.713262156364E-02 A.U. after   15 cycles
            NFock= 14  Conv=0.38D-08     -V/T= 0.9999

 **********************************************************************

            Population analysis using the SCF density.

 **********************************************************************

 Orbital symmetries:
       Occupied  (A) (A) (A) (A) (A) (A) (A) (A) (A) (A) (A) (A)
                 (A) (A) (A) (A) (A) (A) (A) (A) (A) (A) (A) (A)
                 (A) (A) (A) (A) (A) (A) (A) (A) (A) (A) (A) (A)
                 (A) (A)
       Virtual   (A) (A) (A) (A) (A) (A) (A) (A) (A) (A) (A) (A)
                 (A) (A) (A) (A) (A) (A) (A) (A) (A) (A) (A) (A)
                 (A) (A) (A) (A) (A) (A) (A) (A) (A) (A)
 The electronic state is 1-A.
 Alpha  occ. eigenvalues --   -1.53293  -1.45901  -1.45346  -1.40408  -1.24654
 Alpha  occ. eigenvalues --   -1.18561  -1.17762  -1.15413  -0.99015  -0.93997
 Alpha  occ. eigenvalues --   -0.89228  -0.84508  -0.80714  -0.74972  -0.70420
 Alpha  occ. eigenvalues --   -0.65633  -0.63028  -0.61277  -0.59854  -0.59651
 Alpha  occ. eigenvalues --   -0.59102  -0.56004  -0.55386  -0.55044  -0.54850
 Alpha  occ. eigenvalues --   -0.54803  -0.50911  -0.49195  -0.48678  -0.48644
 Alpha  occ. eigenvalues --   -0.46673  -0.45647  -0.41442  -0.39542  -0.37784
 Alpha  occ. eigenvalues --   -0.37511  -0.37327  -0.37290
 Alpha virt. eigenvalues --   -0.04899  -0.01221  -0.00693   0.00200   0.04920
 Alpha virt. eigenvalues --    0.05342   0.08590   0.09172   0.09550   0.10484
 Alpha virt. eigenvalues --    0.12339   0.12855   0.13235   0.13443   0.13958
 Alpha virt. eigenvalues --    0.14206   0.14217   0.14429   0.14719   0.15459
 Alpha virt. eigenvalues --    0.16239   0.16301   0.17155   0.17277   0.17708
 Alpha virt. eigenvalues --    0.18054   0.18384   0.18746   0.18869   0.18910
 Alpha virt. eigenvalues --    0.20195   0.20339   0.22584   0.23319
          Condensed to atoms (all electrons):
               1          2          3          4          5          6
     1  C    3.692792   0.000000   0.000000   0.000000   0.000000   0.000000
     2  C    0.000000   4.109859   0.000000   0.000000   0.000000   0.000000
     3  C    0.000000   0.000000   4.109864   0.000000   0.000000   0.000000
     4  O    0.000000   0.000000   0.000000   6.279689   0.000000   0.000000
     5  C    0.000000   0.000000   0.000000   0.000000   3.692791   0.000000
     6  C    0.000000   0.000000   0.000000   0.000000   0.000000   4.109851
     7  O    0.000000   0.000000   0.000000   0.000000   0.000000   0.000000
     8  C    0.000000   0.000000   0.000000   0.000000   0.000000   0.000000
     9  C    0.000000   0.000000   0.000000   0.000000   0.000000   0.000000
    10  C    0.000000   0.000000   0.000000   0.000000   0.000000   0.000000
    11  C    0.000000   0.000000   0.000000   0.000000   0.000000   0.000000
    12  C    0.000000   0.000000   0.000000   0.000000   0.000000   0.000000
    13  C    0.000000   0.000000   0.000000   0.000000   0.000000   0.000000
    14  C    0.000000   0.000000   0.000000   0.000000   0.000000   0.000000
    15  C    0.000000   0.000000   0.000000   0.000000   0.000000   0.000000
    16  C    0.000000   0.000000   0.000000   0.000000   0.000000   0.000000
    17  H    0.000000   0.000000   0.000000   0.000000   0.000000   0.000000
    18  H    0.000000   0.000000   0.000000   0.000000   0.000000   0.000000
    19  H    0.000000   0.000000   0.000000   0.000000   0.000000   0.000000
    20  H    0.000000   0.000000   0.000000   0.000000   0.000000   0.000000
    21  H    0.000000   0.000000   0.000000   0.000000   0.000000   0.000000
    22  H    0.000000   0.000000   0.000000   0.000000   0.000000   0.000000
    23  H    0.000000   0.000000   0.000000   0.000000   0.000000   0.000000
    24  H    0.000000   0.000000   0.000000   0.000000   0.000000   0.000000
               7          8          9         10         11         12
     1  C    0.000000   0.000000   0.000000   0.000000   0.000000   0.000000
     2  C    0.000000   0.000000   0.000000   0.000000   0.000000   0.000000
     3  C    0.000000   0.000000   0.000000   0.000000   0.000000   0.000000
     4  O    0.000000   0.000000   0.000000   0.000000   0.000000   0.000000
     5  C    0.000000   0.000000   0.000000   0.000000   0.000000   0.000000
     6  C    0.000000   0.000000   0.000000   0.000000   0.000000   0.000000
     7  O    6.279714   0.000000   0.000000   0.000000   0.000000   0.000000
     8  C    0.000000   4.109868   0.000000   0.000000   0.000000   0.000000
     9  C    0.000000   0.000000   4.086792   0.000000   0.000000   0.000000
    10  C    0.000000   0.000000   0.000000   4.086781   0.000000   0.000000
    11  C    0.000000   0.000000   0.000000   0.000000   4.086785   0.000000
    12  C    0.000000   0.000000   0.000000   0.000000   0.000000   4.086814
    13  C    0.000000   0.000000   0.000000   0.000000   0.000000   0.000000
    14  C    0.000000   0.000000   0.000000   0.000000   0.000000   0.000000
    15  C    0.000000   0.000000   0.000000   0.000000   0.000000   0.000000
    16  C    0.000000   0.000000   0.000000   0.000000   0.000000   0.000000
    17  H    0.000000   0.000000   0.000000   0.000000   0.000000   0.000000
    18  H    0.000000   0.000000   0.000000   0.000000   0.000000   0.000000
    19  H    0.000000   0.000000   0.000000   0.000000   0.000000   0.000000
    20  H    0.000000   0.000000   0.000000   0.000000   0.000000   0.000000
    21  H    0.000000   0.000000   0.000000   0.000000   0.000000   0.000000
    22  H    0.000000   0.000000   0.000000   0.000000   0.000000   0.000000
    23  H    0.000000   0.000000   0.000000   0.000000   0.000000   0.000000
    24  H    0.000000   0.000000   0.000000   0.000000   0.000000   0.000000
              13         14         15         16         17         18
     1  C    0.000000   0.000000   0.000000   0.000000   0.000000   0.000000
     2  C    0.000000   0.000000   0.000000   0.000000   0.000000   0.000000
     3  C    0.000000   0.000000   0.000000   0.000000   0.000000   0.000000
     4  O    0.000000   0.000000   0.000000   0.000000   0.000000   0.000000
     5  C    0.000000   0.000000   0.000000   0.000000   0.000000   0.000000
     6  C    0.000000   0.000000   0.000000   0.000000   0.000000   0.000000
     7  O    0.000000   0.000000   0.000000   0.000000   0.000000   0.000000
     8  C    0.000000   0.000000   0.000000   0.000000   0.000000   0.000000
     9  C    0.000000   0.000000   0.000000   0.000000   0.000000   0.000000
    10  C    0.000000   0.000000   0.000000   0.000000   0.000000   0.000000
    11  C    0.000000   0.000000   0.000000   0.000000   0.000000   0.000000
    12  C    0.000000   0.000000   0.000000   0.000000   0.000000   0.000000
    13  C    4.115369   0.000000   0.000000   0.000000   0.000000   0.000000
    14  C    0.000000   4.115363   0.000000   0.000000   0.000000   0.000000
    15  C    0.000000   0.000000   4.115349   0.000000   0.000000   0.000000
    16  C    0.000000   0.000000   0.000000   4.115389   0.000000   0.000000
    17  H    0.000000   0.000000   0.000000   0.000000   0.842083   0.000000
    18  H    0.000000   0.000000   0.000000   0.000000   0.000000   0.842087
    19  H    0.000000   0.000000   0.000000   0.000000   0.000000   0.000000
    20  H    0.000000   0.000000   0.000000   0.000000   0.000000   0.000000
    21  H    0.000000   0.000000   0.000000   0.000000   0.000000   0.000000
    22  H    0.000000   0.000000   0.000000   0.000000   0.000000   0.000000
    23  H    0.000000   0.000000   0.000000   0.000000   0.000000   0.000000
    24  H    0.000000   0.000000   0.000000   0.000000   0.000000   0.000000
              19         20         21         22         23         24
     1  C    0.000000   0.000000   0.000000   0.000000   0.000000   0.000000
     2  C    0.000000   0.000000   0.000000   0.000000   0.000000   0.000000
     3  C    0.000000   0.000000   0.000000   0.000000   0.000000   0.000000
     4  O    0.000000   0.000000   0.000000   0.000000   0.000000   0.000000
     5  C    0.000000   0.000000   0.000000   0.000000   0.000000   0.000000
     6  C    0.000000   0.000000   0.000000   0.000000   0.000000   0.000000
     7  O    0.000000   0.000000   0.000000   0.000000   0.000000   0.000000
     8  C    0.000000   0.000000   0.000000   0.000000   0.000000   0.000000
     9  C    0.000000   0.000000   0.000000   0.000000   0.000000   0.000000
    10  C    0.000000   0.000000   0.000000   0.000000   0.000000   0.000000
    11  C    0.000000   0.000000   0.000000   0.000000   0.000000   0.000000
    12  C    0.000000   0.000000   0.000000   0.000000   0.000000   0.000000
    13  C    0.000000   0.000000   0.000000   0.000000   0.000000   0.000000
    14  C    0.000000   0.000000   0.000000   0.000000   0.000000   0.000000
    15  C    0.000000   0.000000   0.000000   0.000000   0.000000   0.000000
    16  C    0.000000   0.000000   0.000000   0.000000   0.000000   0.000000
    17  H    0.000000   0.000000   0.000000   0.000000   0.000000   0.000000
    18  H    0.000000   0.000000   0.000000   0.000000   0.000000   0.000000
    19  H    0.842082   0.000000   0.000000   0.000000   0.000000   0.000000
    20  H    0.000000   0.842078   0.000000   0.000000   0.000000   0.000000
    21  H    0.000000   0.000000   0.859653   0.000000   0.000000   0.000000
    22  H    0.000000   0.000000   0.000000   0.859647   0.000000   0.000000
    23  H    0.000000   0.000000   0.000000   0.000000   0.859649   0.000000
    24  H    0.000000   0.000000   0.000000   0.000000   0.000000   0.859651
 Mulliken charges:
               1
     1  C    0.307208
     2  C   -0.109859
     3  C   -0.109864
     4  O   -0.279689
     5  C    0.307209
     6  C   -0.109851
     7  O   -0.279714
     8  C   -0.109868
     9  C   -0.086792
    10  C   -0.086781
    11  C   -0.086785
    12  C   -0.086814
    13  C   -0.115369
    14  C   -0.115363
    15  C   -0.115349
    16  C   -0.115389
    17  H    0.157917
    18  H    0.157913
    19  H    0.157918
    20  H    0.157922
    21  H    0.140347
    22  H    0.140353
    23  H    0.140351
    24  H    0.140349
 Sum of Mulliken charges =  -0.00000
 Mulliken charges with hydrogens summed into heavy atoms:
               1
     1  C    0.307208
     2  C   -0.109859
     3  C   -0.109864
     4  O   -0.279689
     5  C    0.307209
     6  C   -0.109851
     7  O   -0.279714
     8  C   -0.109868
     9  C    0.071125
    10  C    0.071132
    11  C    0.071133
    12  C    0.071108
    13  C    0.024978
    14  C    0.024990
    15  C    0.025002
    16  C    0.024961
 Charge=             -0.0000 electrons
 Dipole moment (field-independent basis, Debye):
    X=             -0.0003    Y=              0.0003    Z=             -0.0004  Tot=              0.0006
 N-N= 5.245665521729D+02 E-N=-9.403672962857D+02  KE=-5.239068327480D+01
 Calling FoFJK, ICntrl=      2127 FMM=F ISym2X=0 I1Cent= 0 IOpClX= 0 NMat=1 NMatS=1 NMatT=0.
 ***** Axes restored to original set *****
 -------------------------------------------------------------------
 Center     Atomic                   Forces (Hartrees/Bohr)
 Number     Number              X              Y              Z
 -------------------------------------------------------------------
      1        6          -0.007467997    0.031078799   -0.003031664
      2        6           0.009355742    0.007922503    0.000154757
      3        6          -0.011924404    0.002639761   -0.000821582
      4        8           0.005701177   -0.023708499    0.002168484
      5        6           0.007472975   -0.030990801    0.002887475
      6        6          -0.009303706   -0.007819715   -0.000106198
      7        8          -0.005698992    0.023678563   -0.002123613
      8        6           0.011921700   -0.002769976    0.000884003
      9        6           0.001213736    0.011844349   -0.000748092
     10        6          -0.001281217   -0.011864880    0.000747226
     11        6           0.006527544   -0.009839670    0.001082964
     12        6          -0.006450057    0.009905805   -0.001096150
     13        6           0.003102308    0.011466193   -0.000651620
     14        6           0.007900579   -0.008836749    0.001131523
     15        6          -0.007967090    0.008769044   -0.001107135
     16        6          -0.003104644   -0.011467069    0.000632320
     17        1           0.001549281   -0.012472390    0.000988360
     18        1          -0.001552661    0.012470678   -0.000987708
     19        1          -0.004309405    0.011780067   -0.001110239
     20        1           0.004307217   -0.011775361    0.001110820
     21        1          -0.007183494   -0.006654985    0.000031914
     22        1          -0.009403851    0.002597972   -0.000769632
     23        1           0.009410461   -0.002606558    0.000763681
     24        1           0.007184798    0.006652919   -0.000029893
 -------------------------------------------------------------------
 Cartesian Forces:  Max     0.031078799 RMS     0.009130605

 GradGradGradGradGradGradGradGradGradGradGradGradGradGradGradGradGradGrad
 Berny optimization.
 FormGI is forming the generalized inverse of G from B-inverse, IUseBI=4.
 Internal  Forces:  Max     0.024480325 RMS     0.004748502
 Search for a local minimum.
 Step number   1 out of a maximum of  142
 All quantities printed in internal units (Hartrees-Bohrs-Radians)
 Mixed Optimization -- RFO/linear search
 Second derivative matrix not updated -- first step.
 ITU=  0
     Eigenvalues ---    0.00874   0.00875   0.00875   0.01413   0.01512
     Eigenvalues ---    0.01643   0.01700   0.01776   0.01822   0.02116
     Eigenvalues ---    0.02116   0.02119   0.02119   0.02140   0.02140
     Eigenvalues ---    0.02143   0.02143   0.02150   0.02150   0.02162
     Eigenvalues ---    0.02163   0.16000   0.16000   0.16000   0.16000
     Eigenvalues ---    0.16000   0.16000   0.16000   0.16000   0.22000
     Eigenvalues ---    0.22000   0.22566   0.22605   0.24481   0.24515
     Eigenvalues ---    0.25000   0.25000   0.25000   0.25000   0.25000
     Eigenvalues ---    0.31894   0.32423   0.33254   0.33254   0.35217
     Eigenvalues ---    0.35218   0.35218   0.35219   0.35380   0.35380
     Eigenvalues ---    0.35384   0.35384   0.38797   0.41042   0.41990
     Eigenvalues ---    0.42028   0.44376   0.44844   0.45654   0.45658
     Eigenvalues ---    0.46365   0.46370   0.46694   0.46698   0.92600
     Eigenvalues ---    0.92612
 RFO step:  Lambda=-6.31434526D-03 EMin= 8.74200556D-03
 Linear search not attempted -- first point.
 Iteration  1 RMS(Cart)=  0.01161162 RMS(Int)=  0.00004975
 Iteration  2 RMS(Cart)=  0.00007850 RMS(Int)=  0.00000258
 Iteration  3 RMS(Cart)=  0.00000001 RMS(Int)=  0.00000258
 Variable       Old X    -DE/DX   Delta X   Delta X   Delta X     New X
                                 (Linear)    (Quad)   (Total)
    R1        2.81911  -0.01109   0.00000  -0.03273  -0.03273   2.78638
    R2        2.81914  -0.01110   0.00000  -0.03275  -0.03275   2.78639
    R3        2.31752   0.02448   0.00000   0.02625   0.02625   2.34378
    R4        2.66239  -0.00800   0.00000  -0.01817  -0.01817   2.64422
    R5        2.64500   0.00090   0.00000   0.00179   0.00179   2.64678
    R6        2.66220  -0.00793   0.00000  -0.01798  -0.01798   2.64422
    R7        2.64498   0.00092   0.00000   0.00185   0.00185   2.64684
    R8        2.81905  -0.01107   0.00000  -0.03268  -0.03268   2.78637
    R9        2.31757   0.02445   0.00000   0.02622   0.02622   2.34380
   R10        2.81901  -0.01105   0.00000  -0.03262  -0.03262   2.78638
   R11        2.64514   0.00082   0.00000   0.00163   0.00163   2.64677
   R12        2.64498   0.00092   0.00000   0.00185   0.00185   2.64683
   R13        2.63125   0.00246   0.00000   0.00531   0.00531   2.63656
   R14        2.05055   0.01249   0.00000   0.03468   0.03468   2.08523
   R15        2.63121   0.00247   0.00000   0.00534   0.00534   2.63655
   R16        2.05055   0.01249   0.00000   0.03467   0.03467   2.08523
   R17        2.63106   0.00255   0.00000   0.00552   0.00552   2.63658
   R18        2.05062   0.01247   0.00000   0.03463   0.03463   2.08526
   R19        2.63120   0.00246   0.00000   0.00533   0.00533   2.63653
   R20        2.05062   0.01247   0.00000   0.03462   0.03462   2.08524
   R21        2.64562  -0.00567   0.00000  -0.01197  -0.01197   2.63365
   R22        2.05322   0.00979   0.00000   0.02731   0.02731   2.08053
   R23        2.05324   0.00979   0.00000   0.02730   0.02730   2.08054
   R24        2.64560  -0.00565   0.00000  -0.01193  -0.01192   2.63368
   R25        2.05321   0.00979   0.00000   0.02732   0.02732   2.08053
   R26        2.05322   0.00979   0.00000   0.02731   0.02731   2.08053
    A1        2.05060  -0.00250   0.00000  -0.01002  -0.01003   2.04057
    A2        2.11630   0.00125   0.00000   0.00501   0.00501   2.12130
    A3        2.11629   0.00125   0.00000   0.00502   0.00502   2.12131
    A4        2.11625   0.00126   0.00000   0.00506   0.00506   2.12131
    A5        2.07722  -0.00143   0.00000  -0.00499  -0.00499   2.07223
    A6        2.08971   0.00017   0.00000  -0.00006  -0.00007   2.08964
    A7        2.11632   0.00124   0.00000   0.00498   0.00498   2.12130
    A8        2.07712  -0.00140   0.00000  -0.00489  -0.00489   2.07223
    A9        2.08974   0.00016   0.00000  -0.00009  -0.00009   2.08965
   A10        2.11622   0.00126   0.00000   0.00507   0.00507   2.12129
   A11        2.05069  -0.00252   0.00000  -0.01011  -0.01011   2.04058
   A12        2.11627   0.00126   0.00000   0.00504   0.00504   2.12131
   A13        2.11625   0.00125   0.00000   0.00505   0.00505   2.12131
   A14        2.08966   0.00018   0.00000  -0.00003  -0.00004   2.08963
   A15        2.07727  -0.00143   0.00000  -0.00502  -0.00502   2.07225
   A16        2.11626   0.00126   0.00000   0.00504   0.00504   2.12130
   A17        2.08967   0.00016   0.00000  -0.00006  -0.00006   2.08961
   A18        2.07725  -0.00142   0.00000  -0.00498  -0.00498   2.07228
   A19        2.09707   0.00055   0.00000   0.00234   0.00234   2.09941
   A20        2.06523   0.00149   0.00000   0.00943   0.00943   2.07466
   A21        2.12089  -0.00204   0.00000  -0.01177  -0.01177   2.10912
   A22        2.09711   0.00053   0.00000   0.00227   0.00227   2.09938
   A23        2.06520   0.00149   0.00000   0.00944   0.00944   2.07464
   A24        2.12088  -0.00202   0.00000  -0.01172  -0.01172   2.10916
   A25        2.09717   0.00051   0.00000   0.00223   0.00223   2.09941
   A26        2.06495   0.00153   0.00000   0.00963   0.00963   2.07458
   A27        2.12106  -0.00204   0.00000  -0.01186  -0.01186   2.10920
   A28        2.09714   0.00051   0.00000   0.00223   0.00223   2.09937
   A29        2.06501   0.00153   0.00000   0.00962   0.00962   2.07463
   A30        2.12104  -0.00204   0.00000  -0.01186  -0.01186   2.10918
   A31        2.09639  -0.00070   0.00000  -0.00224  -0.00224   2.09415
   A32        2.09249   0.00049   0.00000   0.00197   0.00197   2.09446
   A33        2.09431   0.00021   0.00000   0.00027   0.00026   2.09457
   A34        2.09636  -0.00070   0.00000  -0.00221  -0.00221   2.09415
   A35        2.09256   0.00049   0.00000   0.00194   0.00194   2.09450
   A36        2.09427   0.00021   0.00000   0.00027   0.00026   2.09453
   A37        2.09634  -0.00069   0.00000  -0.00219  -0.00219   2.09415
   A38        2.09259   0.00048   0.00000   0.00190   0.00189   2.09449
   A39        2.09425   0.00021   0.00000   0.00030   0.00029   2.09455
   A40        2.09638  -0.00069   0.00000  -0.00219  -0.00219   2.09419
   A41        2.09247   0.00049   0.00000   0.00197   0.00196   2.09444
   A42        2.09434   0.00020   0.00000   0.00022   0.00022   2.09456
    D1       -0.00102   0.00005   0.00000   0.00242   0.00241   0.00139
    D2        3.14123   0.00003   0.00000   0.00144   0.00144  -3.14052
    D3       -3.14029  -0.00005   0.00000  -0.00320  -0.00320   3.13970
    D4        0.00196  -0.00007   0.00000  -0.00417  -0.00417  -0.00221
    D5        0.00101  -0.00005   0.00000  -0.00241  -0.00241  -0.00139
    D6       -3.14084  -0.00003   0.00000  -0.00176  -0.00175   3.14059
    D7        3.14028   0.00005   0.00000   0.00320   0.00320  -3.13970
    D8       -0.00157   0.00006   0.00000   0.00386   0.00386   0.00229
    D9        0.00075  -0.00003   0.00000  -0.00161  -0.00162  -0.00087
   D10       -3.14106  -0.00002   0.00000  -0.00106  -0.00107   3.14106
   D11       -3.14151  -0.00001   0.00000  -0.00063  -0.00064   3.14104
   D12       -0.00013  -0.00000   0.00000  -0.00008  -0.00008  -0.00021
   D13        3.14098   0.00002   0.00000   0.00107   0.00107  -3.14113
   D14       -0.00008   0.00000   0.00000   0.00034   0.00034   0.00026
   D15        0.00004   0.00000   0.00000   0.00011   0.00011   0.00015
   D16       -3.14102  -0.00001   0.00000  -0.00062  -0.00062   3.14154
   D17       -0.00074   0.00003   0.00000   0.00160   0.00161   0.00087
   D18        3.14145   0.00002   0.00000   0.00076   0.00076  -3.14097
   D19        3.14112   0.00002   0.00000   0.00095   0.00095  -3.14112
   D20        0.00012   0.00000   0.00000   0.00010   0.00010   0.00023
   D21       -3.14150  -0.00001   0.00000  -0.00065  -0.00065   3.14104
   D22       -0.00033   0.00000   0.00000  -0.00006  -0.00005  -0.00039
   D23       -0.00017  -0.00000   0.00000  -0.00000  -0.00000  -0.00017
   D24        3.14100   0.00001   0.00000   0.00059   0.00059   3.14159
   D25        3.14086   0.00002   0.00000   0.00149   0.00149  -3.14083
   D26       -0.00133   0.00004   0.00000   0.00233   0.00233   0.00101
   D27        0.00042  -0.00002   0.00000  -0.00070  -0.00069  -0.00027
   D28        3.14142  -0.00000   0.00000   0.00014   0.00015   3.14157
   D29       -0.00042   0.00002   0.00000   0.00070   0.00070   0.00027
   D30        3.14138   0.00001   0.00000   0.00015   0.00015   3.14153
   D31       -3.14087  -0.00002   0.00000  -0.00149  -0.00149   3.14083
   D32        0.00094  -0.00003   0.00000  -0.00204  -0.00204  -0.00110
   D33       -0.00004  -0.00000   0.00000  -0.00011  -0.00012  -0.00015
   D34        3.14102   0.00001   0.00000   0.00059   0.00060  -3.14157
   D35       -3.14105  -0.00002   0.00000  -0.00094  -0.00094   3.14120
   D36        0.00001  -0.00000   0.00000  -0.00024  -0.00023  -0.00022
   D37        0.00009   0.00000   0.00000   0.00007   0.00007   0.00016
   D38       -3.14099  -0.00001   0.00000  -0.00059  -0.00059  -3.14158
   D39        3.14147   0.00001   0.00000   0.00062   0.00062  -3.14110
   D40        0.00039  -0.00000   0.00000  -0.00004  -0.00005   0.00034
   D41        0.00009  -0.00000   0.00000  -0.00013  -0.00013  -0.00004
   D42       -3.14147  -0.00001   0.00000  -0.00019  -0.00019   3.14152
   D43        3.14113   0.00002   0.00000   0.00063   0.00063  -3.14143
   D44       -0.00043   0.00002   0.00000   0.00057   0.00056   0.00013
   D45       -0.00000   0.00000   0.00000   0.00003   0.00003   0.00002
   D46        3.14141   0.00001   0.00000   0.00025   0.00025  -3.14153
   D47       -3.14104  -0.00002   0.00000  -0.00071  -0.00071   3.14144
   D48        0.00037  -0.00001   0.00000  -0.00049  -0.00048  -0.00011
   D49        0.00004  -0.00000   0.00000  -0.00009  -0.00009  -0.00005
   D50       -3.14134  -0.00001   0.00000  -0.00034  -0.00034   3.14151
   D51        3.14110   0.00002   0.00000   0.00059   0.00059  -3.14149
   D52       -0.00028   0.00001   0.00000   0.00035   0.00034   0.00007
   D53        0.00012  -0.00000   0.00000  -0.00009  -0.00009   0.00004
   D54        3.14130   0.00001   0.00000   0.00037   0.00037  -3.14151
   D55       -3.14103  -0.00002   0.00000  -0.00070  -0.00070   3.14146
   D56        0.00014  -0.00001   0.00000  -0.00024  -0.00024  -0.00009
   D57       -0.00013   0.00000   0.00000   0.00012   0.00012  -0.00001
   D58        3.14125   0.00001   0.00000   0.00037   0.00037  -3.14157
   D59        3.14143   0.00000   0.00000   0.00019   0.00018  -3.14157
   D60       -0.00037   0.00001   0.00000   0.00043   0.00043   0.00006
   D61       -0.00004   0.00000   0.00000   0.00008   0.00008   0.00004
   D62       -3.14145  -0.00000   0.00000  -0.00015  -0.00015   3.14158
   D63       -3.14121  -0.00001   0.00000  -0.00039  -0.00038   3.14159
   D64        0.00056  -0.00002   0.00000  -0.00061  -0.00061  -0.00005
         Item               Value     Threshold  Converged?
 Maximum Force            0.024480     0.000450     NO 
 RMS     Force            0.004749     0.000300     NO 
 Maximum Displacement     0.036410     0.001800     NO 
 RMS     Displacement     0.011577     0.001200     NO 
 Predicted change in Energy=-3.207956D-03
 GradGradGradGradGradGradGradGradGradGradGradGradGradGradGradGradGradGrad

                          Input orientation:                          
 ---------------------------------------------------------------------
 Center     Atomic      Atomic             Coordinates (Angstroms)
 Number     Number       Type             X           Y           Z
 ---------------------------------------------------------------------
      1          6           0       -0.671229   -1.259120    0.102590
      2          6           0       -2.070582   -0.810090   -0.016979
      3          6           0        0.368442   -0.213596    0.092555
      4          8           0       -0.382267   -2.460447    0.210246
      5          6           0       -1.357016    1.590861   -0.146952
      6          6           0        0.042289    1.141890   -0.026653
      7          8           0       -1.646046    2.792289   -0.253415
      8          6           0       -2.396733    0.545396   -0.136186
      9          6           0       -3.089067   -1.771533   -0.010321
     10          6           0        1.060742    2.103359   -0.032686
     11          6           0       -3.739015    0.929510   -0.248121
     12          6           0        1.710671   -0.597721    0.205138
     13          6           0       -4.424373   -1.382851   -0.122081
     14          6           0       -4.749240   -0.032796   -0.240946
     15          6           0        2.720845    0.364602    0.198593
     16          6           0        2.395985    1.714671    0.079700
     17          1           0       -2.815847   -2.836429    0.084342
     18          1           0        0.787519    3.168250   -0.127386
     19          1           0       -3.980103    2.002273   -0.341411
     20          1           0        1.951768   -1.670476    0.298409
     21          1           0       -5.221224   -2.142542   -0.116397
     22          1           0       -5.802828    0.274318   -0.329134
     23          1           0        3.774389    0.057503    0.287296
     24          1           0        3.192820    2.474383    0.074500
 ---------------------------------------------------------------------
                    Distance matrix (angstroms):
                    1          2          3          4          5
     1  C    0.000000
     2  C    1.474487   0.000000
     3  C    1.474496   2.513294   0.000000
     4  O    1.240273   2.371859   2.371868   0.000000
     5  C    2.941932   2.508114   2.508114   4.182203   0.000000
     6  C    2.508119   2.876551   1.399260   3.634997   1.474484
     7  O    4.182214   3.635006   3.634997   5.422486   1.240283
     8  C    2.508117   1.399260   2.876558   3.634994   1.474491
     9  C    2.474117   1.400617   3.793695   2.801788   3.784754
    10  C    3.784744   4.277105   2.421414   4.792663   2.474119
    11  C    3.784759   2.421425   4.277143   4.792667   2.474174
    12  C    2.474149   3.793721   1.400645   2.801815   3.784781
    13  C    3.761898   2.424754   4.938046   4.196459   4.272266
    14  C    4.272243   2.798134   5.131723   5.016723   3.761951
    15  C    3.761895   4.938031   2.424738   4.196468   4.272243
    16  C    4.272207   5.131665   2.798090   5.016706   3.761876
    17  H    2.662259   2.161419   4.125411   2.465669   4.667181
    18  H    4.667166   4.899809   3.414803   5.758874   2.662249
    19  H    4.667169   3.414808   4.899821   5.758873   2.662266
    20  H    2.662268   4.125413   2.161434   2.465674   4.667196
    21  H    4.640134   3.422259   5.916829   4.860377   5.373205
    22  H    5.373185   3.899107   6.204874   6.095273   4.640228
    23  H    4.640165   5.916839   3.422264   4.860432   5.373181
    24  H    5.373147   6.204800   3.899060   6.095263   4.640115
                    6          7          8          9         10
     6  C    0.000000
     7  O    2.371859   0.000000
     8  C    2.513291   2.371877   0.000000
     9  C    4.277113   4.792690   2.421432   0.000000
    10  C    1.400609   2.801794   3.793691   5.677694   0.000000
    11  C    3.793733   2.801872   1.400640   2.788300   4.945907
    12  C    2.421461   4.792702   4.277147   4.945882   2.788333
    13  C    5.131715   5.016785   2.798153   1.395208   6.499856
    14  C    4.938073   4.196554   2.424783   2.415071   6.193740
    15  C    2.798137   5.016743   5.131701   6.193690   2.415099
    16  C    2.424721   4.196456   4.938011   6.499809   1.395200
    17  H    4.899825   5.758904   3.414825   1.103455   6.280378
    18  H    2.161399   2.465658   4.125397   6.280373   1.103454
    19  H    4.125406   2.465703   2.161404   3.891680   5.051302
    20  H    3.414847   5.758910   4.899838   5.051291   3.891707
    21  H    6.204847   6.095344   3.899122   2.166793   7.582729
    22  H    5.916889   4.860529   3.422309   3.413451   7.109280
    23  H    3.899106   6.095288   6.204846   7.109218   3.413472
    24  H    3.422224   4.860373   5.916796   7.582685   2.166773
                   11         12         13         14         15
    11  C    0.000000
    12  C    5.677760   0.000000
    13  C    2.415080   6.193728   0.000000
    14  C    1.395220   6.499891   1.393670   0.000000
    15  C    6.499881   1.395192   7.362782   7.493549   0.000000
    16  C    6.193719   2.415066   7.493506   7.362791   1.393683
    17  H    3.891666   5.051314   2.177810   3.421137   6.396453
    18  H    5.051341   3.891699   6.919275   6.396506   3.421176
    19  H    1.103470   6.280414   3.421190   2.177881   6.919268
    20  H    6.280416   1.103463   6.396461   6.919278   2.177840
    21  H    3.413473   7.109221   1.100970   2.165482   8.334353
    22  H    2.166833   7.582781   2.165460   1.100974   8.540471
    23  H    7.582763   2.166794   8.334381   8.540459   1.100969
    24  H    7.109223   3.413452   8.540406   8.334373   2.165487
                   16         17         18         19         20
    16  C    0.000000
    17  H    6.919228   0.000000
    18  H    2.177829   7.006086   0.000000
    19  H    6.396448   4.994977   4.912793   0.000000
    20  H    3.421167   4.912781   4.995002   7.006108   0.000000
    21  H    8.540399   2.511497   8.019328   4.332494   7.200467
    22  H    8.334404   4.332409   7.200571   2.511633   8.019338
    23  H    2.165479   7.200503   4.332447   8.019323   2.511570
    24  H    1.100971   8.019283   2.511510   7.200465   4.332460
                   21         22         23         24
    21  H    0.000000
    22  H    2.494942   0.000000
    23  H    9.269532   9.599483   0.000000
    24  H    9.599405   9.269568   2.494958   0.000000
 Stoichiometry    C14H8O2
 Framework group  C1[X(C14H8O2)]
 Deg. of freedom    66
 Full point group                 C1      NOp   1
 Largest Abelian subgroup         C1      NOp   1
 Largest concise Abelian subgroup C1      NOp   1
                         Standard orientation:                         
 ---------------------------------------------------------------------
 Center     Atomic      Atomic             Coordinates (Angstroms)
 Number     Number       Type             X           Y           Z
 ---------------------------------------------------------------------
      1          6           0       -0.000002    1.470954    0.001373
      2          6           0       -1.256641    0.699611    0.000381
      3          6           0        1.256652    0.699620    0.000316
      4          8           0       -0.000010    2.711226   -0.000453
      5          6           0        0.000013   -1.470977   -0.000141
      6          6           0        1.256652   -0.699640    0.000117
      7          8           0        0.000030   -2.711260    0.000487
      8          6           0       -1.256639   -0.699648    0.000182
      9          6           0       -2.472927    1.394146    0.000014
     10          6           0        2.472939   -1.394154   -0.000141
     11          6           0       -2.472968   -1.394153   -0.000128
     12          6           0        2.472955    1.394179   -0.000022
     13          6           0       -3.681393    0.696856   -0.000366
     14          6           0       -3.681420   -0.696814   -0.000432
     15          6           0        3.681389    0.696863   -0.000350
     16          6           0        3.681371   -0.696820   -0.000388
     17          1           0       -2.456396    2.497478    0.000225
     18          1           0        2.456404   -2.497484   -0.000315
     19          1           0       -2.456389   -2.497499   -0.000271
     20          1           0        2.456385    2.497518    0.000140
     21          1           0       -4.634753    1.247528   -0.000584
     22          1           0       -4.634826   -1.247413   -0.000757
     23          1           0        4.634778    1.247483   -0.000541
     24          1           0        4.634742   -1.247475   -0.000655
 ---------------------------------------------------------------------
 Rotational constants (GHZ):      1.1020035      0.4469253      0.3179702
 Standard basis: VSTO-6G (5D, 7F)
 There are    72 symmetry adapted cartesian basis functions of A   symmetry.
 There are    72 symmetry adapted basis functions of A   symmetry.
    72 basis functions,   432 primitive gaussians,    72 cartesian basis functions
    38 alpha electrons       38 beta electrons
       nuclear repulsion energy       525.3178754336 Hartrees.
 Integral buffers will be    131072 words long.
 Regular integral format.
 Two-electron integral symmetry is turned off.
 Do NDO integrals.
 One-electron integrals computed using PRISM.
 NBasis=    72 RedAO= F EigKep=  0.00D+00  NBF=    72
 NBsUse=    72 1.00D-04 EigRej=  0.00D+00 NBFU=    72
 Initial guess from the checkpoint file:  "anthraquinone-opt.chk"
 B after Tr=     0.000000    0.000000    0.000000
         Rot=    1.000000   -0.000000   -0.000000    0.000001 Ang=  -0.00 deg.
 Overlap will be assumed to be unity.
 Keep J ints in memory in canonical form, NReq=925171.
 Requested convergence on RMS density matrix=1.00D-08 within 128 cycles.
 Requested convergence on MAX density matrix=1.00D-06.
 Requested convergence on             energy=1.00D-06.
 No special actions if energy rises.
 SCF Done:  E(RAM1) = -0.982616060458E-02 A.U. after   12 cycles
            NFock= 11  Conv=0.73D-08     -V/T= 0.9998
 Calling FoFJK, ICntrl=      2127 FMM=F ISym2X=0 I1Cent= 0 IOpClX= 0 NMat=1 NMatS=1 NMatT=0.
 ***** Axes restored to original set *****
 -------------------------------------------------------------------
 Center     Atomic                   Forces (Hartrees/Bohr)
 Number     Number              X              Y              Z
 -------------------------------------------------------------------
      1        6           0.000888395   -0.003741664    0.000770353
      2        6          -0.002101678   -0.004991911    0.000087023
      3        6           0.004162949   -0.003474335    0.000364399
      4        8          -0.000112201    0.000500146   -0.000199858
      5        6          -0.000912817    0.003783129   -0.000500737
      6        6           0.002103035    0.004966234   -0.000176279
      7        8           0.000121467   -0.000527628    0.000098045
      8        6          -0.004167803    0.003457790   -0.000452946
      9        6          -0.001124256   -0.000187504   -0.000081723
     10        6           0.001127478    0.000190204    0.000081670
     11        6          -0.001067562   -0.000353915   -0.000019883
     12        6           0.001049057    0.000352061    0.000019995
     13        6           0.000555734   -0.000669739    0.000093930
     14        6           0.000196776    0.000864308   -0.000056501
     15        6          -0.000182734   -0.000834771    0.000058617
     16        6          -0.000541424    0.000669458   -0.000086562
     17        1          -0.000535074    0.000281868   -0.000048415
     18        1           0.000538575   -0.000280120    0.000049822
     19        1          -0.000352905   -0.000510422    0.000012546
     20        1           0.000348622    0.000504823   -0.000011169
     21        1           0.000471136   -0.000061604    0.000036330
     22        1           0.000395779    0.000276767    0.000001055
     23        1          -0.000390870   -0.000273890   -0.000002339
     24        1          -0.000469679    0.000060714   -0.000037374
 -------------------------------------------------------------------
 Cartesian Forces:  Max     0.004991911 RMS     0.001488258

 GradGradGradGradGradGradGradGradGradGradGradGradGradGradGradGradGradGrad
 Berny optimization.
 Using GEDIIS/GDIIS optimizer.
 FormGI is forming the generalized inverse of G from B-inverse, IUseBI=4.
 Internal  Forces:  Max     0.005781650 RMS     0.001098110
 Search for a local minimum.
 Step number   2 out of a maximum of  142
 All quantities printed in internal units (Hartrees-Bohrs-Radians)
 Mixed Optimization -- RFO/linear search
 Update second derivatives using D2CorX and points    1    2
 DE= -2.69D-03 DEPred=-3.21D-03 R= 8.40D-01
 TightC=F SS=  1.41D+00  RLast= 1.27D-01 DXNew= 5.0454D-01 3.8051D-01
 Trust test= 8.40D-01 RLast= 1.27D-01 DXMaxT set to 3.81D-01
 ITU=  1  0
 Use linear search instead of GDIIS.
     Eigenvalues ---    0.00874   0.00875   0.00875   0.01416   0.01511
     Eigenvalues ---    0.01643   0.01700   0.01778   0.01823   0.02116
     Eigenvalues ---    0.02116   0.02119   0.02119   0.02140   0.02140
     Eigenvalues ---    0.02142   0.02143   0.02149   0.02150   0.02162
     Eigenvalues ---    0.02163   0.15744   0.16000   0.16000   0.16000
     Eigenvalues ---    0.16000   0.16000   0.16000   0.16022   0.22000
     Eigenvalues ---    0.22000   0.22533   0.22607   0.24484   0.24517
     Eigenvalues ---    0.25000   0.25000   0.25000   0.25000   0.25118
     Eigenvalues ---    0.31889   0.32386   0.32699   0.33254   0.35217
     Eigenvalues ---    0.35218   0.35219   0.35282   0.35380   0.35382
     Eigenvalues ---    0.35384   0.36704   0.38784   0.41959   0.41996
     Eigenvalues ---    0.42665   0.44370   0.45607   0.45656   0.46363
     Eigenvalues ---    0.46368   0.46547   0.46697   0.50607   0.91412
     Eigenvalues ---    0.92606
 RFO step:  Lambda=-2.32104290D-04 EMin= 8.74416863D-03
 Quartic linear search produced a step of -0.12780.
 Iteration  1 RMS(Cart)=  0.00590172 RMS(Int)=  0.00000691
 Iteration  2 RMS(Cart)=  0.00000719 RMS(Int)=  0.00000285
 Iteration  3 RMS(Cart)=  0.00000000 RMS(Int)=  0.00000285
 Variable       Old X    -DE/DX   Delta X   Delta X   Delta X     New X
                                 (Linear)    (Quad)   (Total)
    R1        2.78638   0.00428   0.00418   0.00576   0.00995   2.79633
    R2        2.78639   0.00427   0.00419   0.00574   0.00992   2.79632
    R3        2.34378  -0.00053  -0.00336   0.00385   0.00049   2.34427
    R4        2.64422   0.00578   0.00232   0.00879   0.01111   2.65533
    R5        2.64678   0.00054  -0.00023   0.00152   0.00129   2.64807
    R6        2.64422   0.00578   0.00230   0.00881   0.01111   2.65533
    R7        2.64684   0.00051  -0.00024   0.00148   0.00125   2.64808
    R8        2.78637   0.00429   0.00418   0.00578   0.00995   2.79633
    R9        2.34380  -0.00055  -0.00335   0.00382   0.00047   2.34427
   R10        2.78638   0.00427   0.00417   0.00575   0.00992   2.79630
   R11        2.64677   0.00056  -0.00021   0.00153   0.00132   2.64809
   R12        2.64683   0.00051  -0.00024   0.00148   0.00124   2.64807
   R13        2.63656  -0.00083  -0.00068  -0.00085  -0.00153   2.63503
   R14        2.08523  -0.00041  -0.00443   0.00478   0.00034   2.08557
   R15        2.63655  -0.00083  -0.00068  -0.00084  -0.00152   2.63502
   R16        2.08523  -0.00041  -0.00443   0.00478   0.00035   2.08557
   R17        2.63658  -0.00085  -0.00071  -0.00086  -0.00157   2.63502
   R18        2.08526  -0.00042  -0.00443   0.00474   0.00031   2.08557
   R19        2.63653  -0.00082  -0.00068  -0.00083  -0.00151   2.63502
   R20        2.08524  -0.00042  -0.00442   0.00475   0.00032   2.08557
   R21        2.63365   0.00073   0.00153  -0.00099   0.00054   2.63419
   R22        2.08053  -0.00030  -0.00349   0.00382   0.00033   2.08086
   R23        2.08054  -0.00030  -0.00349   0.00381   0.00032   2.08086
   R24        2.63368   0.00072   0.00152  -0.00101   0.00051   2.63419
   R25        2.08053  -0.00030  -0.00349   0.00382   0.00033   2.08086
   R26        2.08053  -0.00030  -0.00349   0.00382   0.00033   2.08086
    A1        2.04057   0.00041   0.00128   0.00010   0.00137   2.04194
    A2        2.12130  -0.00020  -0.00064  -0.00003  -0.00069   2.12061
    A3        2.12131  -0.00020  -0.00064  -0.00004  -0.00070   2.12060
    A4        2.12131  -0.00020  -0.00065  -0.00005  -0.00069   2.12062
    A5        2.07223   0.00100   0.00064   0.00193   0.00256   2.07480
    A6        2.08964  -0.00080   0.00001  -0.00188  -0.00187   2.08777
    A7        2.12130  -0.00020  -0.00064  -0.00005  -0.00068   2.12062
    A8        2.07223   0.00100   0.00062   0.00194   0.00256   2.07479
    A9        2.08965  -0.00080   0.00001  -0.00189  -0.00188   2.08777
   A10        2.12129  -0.00020  -0.00065  -0.00003  -0.00067   2.12062
   A11        2.04058   0.00041   0.00129   0.00009   0.00138   2.04195
   A12        2.12131  -0.00021  -0.00064  -0.00006  -0.00070   2.12061
   A13        2.12131  -0.00020  -0.00065  -0.00005  -0.00069   2.12061
   A14        2.08963  -0.00079   0.00000  -0.00187  -0.00186   2.08777
   A15        2.07225   0.00100   0.00064   0.00191   0.00255   2.07480
   A16        2.12130  -0.00020  -0.00064  -0.00004  -0.00068   2.12062
   A17        2.08961  -0.00078   0.00001  -0.00184  -0.00184   2.08777
   A18        2.07228   0.00099   0.00064   0.00189   0.00252   2.07480
   A19        2.09941   0.00018  -0.00030   0.00109   0.00079   2.10020
   A20        2.07466   0.00038  -0.00121   0.00379   0.00259   2.07725
   A21        2.10912  -0.00056   0.00150  -0.00488  -0.00338   2.10574
   A22        2.09938   0.00019  -0.00029   0.00111   0.00081   2.10020
   A23        2.07464   0.00038  -0.00121   0.00380   0.00260   2.07724
   A24        2.10916  -0.00056   0.00150  -0.00491  -0.00341   2.10575
   A25        2.09941   0.00018  -0.00029   0.00108   0.00079   2.10020
   A26        2.07458   0.00038  -0.00123   0.00387   0.00264   2.07722
   A27        2.10920  -0.00057   0.00152  -0.00495  -0.00343   2.10576
   A28        2.09937   0.00019  -0.00029   0.00111   0.00083   2.10020
   A29        2.07463   0.00037  -0.00123   0.00382   0.00259   2.07723
   A30        2.10918  -0.00057   0.00152  -0.00493  -0.00342   2.10576
   A31        2.09415   0.00061   0.00029   0.00078   0.00106   2.09521
   A32        2.09446  -0.00069  -0.00025  -0.00235  -0.00260   2.09186
   A33        2.09457   0.00008  -0.00003   0.00157   0.00154   2.09611
   A34        2.09415   0.00061   0.00028   0.00078   0.00106   2.09522
   A35        2.09450  -0.00070  -0.00025  -0.00239  -0.00263   2.09187
   A36        2.09453   0.00009  -0.00003   0.00160   0.00157   2.09610
   A37        2.09415   0.00061   0.00028   0.00079   0.00107   2.09522
   A38        2.09449  -0.00069  -0.00024  -0.00237  -0.00261   2.09187
   A39        2.09455   0.00008  -0.00004   0.00158   0.00155   2.09609
   A40        2.09419   0.00060   0.00028   0.00075   0.00103   2.09522
   A41        2.09444  -0.00068  -0.00025  -0.00232  -0.00257   2.09186
   A42        2.09456   0.00009  -0.00003   0.00157   0.00154   2.09611
    D1        0.00139  -0.00006  -0.00031  -0.00411  -0.00442  -0.00303
    D2       -3.14052  -0.00005  -0.00018  -0.00329  -0.00347   3.13919
    D3        3.13970   0.00007   0.00041   0.00621   0.00662  -3.13687
    D4       -0.00221   0.00008   0.00053   0.00703   0.00756   0.00535
    D5       -0.00139   0.00006   0.00031   0.00411   0.00442   0.00302
    D6        3.14059   0.00005   0.00022   0.00315   0.00337  -3.13922
    D7       -3.13970  -0.00007  -0.00041  -0.00621  -0.00662   3.13687
    D8        0.00229  -0.00009  -0.00049  -0.00717  -0.00766  -0.00538
    D9       -0.00087   0.00004   0.00021   0.00197   0.00218   0.00131
   D10        3.14106   0.00003   0.00014   0.00119   0.00133  -3.14079
   D11        3.14104   0.00002   0.00008   0.00115   0.00123  -3.14092
   D12       -0.00021   0.00001   0.00001   0.00036   0.00038   0.00017
   D13       -3.14113  -0.00002  -0.00014  -0.00108  -0.00122   3.14083
   D14        0.00026  -0.00001  -0.00004  -0.00067  -0.00071  -0.00045
   D15        0.00015  -0.00001  -0.00001  -0.00028  -0.00029  -0.00014
   D16        3.14154   0.00000   0.00008   0.00014   0.00022  -3.14142
   D17        0.00087  -0.00004  -0.00021  -0.00197  -0.00217  -0.00130
   D18       -3.14097  -0.00003  -0.00010  -0.00134  -0.00144   3.14078
   D19       -3.14112  -0.00002  -0.00012  -0.00100  -0.00113   3.14094
   D20        0.00023  -0.00001  -0.00001  -0.00037  -0.00039  -0.00016
   D21        3.14104   0.00002   0.00008   0.00123   0.00132  -3.14083
   D22       -0.00039   0.00001   0.00001   0.00082   0.00082   0.00044
   D23       -0.00017   0.00001   0.00000   0.00029   0.00029   0.00012
   D24        3.14159  -0.00000  -0.00008  -0.00012  -0.00020   3.14139
   D25       -3.14083  -0.00002  -0.00019  -0.00170  -0.00189   3.14046
   D26        0.00101  -0.00003  -0.00030  -0.00233  -0.00262  -0.00162
   D27       -0.00027   0.00001   0.00009  -0.00034  -0.00025  -0.00053
   D28        3.14157  -0.00000  -0.00002  -0.00096  -0.00098   3.14058
   D29        0.00027  -0.00001  -0.00009   0.00034   0.00025   0.00052
   D30        3.14153   0.00000  -0.00002   0.00111   0.00110  -3.14056
   D31        3.14083   0.00002   0.00019   0.00170   0.00189  -3.14046
   D32       -0.00110   0.00003   0.00026   0.00248   0.00274   0.00164
   D33       -0.00015   0.00001   0.00001   0.00026   0.00027   0.00012
   D34       -3.14157  -0.00000  -0.00008  -0.00007  -0.00014   3.14147
   D35        3.14120   0.00002   0.00012   0.00087   0.00099  -3.14100
   D36       -0.00022   0.00001   0.00003   0.00054   0.00057   0.00035
   D37        0.00016  -0.00001  -0.00001  -0.00025  -0.00026  -0.00010
   D38       -3.14158   0.00000   0.00008   0.00006   0.00014  -3.14144
   D39       -3.14110  -0.00002  -0.00008  -0.00101  -0.00109   3.14100
   D40        0.00034  -0.00001   0.00001  -0.00070  -0.00069  -0.00034
   D41       -0.00004   0.00000   0.00002   0.00007   0.00009   0.00005
   D42        3.14152   0.00000   0.00002   0.00018   0.00020  -3.14146
   D43       -3.14143  -0.00001  -0.00008  -0.00035  -0.00043   3.14133
   D44        0.00013  -0.00001  -0.00007  -0.00025  -0.00032  -0.00019
   D45        0.00002  -0.00000  -0.00000  -0.00005  -0.00006  -0.00003
   D46       -3.14153  -0.00000  -0.00003  -0.00015  -0.00018   3.14148
   D47        3.14144   0.00001   0.00009   0.00028   0.00037  -3.14138
   D48       -0.00011   0.00001   0.00006   0.00018   0.00024   0.00013
   D49       -0.00005   0.00000   0.00001   0.00005   0.00006   0.00001
   D50        3.14151   0.00000   0.00004   0.00012   0.00017  -3.14151
   D51       -3.14149  -0.00001  -0.00008  -0.00028  -0.00035   3.14134
   D52        0.00007  -0.00001  -0.00004  -0.00020  -0.00024  -0.00017
   D53        0.00004  -0.00000   0.00001  -0.00009  -0.00008  -0.00004
   D54       -3.14151  -0.00000  -0.00005  -0.00013  -0.00018   3.14149
   D55        3.14146   0.00001   0.00009   0.00033   0.00042  -3.14131
   D56       -0.00009   0.00001   0.00003   0.00029   0.00032   0.00023
   D57       -0.00001  -0.00000  -0.00002   0.00004   0.00003   0.00002
   D58       -3.14157  -0.00000  -0.00005  -0.00003  -0.00008   3.14154
   D59       -3.14157  -0.00000  -0.00002  -0.00006  -0.00009   3.14153
   D60        0.00006  -0.00000  -0.00006  -0.00014  -0.00020  -0.00014
   D61        0.00004  -0.00000  -0.00001  -0.00003  -0.00004  -0.00001
   D62        3.14158   0.00000   0.00002   0.00007   0.00009  -3.14151
   D63        3.14159   0.00000   0.00005   0.00001   0.00006  -3.14154
   D64       -0.00005   0.00000   0.00008   0.00011   0.00019   0.00014
         Item               Value     Threshold  Converged?
 Maximum Force            0.005782     0.000450     NO 
 RMS     Force            0.001098     0.000300     NO 
 Maximum Displacement     0.022159     0.001800     NO 
 RMS     Displacement     0.005899     0.001200     NO 
 Predicted change in Energy=-1.751562D-04
 GradGradGradGradGradGradGradGradGradGradGradGradGradGradGradGradGradGrad

                          Input orientation:                          
 ---------------------------------------------------------------------
 Center     Atomic      Atomic             Coordinates (Angstroms)
 Number     Number       Type             X           Y           Z
 ---------------------------------------------------------------------
      1          6           0       -0.670393   -1.263464    0.107739
      2          6           0       -2.074867   -0.814031   -0.015262
      3          6           0        0.373886   -0.215150    0.094629
      4          8           0       -0.380940   -2.465519    0.208766
      5          6           0       -1.358239    1.595601   -0.146110
      6          6           0        0.046383    1.146003   -0.025440
      7          8           0       -1.647458    2.797387   -0.250919
      8          6           0       -2.402372    0.547125   -0.135327
      9          6           0       -3.095548   -1.774150   -0.010284
     10          6           0        1.067202    2.105974   -0.032497
     11          6           0       -3.745918    0.928849   -0.248508
     12          6           0        1.717565   -0.597031    0.205742
     13          6           0       -4.429561   -1.384355   -0.123478
     14          6           0       -4.754461   -0.034027   -0.242475
     15          6           0        2.726236    0.365699    0.197684
     16          6           0        2.401337    1.716028    0.078672
     17          1           0       -2.827074   -2.840413    0.084693
     18          1           0        0.798716    3.172238   -0.127414
     19          1           0       -3.991829    2.000632   -0.342436
     20          1           0        1.963473   -1.668807    0.299736
     21          1           0       -5.225327   -2.145437   -0.118560
     22          1           0       -5.807637    0.274720   -0.331966
     23          1           0        3.779515    0.056842    0.285574
     24          1           0        3.197211    2.476988    0.072142
 ---------------------------------------------------------------------
                    Distance matrix (angstroms):
                    1          2          3          4          5
     1  C    0.000000
     2  C    1.479752   0.000000
     3  C    1.479747   2.523317   0.000000
     4  O    1.240534   2.376339   2.376330   0.000000
     5  C    2.951580   2.517340   2.517346   4.192104   0.000000
     6  C    2.517347   2.888173   1.405138   3.644248   1.479751
     7  O    4.192112   3.644250   3.644258   5.432638   1.240533
     8  C    2.517353   1.405141   2.888175   3.644257   1.479740
     9  C    2.481150   1.401300   3.805057   2.809817   3.793667
    10  C    3.793681   4.289444   2.425792   4.801444   2.481160
    11  C    3.793679   2.425788   4.289436   4.801448   2.481139
    12  C    2.481145   3.805059   1.401304   2.809800   3.793680
    13  C    3.768211   2.425193   4.948506   4.203645   4.279447
    14  C    4.279459   2.800045   5.142605   5.024286   3.768195
    15  C    3.768203   4.948505   2.425193   4.203625   4.279462
    16  C    4.279456   5.142609   2.800047   5.024273   3.768215
[...]
     17          1           0       -2.825865   -2.838508    0.083953
     18          1           0        0.797525    3.170318   -0.126889
     19          1           0       -3.989965    1.999467   -0.341748
     20          1           0        1.961621   -1.667659    0.298815
     21          1           0       -5.223081   -2.145781   -0.116944
     22          1           0       -5.805882    0.276337   -0.330097
     23          1           0        3.777548    0.055457    0.287008
     24          1           0        3.194750    2.477576    0.073854
 ---------------------------------------------------------------------
                    Distance matrix (angstroms):
                    1          2          3          4          5
     1  C    0.000000
     2  C    1.478225   0.000000
     3  C    1.478225   2.522013   0.000000
     4  O    1.239598   2.373632   2.373632   0.000000
     5  C    2.947258   2.514880   2.514881   4.186855   0.000000
     6  C    2.514878   2.886730   1.404514   3.640831   1.478227
     7  O    4.186855   3.640833   3.640835   5.426452   1.239597
     8  C    2.514877   1.404513   2.886730   3.640831   1.478227
     9  C    2.479099   1.399827   3.802335   2.807011   3.790039
    10  C    3.790036   4.286519   2.424049   4.796980   2.479100
    11  C    3.790037   2.424049   4.286520   4.796980   2.479101
    12  C    2.479100   3.802335   1.399828   2.807013   3.790040
    13  C    3.767068   2.425086   4.947096   4.201605   4.277579
    14  C    4.277577   2.799672   5.141098   5.021452   3.767071
    15  C    3.767069   4.947096   2.425086   4.201607   4.277579
    16  C    4.277576   5.141097   2.799672   5.021453   3.767070
    17  H    2.670541   2.162186   4.137244   2.476077   4.674515
    18  H    4.674512   4.912358   3.418993   5.764713   2.670541
    19  H    4.674515   3.418995   4.912363   5.764715   2.670546
    20  H    2.670546   4.137249   2.162189   2.476083   4.674518
    21  H    4.642727   3.420511   5.923748   4.862663   5.378115
    22  H    5.378112   3.900214   6.213098   6.100288   4.642730
    23  H    4.642727   5.923748   3.420510   4.862664   5.378114
    24  H    5.378111   6.213096   3.900213   6.100289   4.642728
                    6          7          8          9         10
     6  C    0.000000
     7  O    2.373635   0.000000
     8  C    2.522013   2.373634   0.000000
     9  C    4.286519   4.796982   2.424049   0.000000
    10  C    1.399827   2.807015   3.802335   5.686327   0.000000
    11  C    3.802336   2.807014   1.399828   2.788508   4.955658
    12  C    2.424050   4.796984   4.286520   4.955657   2.788509
    13  C    5.141098   5.021456   2.799673   1.395146   6.508921
    14  C    4.947097   4.201610   2.425087   2.414970   6.203258
    15  C    2.799672   5.021457   5.141097   6.203256   2.414971
    16  C    2.425086   4.201609   4.947096   6.508920   1.395146
    17  H    4.912357   5.764715   3.418993   1.102919   6.292092
    18  H    2.162186   2.476081   4.137245   6.292093   1.102919
    19  H    4.137250   2.476084   2.162189   3.891386   5.065968
    20  H    3.418996   5.764719   4.912362   5.065966   3.891387
    21  H    6.213097   6.100292   3.900214   2.164320   7.590701
    22  H    5.923750   4.862667   3.420512   3.414165   7.116636
    23  H    3.900214   6.100293   6.213097   7.116634   3.414166
    24  H    3.420510   4.862667   5.923749   7.590700   2.164320
                   11         12         13         14         15
    11  C    0.000000
    12  C    5.686329   0.000000
    13  C    2.414971   6.203257   0.000000
    14  C    1.395147   6.508921   1.393451   0.000000
    15  C    6.508921   1.395146   7.372172   7.502709   0.000000
    16  C    6.203257   2.414971   7.502708   7.372174   1.393452
    17  H    3.891386   5.065962   2.174506   3.418727   6.410718
    18  H    5.065964   3.891387   6.932284   6.410722   3.418728
    19  H    1.102919   6.292098   3.418727   2.174506   6.932288
    20  H    6.292097   1.102919   6.410723   6.932287   2.174505
    21  H    3.414166   7.116635   1.100547   2.166868   8.341813
    22  H    2.164321   7.590702   2.166869   1.100547   8.548099
    23  H    7.590702   2.164319   8.341813   8.548098   1.100547
    24  H    7.116636   3.414165   8.548098   8.341815   2.166868
                   16         17         18         19         20
    16  C    0.000000
    17  H    6.932281   0.000000
    18  H    2.174506   7.019929   0.000000
    19  H    6.410725   4.994232   4.933267   0.000000
    20  H    3.418727   4.933263   4.994233   7.019937   0.000000
    21  H    8.548097   2.503373   8.031731   4.330611   7.212586
    22  H    8.341815   4.330612   7.212586   2.503370   8.031734
    23  H    2.166870   7.212581   4.330613   8.031736   2.503369
    24  H    1.100547   8.031728   2.503373   7.212590   4.330610
                   21         22         23         24
    21  H    0.000000
    22  H    2.500350   0.000000
    23  H    9.274694   9.605818   0.000000
    24  H    9.605817   9.274697   2.500350   0.000000
 Stoichiometry    C14H8O2
 Framework group  C1[X(C14H8O2)]
 Deg. of freedom    66
 Full point group                 C1      NOp   1
 Largest Abelian subgroup         C1      NOp   1
 Largest concise Abelian subgroup C1      NOp   1
                         Standard orientation:                         
 ---------------------------------------------------------------------
 Center     Atomic      Atomic             Coordinates (Angstroms)
 Number     Number       Type             X           Y           Z
 ---------------------------------------------------------------------
      1          6           0        0.000000    1.473627    0.000247
      2          6           0       -1.261006    0.702256    0.000028
      3          6           0        1.261007    0.702257    0.000027
      4          8           0       -0.000000    2.713225   -0.000331
      5          6           0        0.000000   -1.473631   -0.000403
      6          6           0        1.261007   -0.702257   -0.000091
      7          8           0       -0.000001   -2.713228    0.000293
      8          6           0       -1.261007   -0.702257   -0.000090
      9          6           0       -2.477828    1.394254    0.000106
     10          6           0        2.477829   -1.394254   -0.000082
     11          6           0       -2.477829   -1.394254   -0.000083
     12          6           0        2.477829    1.394255    0.000106
     13          6           0       -3.686086    0.696727    0.000103
     14          6           0       -3.686087   -0.696724    0.000008
     15          6           0        3.686086    0.696726    0.000102
     16          6           0        3.686086   -0.696725    0.000008
     17          1           0       -2.466629    2.497116    0.000243
     18          1           0        2.466631   -2.497116   -0.000220
     19          1           0       -2.466636   -2.497116   -0.000224
     20          1           0        2.466634    2.497117    0.000244
     21          1           0       -4.637347    1.250177    0.000193
     22          1           0       -4.637349   -1.250172   -0.000014
     23          1           0        4.637347    1.250176    0.000190
     24          1           0        4.637348   -1.250174   -0.000015
 ---------------------------------------------------------------------
 Rotational constants (GHZ):      1.1002427      0.4454888      0.3170964

 **********************************************************************

            Population analysis using the SCF density.

 **********************************************************************

 Orbital symmetries:
       Occupied  (A) (A) (A) (A) (A) (A) (A) (A) (A) (A) (A) (A)
                 (A) (A) (A) (A) (A) (A) (A) (A) (A) (A) (A) (A)
                 (A) (A) (A) (A) (A) (A) (A) (A) (A) (A) (A) (A)
                 (A) (A)
       Virtual   (A) (A) (A) (A) (A) (A) (A) (A) (A) (A) (A) (A)
                 (A) (A) (A) (A) (A) (A) (A) (A) (A) (A) (A) (A)
                 (A) (A) (A) (A) (A) (A) (A) (A) (A) (A)
 The electronic state is 1-A.
 Alpha  occ. eigenvalues --   -1.53404  -1.45287  -1.44894  -1.39622  -1.25058
 Alpha  occ. eigenvalues --   -1.18162  -1.17407  -1.15541  -0.99329  -0.94037
 Alpha  occ. eigenvalues --   -0.89134  -0.84264  -0.80662  -0.74623  -0.70236
 Alpha  occ. eigenvalues --   -0.65545  -0.62653  -0.61165  -0.59784  -0.59592
 Alpha  occ. eigenvalues --   -0.58965  -0.55644  -0.55189  -0.54768  -0.54719
 Alpha  occ. eigenvalues --   -0.54271  -0.50926  -0.49020  -0.48417  -0.48294
 Alpha  occ. eigenvalues --   -0.46519  -0.45553  -0.41461  -0.39606  -0.37854
 Alpha  occ. eigenvalues --   -0.37402  -0.37398  -0.37204
 Alpha virt. eigenvalues --   -0.05121  -0.01330  -0.00643   0.00173   0.04918
 Alpha virt. eigenvalues --    0.05284   0.08603   0.09505   0.09828   0.10541
 Alpha virt. eigenvalues --    0.12279   0.12771   0.13074   0.13215   0.13778
 Alpha virt. eigenvalues --    0.13953   0.14093   0.14462   0.14507   0.15385
 Alpha virt. eigenvalues --    0.16236   0.16294   0.16885   0.17028   0.17507
 Alpha virt. eigenvalues --    0.17978   0.18224   0.18740   0.18878   0.18940
 Alpha virt. eigenvalues --    0.20114   0.20281   0.22519   0.23282
          Condensed to atoms (all electrons):
               1          2          3          4          5          6
     1  C    3.695029   0.000000   0.000000   0.000000   0.000000   0.000000
     2  C    0.000000   4.107635   0.000000   0.000000   0.000000   0.000000
     3  C    0.000000   0.000000   4.107634   0.000000   0.000000   0.000000
     4  O    0.000000   0.000000   0.000000   6.286376   0.000000   0.000000
     5  C    0.000000   0.000000   0.000000   0.000000   3.695029   0.000000
     6  C    0.000000   0.000000   0.000000   0.000000   0.000000   4.107635
     7  O    0.000000   0.000000   0.000000   0.000000   0.000000   0.000000
     8  C    0.000000   0.000000   0.000000   0.000000   0.000000   0.000000
     9  C    0.000000   0.000000   0.000000   0.000000   0.000000   0.000000
    10  C    0.000000   0.000000   0.000000   0.000000   0.000000   0.000000
    11  C    0.000000   0.000000   0.000000   0.000000   0.000000   0.000000
    12  C    0.000000   0.000000   0.000000   0.000000   0.000000   0.000000
    13  C    0.000000   0.000000   0.000000   0.000000   0.000000   0.000000
    14  C    0.000000   0.000000   0.000000   0.000000   0.000000   0.000000
    15  C    0.000000   0.000000   0.000000   0.000000   0.000000   0.000000
    16  C    0.000000   0.000000   0.000000   0.000000   0.000000   0.000000
    17  H    0.000000   0.000000   0.000000   0.000000   0.000000   0.000000
    18  H    0.000000   0.000000   0.000000   0.000000   0.000000   0.000000
    19  H    0.000000   0.000000   0.000000   0.000000   0.000000   0.000000
    20  H    0.000000   0.000000   0.000000   0.000000   0.000000   0.000000
    21  H    0.000000   0.000000   0.000000   0.000000   0.000000   0.000000
    22  H    0.000000   0.000000   0.000000   0.000000   0.000000   0.000000
    23  H    0.000000   0.000000   0.000000   0.000000   0.000000   0.000000
    24  H    0.000000   0.000000   0.000000   0.000000   0.000000   0.000000
               7          8          9         10         11         12
     1  C    0.000000   0.000000   0.000000   0.000000   0.000000   0.000000
     2  C    0.000000   0.000000   0.000000   0.000000   0.000000   0.000000
     3  C    0.000000   0.000000   0.000000   0.000000   0.000000   0.000000
     4  O    0.000000   0.000000   0.000000   0.000000   0.000000   0.000000
     5  C    0.000000   0.000000   0.000000   0.000000   0.000000   0.000000
     6  C    0.000000   0.000000   0.000000   0.000000   0.000000   0.000000
     7  O    6.286376   0.000000   0.000000   0.000000   0.000000   0.000000
     8  C    0.000000   4.107634   0.000000   0.000000   0.000000   0.000000
     9  C    0.000000   0.000000   4.087080   0.000000   0.000000   0.000000
    10  C    0.000000   0.000000   0.000000   4.087081   0.000000   0.000000
    11  C    0.000000   0.000000   0.000000   0.000000   4.087081   0.000000
    12  C    0.000000   0.000000   0.000000   0.000000   0.000000   4.087080
    13  C    0.000000   0.000000   0.000000   0.000000   0.000000   0.000000
    14  C    0.000000   0.000000   0.000000   0.000000   0.000000   0.000000
    15  C    0.000000   0.000000   0.000000   0.000000   0.000000   0.000000
    16  C    0.000000   0.000000   0.000000   0.000000   0.000000   0.000000
    17  H    0.000000   0.000000   0.000000   0.000000   0.000000   0.000000
    18  H    0.000000   0.000000   0.000000   0.000000   0.000000   0.000000
    19  H    0.000000   0.000000   0.000000   0.000000   0.000000   0.000000
    20  H    0.000000   0.000000   0.000000   0.000000   0.000000   0.000000
    21  H    0.000000   0.000000   0.000000   0.000000   0.000000   0.000000
    22  H    0.000000   0.000000   0.000000   0.000000   0.000000   0.000000
    23  H    0.000000   0.000000   0.000000   0.000000   0.000000   0.000000
    24  H    0.000000   0.000000   0.000000   0.000000   0.000000   0.000000
              13         14         15         16         17         18
     1  C    0.000000   0.000000   0.000000   0.000000   0.000000   0.000000
     2  C    0.000000   0.000000   0.000000   0.000000   0.000000   0.000000
     3  C    0.000000   0.000000   0.000000   0.000000   0.000000   0.000000
     4  O    0.000000   0.000000   0.000000   0.000000   0.000000   0.000000
     5  C    0.000000   0.000000   0.000000   0.000000   0.000000   0.000000
     6  C    0.000000   0.000000   0.000000   0.000000   0.000000   0.000000
     7  O    0.000000   0.000000   0.000000   0.000000   0.000000   0.000000
     8  C    0.000000   0.000000   0.000000   0.000000   0.000000   0.000000
     9  C    0.000000   0.000000   0.000000   0.000000   0.000000   0.000000
    10  C    0.000000   0.000000   0.000000   0.000000   0.000000   0.000000
    11  C    0.000000   0.000000   0.000000   0.000000   0.000000   0.000000
    12  C    0.000000   0.000000   0.000000   0.000000   0.000000   0.000000
    13  C    4.116827   0.000000   0.000000   0.000000   0.000000   0.000000
    14  C    0.000000   4.116827   0.000000   0.000000   0.000000   0.000000
    15  C    0.000000   0.000000   4.116827   0.000000   0.000000   0.000000
    16  C    0.000000   0.000000   0.000000   4.116827   0.000000   0.000000
    17  H    0.000000   0.000000   0.000000   0.000000   0.839540   0.000000
    18  H    0.000000   0.000000   0.000000   0.000000   0.000000   0.839540
    19  H    0.000000   0.000000   0.000000   0.000000   0.000000   0.000000
    20  H    0.000000   0.000000   0.000000   0.000000   0.000000   0.000000
    21  H    0.000000   0.000000   0.000000   0.000000   0.000000   0.000000
    22  H    0.000000   0.000000   0.000000   0.000000   0.000000   0.000000
    23  H    0.000000   0.000000   0.000000   0.000000   0.000000   0.000000
    24  H    0.000000   0.000000   0.000000   0.000000   0.000000   0.000000
              19         20         21         22         23         24
     1  C    0.000000   0.000000   0.000000   0.000000   0.000000   0.000000
     2  C    0.000000   0.000000   0.000000   0.000000   0.000000   0.000000
     3  C    0.000000   0.000000   0.000000   0.000000   0.000000   0.000000
     4  O    0.000000   0.000000   0.000000   0.000000   0.000000   0.000000
     5  C    0.000000   0.000000   0.000000   0.000000   0.000000   0.000000
     6  C    0.000000   0.000000   0.000000   0.000000   0.000000   0.000000
     7  O    0.000000   0.000000   0.000000   0.000000   0.000000   0.000000
     8  C    0.000000   0.000000   0.000000   0.000000   0.000000   0.000000
     9  C    0.000000   0.000000   0.000000   0.000000   0.000000   0.000000
    10  C    0.000000   0.000000   0.000000   0.000000   0.000000   0.000000
    11  C    0.000000   0.000000   0.000000   0.000000   0.000000   0.000000
    12  C    0.000000   0.000000   0.000000   0.000000   0.000000   0.000000
    13  C    0.000000   0.000000   0.000000   0.000000   0.000000   0.000000
    14  C    0.000000   0.000000   0.000000   0.000000   0.000000   0.000000
    15  C    0.000000   0.000000   0.000000   0.000000   0.000000   0.000000
    16  C    0.000000   0.000000   0.000000   0.000000   0.000000   0.000000
    17  H    0.000000   0.000000   0.000000   0.000000   0.000000   0.000000
    18  H    0.000000   0.000000   0.000000   0.000000   0.000000   0.000000
    19  H    0.839540   0.000000   0.000000   0.000000   0.000000   0.000000
    20  H    0.000000   0.839540   0.000000   0.000000   0.000000   0.000000
    21  H    0.000000   0.000000   0.858215   0.000000   0.000000   0.000000
    22  H    0.000000   0.000000   0.000000   0.858215   0.000000   0.000000
    23  H    0.000000   0.000000   0.000000   0.000000   0.858215   0.000000
    24  H    0.000000   0.000000   0.000000   0.000000   0.000000   0.858215
 Mulliken charges:
               1
     1  C    0.304971
     2  C   -0.107635
     3  C   -0.107634
     4  O   -0.286376
     5  C    0.304971
     6  C   -0.107635
     7  O   -0.286376
     8  C   -0.107634
     9  C   -0.087080
    10  C   -0.087081
    11  C   -0.087081
    12  C   -0.087080
    13  C   -0.116827
    14  C   -0.116827
    15  C   -0.116827
    16  C   -0.116827
    17  H    0.160460
    18  H    0.160460
    19  H    0.160460
    20  H    0.160460
    21  H    0.141785
    22  H    0.141785
    23  H    0.141785
    24  H    0.141785
 Sum of Mulliken charges =  -0.00000
 Mulliken charges with hydrogens summed into heavy atoms:
               1
     1  C    0.304971
     2  C   -0.107635
     3  C   -0.107634
     4  O   -0.286376
     5  C    0.304971
     6  C   -0.107635
     7  O   -0.286376
     8  C   -0.107634
     9  C    0.073379
    10  C    0.073379
    11  C    0.073379
    12  C    0.073379
    13  C    0.024958
    14  C    0.024958
    15  C    0.024958
    16  C    0.024958
 Charge=             -0.0000 electrons
 Dipole moment (field-independent basis, Debye):
    X=              0.0000    Y=             -0.0000    Z=             -0.0000  Tot=              0.0000
 N-N= 5.248945713535D+02 E-N=-9.411901763582D+02  KE=-5.234674794165D+01
 1\1\GINC-GTX1080DELTA\FOpt\RAM1\ZDO\C14H8O2\MVEROT\11-Apr-2022\0\\#n A
 M1 Opt symmetry=loose\\Optimisation of anthraquinone using the AM1 ham
 iltonian\\0,1\C,-0.6706806475,-1.2616237589,0.1040448098\C,-2.07423080
 38,-0.8136611566,-0.0164814736\C,0.3732578097,-0.2150921128,0.09336290
 23\O,-0.38178967,-2.4623875153,0.2103966317\C,-1.3576732133,1.59344981
 06,-0.1468030926\C,0.0458836823,1.14547758,-0.0263690077\O,-1.64655814
 41,2.7942042752,-0.2532720791\C,-2.4016047902,0.5469076491,-0.13621318
 38\C,-3.0937987696,-1.7728076513,-0.0105073248\C,1.0654575523,2.104616
 6578,-0.0324296717\C,-3.7437623819,0.928450661,-0.2482668187\C,1.71542
 02027,-0.5966422249,0.2053310536\C,-4.4289339548,-1.3838742809,-0.1226
 494098\C,-4.753729328,-0.0340233208,-0.2414603815\C,2.7253922682,0.365
 8235427,0.1984383616\C,2.400598164,1.715675436,0.0796264725\H,-2.82586
 48351,-2.8385084445,0.0839532296\H,0.7975247499,3.1703180659,-0.126888
 8973\H,-3.989965466,1.9994666835,-0.3417480767\H,1.9616214623,-1.66765
 86595,0.2988150695\H,-5.2230806149,-2.1457813719,-0.1169438422\H,-5.80
 58815145,0.2763370212,-0.3300972949\H,3.7775481476,0.0554569298,0.2870
 083676\H,3.1947500945,2.4775761845,0.0738536562\\Version=AM64L-G09RevD
 .01\State=1-A\HF=-0.0099697\RMSD=2.459e-09\RMSF=5.212e-05\Dipole=0.000
 0003,0.0000028,0.0000099\PG=C01 [X(C14H8O2)]\\@


 YOU CAN LEAD A BOY TO COLLEGE....
 BUT YOU CANNOT MAKE HIM THINK....
           ELBERT HUBBARD
 Job cpu time:       0 days  0 hours  0 minutes  6.9 seconds.
 File lengths (MBytes):  RWF=    132 Int=      0 D2E=      0 Chk=      3 Scr=      2
 Normal termination of Gaussian 09 at Mon Apr 11 20:59:18 2022.
