 Entering Gaussian System, Link 0=g09
 Input=/scratch/mverot/anthracene-2-3-opt-zindo/anthracene-2-3-opt-zindo.com
 Output=/scratch/mverot/anthracene-2-3-opt-zindo/anthracene-2-3-opt-zindo.log
 Initial command:
 /opt/g09/l1.exe "/scratch/mverot/anthracene-2-3-opt-zindo/Gau-2824194.inp" -scrdir="/scratch/mverot/anthracene-2-3-opt-zindo/"
 Entering Link 1 = /opt/g09/l1.exe PID=   2824196.
  
 Copyright (c) 1988,1990,1992,1993,1995,1998,2003,2009,2013,
            Gaussian, Inc.  All Rights Reserved.
  
 This is part of the Gaussian(R) 09 program.  It is based on
 the Gaussian(R) 03 system (copyright 2003, Gaussian, Inc.),
 the Gaussian(R) 98 system (copyright 1998, Gaussian, Inc.),
 the Gaussian(R) 94 system (copyright 1995, Gaussian, Inc.),
 the Gaussian 92(TM) system (copyright 1992, Gaussian, Inc.),
 the Gaussian 90(TM) system (copyright 1990, Gaussian, Inc.),
 the Gaussian 88(TM) system (copyright 1988, Gaussian, Inc.),
 the Gaussian 86(TM) system (copyright 1986, Carnegie Mellon
 University), and the Gaussian 82(TM) system (copyright 1983,
 Carnegie Mellon University). Gaussian is a federally registered
 trademark of Gaussian, Inc.
  
 This software contains proprietary and confidential information,
 including trade secrets, belonging to Gaussian, Inc.
  
 This software is provided under written license and may be
 used, copied, transmitted, or stored only in accord with that
 written license.
  
 The following legend is applicable only to US Government
 contracts under FAR:
  
                    RESTRICTED RIGHTS LEGEND
  
 Use, reproduction and disclosure by the US Government is
 subject to restrictions as set forth in subparagraphs (a)
 and (c) of the Commercial Computer Software - Restricted
 Rights clause in FAR 52.227-19.
  
 Gaussian, Inc.
 340 Quinnipiac St., Bldg. 40, Wallingford CT 06492
  
  
 ---------------------------------------------------------------
 Warning -- This program may not be used in any manner that
 competes with the business of Gaussian, Inc. or will provide
 assistance to any competitor of Gaussian, Inc.  The licensee
 of this program is prohibited from giving any competitor of
 Gaussian, Inc. access to this program.  By using this program,
 the user acknowledges that Gaussian, Inc. is engaged in the
 business of creating and licensing software in the field of
 computational chemistry and represents and warrants to the
 licensee that it is not a competitor of Gaussian, Inc. and that
 it will not use this program in any manner prohibited above.
 ---------------------------------------------------------------
  

 Cite this work as:
 Gaussian 09, Revision D.01,
 M. J. Frisch, G. W. Trucks, H. B. Schlegel, G. E. Scuseria, 
 M. A. Robb, J. R. Cheeseman, G. Scalmani, V. Barone, B. Mennucci, 
 G. A. Petersson, H. Nakatsuji, M. Caricato, X. Li, H. P. Hratchian, 
 A. F. Izmaylov, J. Bloino, G. Zheng, J. L. Sonnenberg, M. Hada, 
 M. Ehara, K. Toyota, R. Fukuda, J. Hasegawa, M. Ishida, T. Nakajima, 
 Y. Honda, O. Kitao, H. Nakai, T. Vreven, J. A. Montgomery, Jr., 
 J. E. Peralta, F. Ogliaro, M. Bearpark, J. J. Heyd, E. Brothers, 
 K. N. Kudin, V. N. Staroverov, T. Keith, R. Kobayashi, J. Normand, 
 K. Raghavachari, A. Rendell, J. C. Burant, S. S. Iyengar, J. Tomasi, 
 M. Cossi, N. Rega, J. M. Millam, M. Klene, J. E. Knox, J. B. Cross, 
 V. Bakken, C. Adamo, J. Jaramillo, R. Gomperts, R. E. Stratmann, 
 O. Yazyev, A. J. Austin, R. Cammi, C. Pomelli, J. W. Ochterski, 
 R. L. Martin, K. Morokuma, V. G. Zakrzewski, G. A. Voth, 
 P. Salvador, J. J. Dannenberg, S. Dapprich, A. D. Daniels, 
 O. Farkas, J. B. Foresman, J. V. Ortiz, J. Cioslowski, 
 and D. J. Fox, Gaussian, Inc., Wallingford CT, 2013.
 
 ******************************************
 Gaussian 09:  AM64L-G09RevD.01 24-Apr-2013
                12-Apr-2022 
 ******************************************
 %chk=anthracene-2-3-opt-zindo
 ------------------------------------
 #n ZINDO(NSTATE=10) pop=full gfinput
 ------------------------------------
 1/38=1/1;
 2/12=2,17=6,18=5,40=1/2;
 3/5=2,16=1,24=10,25=1,41=400000/1,2,8,3;
 4/5=3,35=1/1;
 5/5=2,35=1,38=5/2;
 8/6=1,108=10/1;
 9/41=10,42=1,49=10/14;
 6/7=3/1;
 99/5=1,9=1/99;
 ----------
 UV-spectra
 ----------
 Symbolic Z-matrix:
 Charge =  0 Multiplicity = 1
 C                     0.024     1.48003  -0.01968 
 C                     1.2851    0.70935  -0.01014 
 C                    -1.23554   0.70684  -0.00449 
 O                     0.02162   2.71958  -0.03944 
 C                     0.02495  -1.46665   0.0254 
 C                    -1.23509  -0.69418   0.01673 
 O                     0.02338  -2.70622   0.04371 
 C                     1.28556  -0.69522   0.01124 
 C                     2.50144   1.40171  -0.0229 
 C                    -2.44821  -1.39347   0.03035 
 C                     2.50235  -1.38687   0.01951 
 C                    -2.44911   1.40544  -0.01186 
 C                     3.70983   0.70435  -0.01448 
 C                     3.71028  -0.68879   0.0067 
 C                    -3.66301   0.71418   0.00174 
 C                    -3.66255  -0.70289   0.02307 
 H                     2.49016   2.50447  -0.0397 
 H                    -2.43286  -2.49608   0.0469 
 H                     2.49177  -2.48963   0.03627 
 H                    -2.43448   2.50806  -0.02858 
 H                     4.661     1.25803  -0.02465 
 H                     4.66181  -1.24191   0.01339 
 O                    -4.88433   1.33868  -0.00441 
 H                    -4.72746   2.29584  -0.0196 
 O                    -4.88347  -1.32809   0.03564 
 H                    -4.72599  -2.28516   0.0494 
 
                          Input orientation:                          
 ---------------------------------------------------------------------
 Center     Atomic      Atomic             Coordinates (Angstroms)
 Number     Number       Type             X           Y           Z
 ---------------------------------------------------------------------
      1          6           0        0.024001    1.480032   -0.019676
      2          6           0        1.285102    0.709347   -0.010145
      3          6           0       -1.235541    0.706843   -0.004486
      4          8           0        0.021620    2.719579   -0.039442
      5          6           0        0.024954   -1.466652    0.025404
      6          6           0       -1.235088   -0.694178    0.016734
      7          8           0        0.023376   -2.706222    0.043713
      8          6           0        1.285556   -0.695222    0.011243
      9          6           0        2.501445    1.401712   -0.022899
     10          6           0       -2.448208   -1.393468    0.030355
     11          6           0        2.502346   -1.386868    0.019512
     12          6           0       -2.449112    1.405444   -0.011857
     13          6           0        3.709834    0.704345   -0.014482
     14          6           0        3.710285   -0.688787    0.006701
     15          6           0       -3.663010    0.714177    0.001738
     16          6           0       -3.662552   -0.702891    0.023066
     17          1           0        2.490158    2.504469   -0.039698
     18          1           0       -2.432863   -2.496078    0.046901
     19          1           0        2.491773   -2.489633    0.036272
     20          1           0       -2.434479    2.508061   -0.028585
     21          1           0        4.661001    1.258032   -0.024648
     22          1           0        4.661810   -1.241911    0.013388
     23          8           0       -4.884334    1.338683   -0.004407
     24          1           0       -4.727464    2.295839   -0.019595
     25          8           0       -4.883474   -1.328089    0.035641
     26          1           0       -4.725985   -2.285165    0.049403
 ---------------------------------------------------------------------
                    Distance matrix (angstroms):
                    1          2          3          4          5
     1  C    0.000000
     2  C    1.477979   0.000000
     3  C    1.478005   2.520650   0.000000
     4  O    1.239706   2.374505   2.373348   0.000000
     5  C    2.947029   2.514798   2.512732   4.186734   0.000000
     6  C    2.512732   2.884781   1.401181   3.638160   1.478005
     7  O    4.186734   3.641561   3.638160   5.426438   1.239706
     8  C    2.514798   1.404732   2.884781   3.641561   1.477979
     9  C    2.478683   1.399650   3.801085   2.808304   3.789835
    10  C    3.790953   4.284983   2.425506   4.798133   2.474250
    11  C    3.789835   2.424187   4.284391   4.797956   2.478683
    12  C    2.474250   3.798540   1.400304   2.798612   3.790953
    13  C    3.766575   2.424742   4.945386   4.202941   4.277050
    14  C    4.277050   2.799388   5.138979   5.022482   3.766575
    15  C    3.765773   4.948128   2.427488   4.195215   4.284583
    16  C    4.284583   5.145367   2.806865   5.028949   3.765773
    17  H    2.670543   2.162290   4.136851   2.477892   4.674534
    18  H    4.674406   4.909304   3.419784   5.764982   2.664779
    19  H    4.674534   3.419310   4.910396   5.765698   2.670543
    20  H    2.664779   4.131706   2.163890   2.465215   4.674406
    21  H    4.642314   3.420228   5.922282   4.864174   5.377670
    22  H    5.377670   3.900015   6.211015   6.101438   4.642314
    23  O    4.910394   6.201455   3.703095   5.096714   5.654371
    24  H    4.820992   6.218360   3.836491   4.767992   6.061670
    25  O    5.654371   6.496504   4.177316   6.359968   4.910394
    26  H    6.061671   6.715937   4.597631   6.898921   4.820992
                    6          7          8          9         10
     6  C    0.000000
     7  O    2.373348   0.000000
     8  C    2.520651   2.374505   0.000000
     9  C    4.284391   4.797956   2.424187   0.000000
    10  C    1.400304   2.798612   3.798540   5.684622   0.000000
    11  C    3.801085   2.808304   1.399650   2.788903   4.950571
    12  C    2.425506   4.798133   4.284982   4.950570   2.799230
    13  C    5.138979   5.022482   2.799388   1.395205   6.505714
    14  C    4.945386   4.202941   2.424742   2.415027   6.198723
    15  C    2.806865   5.028949   5.145367   6.202726   2.432844
    16  C    2.427488   4.195215   4.948128   6.513549   1.396991
    17  H    4.910396   5.765698   3.419310   1.102943   6.291763
    18  H    2.163890   2.465214   4.131706   6.288484   1.102841
    19  H    4.136851   2.477892   2.162290   3.891807   5.060140
    20  H    3.419784   5.764982   4.909304   5.058397   3.901998
    21  H    6.211015   6.101438   3.900015   2.164332   7.587775
    22  H    5.922282   4.864174   3.420228   3.414270   7.111653
    23  O    4.177316   6.359968   6.496504   7.386071   3.660679
    24  H    4.597631   6.898921   6.715937   7.283996   4.336876
    25  O    3.703095   5.096714   6.201455   7.873516   2.436149
    26  H    3.836492   4.767993   6.218360   8.113817   2.446171
                   11         12         13         14         15
    11  C    0.000000
    12  C    5.684622   0.000000
    13  C    2.415027   6.198723   0.000000
    14  C    1.395205   6.505714   1.393293   0.000000
    15  C    6.513549   1.396991   7.372869   7.505585   0.000000
    16  C    6.202726   2.432844   7.505585   7.372869   1.417228
    17  H    3.891807   5.060140   2.174556   3.418735   6.408458
    18  H    5.058398   3.901998   6.926702   6.403607   3.438174
    19  H    1.102943   6.291763   3.418735   2.174556   6.938799
    20  H    6.288484   1.102841   6.403607   6.926702   2.174449
    21  H    3.414270   7.111653   1.100632   2.166782   8.341800
    22  H    2.164332   7.587775   2.166783   1.100632   8.551552
    23  O    7.873516   2.436149   8.617553   8.830529   1.371743
    24  H    8.113817   2.446171   8.586087   8.950100   1.906613
    25  O    7.386071   3.660679   8.830529   8.617554   2.379397
    26  H    7.283997   4.336876   8.950101   8.586088   3.182489
                   16         17         18         19         20
    16  C    0.000000
    17  H    6.938800   0.000000
    18  H    2.174449   7.017771   0.000000
    19  H    6.408458   4.994680   4.924651   0.000000
    20  H    3.438174   4.924651   5.004709   7.017771   0.000000
    21  H    8.551552   2.503277   8.026292   4.330618   7.204751
    22  H    8.341801   4.330618   7.204751   2.503277   8.026292
    23  O    2.379397   7.466153   4.551675   8.310512   2.714741
    24  H    3.182489   7.220665   5.313388   8.661481   2.302802
    25  O    1.371743   8.310513   2.714741   7.466153   4.551675
    26  H    1.906613   8.661481   2.302803   7.220665   5.313388
                   21         22         23         24         25
    21  H    0.000000
    22  H    2.500232   0.000000
    23  O    9.545698   9.888814   0.000000
    24  H    9.445652  10.033704   0.970045   0.000000
    25  O    9.888815   9.545698   2.667073   3.627705   0.000000
    26  H   10.033705   9.445653   3.627705   4.581524   0.970045
                   26
    26  H    0.000000
 Stoichiometry    C14H8O4
 Framework group  C1[X(C14H8O4)]
 Deg. of freedom    72
 Full point group                 C1      NOp   1
 Largest Abelian subgroup         C1      NOp   1
 Largest concise Abelian subgroup C1      NOp   1
                         Standard orientation:                         
 ---------------------------------------------------------------------
 Center     Atomic      Atomic             Coordinates (Angstroms)
 Number     Number       Type             X           Y           Z
 ---------------------------------------------------------------------
      1          6           0       -0.634953   -1.473515   -0.000827
      2          6           0       -1.895806   -0.702366   -0.000131
      3          6           0        0.624844   -0.700591   -0.000299
      4          8           0       -0.632975   -2.713219   -0.001731
      5          6           0       -0.634953    1.473515   -0.000599
      6          6           0        0.624844    0.700591   -0.000405
      7          8           0       -0.632975    2.713219   -0.001161
      8          6           0       -1.895806    0.702366   -0.000123
      9          6           0       -3.112374   -1.394451    0.000447
     10          6           0        1.838193    1.399615   -0.000214
     11          6           0       -3.112374    1.394451    0.000413
     12          6           0        1.838193   -1.399615    0.000176
     13          6           0       -4.320540   -0.696647    0.001024
     14          6           0       -4.320540    0.696646    0.001002
     15          6           0        3.052318   -0.708614    0.000461
     16          6           0        3.052319    0.708614    0.000220
     17          1           0       -3.101444   -2.497340    0.000407
     18          1           0        1.823204    2.502354   -0.000416
     19          1           0       -3.101444    2.497340    0.000363
     20          1           0        1.823204   -2.502354    0.000266
     21          1           0       -5.271888   -1.250116    0.001470
     22          1           0       -5.271888    1.250116    0.001455
     23          8           0        4.273446   -1.333537    0.001018
     24          1           0        4.116265   -2.290762    0.000759
     25          8           0        4.273446    1.333536    0.000474
     26          1           0        4.116265    2.290762    0.000030
 ---------------------------------------------------------------------
 Rotational constants (GHZ):      0.9637035      0.2801924      0.2170780
 Standard basis: VSTO-6G (5D, 7F)
 AO basis set in the form of general basis input (Overlap normalization):
      1 0
 S   6 1.00       0.000000000000
      0.7310560386D+02 -0.4151277819D-02
      0.1340682447D+02 -0.2067024148D-01
      0.3767606913D+01 -0.5150303337D-01
      0.5387761534D+00  0.3346271174D+00
      0.2445297546D+00  0.5621061301D+00
      0.1166148582D+00  0.1712994697D+00
 P   6 1.00       0.000000000000
      0.1549594249D+02  0.7924233646D-02
      0.4041026682D+01  0.5144104825D-01
      0.1445917850D+01  0.1898400060D+00
      0.6044212998D+00  0.4049863191D+00
      0.2763825918D+00  0.4012362861D+00
      0.1306639377D+00  0.1051855189D+00
 ****
      2 0
 S   6 1.00       0.000000000000
      0.7310560386D+02 -0.4151277819D-02
      0.1340682447D+02 -0.2067024148D-01
      0.3767606913D+01 -0.5150303337D-01
      0.5387761534D+00  0.3346271174D+00
      0.2445297546D+00  0.5621061301D+00
      0.1166148582D+00  0.1712994697D+00
 P   6 1.00       0.000000000000
      0.1549594249D+02  0.7924233646D-02
      0.4041026682D+01  0.5144104825D-01
      0.1445917850D+01  0.1898400060D+00
      0.6044212998D+00  0.4049863191D+00
      0.2763825918D+00  0.4012362861D+00
      0.1306639377D+00  0.1051855189D+00
 ****
      3 0
 S   6 1.00       0.000000000000
      0.7310560386D+02 -0.4151277819D-02
      0.1340682447D+02 -0.2067024148D-01
      0.3767606913D+01 -0.5150303337D-01
      0.5387761534D+00  0.3346271174D+00
      0.2445297546D+00  0.5621061301D+00
      0.1166148582D+00  0.1712994697D+00
 P   6 1.00       0.000000000000
      0.1549594249D+02  0.7924233646D-02
      0.4041026682D+01  0.5144104825D-01
      0.1445917850D+01  0.1898400060D+00
      0.6044212998D+00  0.4049863191D+00
      0.2763825918D+00  0.4012362861D+00
      0.1306639377D+00  0.1051855189D+00
 ****
      4 0
 S   6 1.00       0.000000000000
      0.1432869836D+03 -0.4151277819D-02
      0.2627737596D+02 -0.2067024148D-01
      0.7384509550D+01 -0.5150303337D-01
      0.1056001261D+01  0.3346271174D+00
      0.4792783190D+00  0.5621061301D+00
      0.2285651220D+00  0.1712994697D+00
 P   6 1.00       0.000000000000
      0.3037204728D+02  0.7924233646D-02
      0.7920412296D+01  0.5144104825D-01
      0.2833998986D+01  0.1898400060D+00
      0.1184665748D+01  0.4049863191D+00
      0.5417098800D+00  0.4012362861D+00
      0.2561013179D+00  0.1051855189D+00
 ****
      5 0
 S   6 1.00       0.000000000000
      0.7310560386D+02 -0.4151277819D-02
      0.1340682447D+02 -0.2067024148D-01
      0.3767606913D+01 -0.5150303337D-01
      0.5387761534D+00  0.3346271174D+00
      0.2445297546D+00  0.5621061301D+00
      0.1166148582D+00  0.1712994697D+00
 P   6 1.00       0.000000000000
      0.1549594249D+02  0.7924233646D-02
      0.4041026682D+01  0.5144104825D-01
      0.1445917850D+01  0.1898400060D+00
      0.6044212998D+00  0.4049863191D+00
      0.2763825918D+00  0.4012362861D+00
      0.1306639377D+00  0.1051855189D+00
 ****
      6 0
 S   6 1.00       0.000000000000
      0.7310560386D+02 -0.4151277819D-02
      0.1340682447D+02 -0.2067024148D-01
      0.3767606913D+01 -0.5150303337D-01
      0.5387761534D+00  0.3346271174D+00
      0.2445297546D+00  0.5621061301D+00
      0.1166148582D+00  0.1712994697D+00
 P   6 1.00       0.000000000000
      0.1549594249D+02  0.7924233646D-02
      0.4041026682D+01  0.5144104825D-01
      0.1445917850D+01  0.1898400060D+00
      0.6044212998D+00  0.4049863191D+00
      0.2763825918D+00  0.4012362861D+00
      0.1306639377D+00  0.1051855189D+00
 ****
      7 0
 S   6 1.00       0.000000000000
      0.1432869836D+03 -0.4151277819D-02
      0.2627737596D+02 -0.2067024148D-01
      0.7384509550D+01 -0.5150303337D-01
      0.1056001261D+01  0.3346271174D+00
      0.4792783190D+00  0.5621061301D+00
      0.2285651220D+00  0.1712994697D+00
 P   6 1.00       0.000000000000
      0.3037204728D+02  0.7924233646D-02
      0.7920412296D+01  0.5144104825D-01
      0.2833998986D+01  0.1898400060D+00
      0.1184665748D+01  0.4049863191D+00
      0.5417098800D+00  0.4012362861D+00
      0.2561013179D+00  0.1051855189D+00
 ****
      8 0
 S   6 1.00       0.000000000000
      0.7310560386D+02 -0.4151277819D-02
      0.1340682447D+02 -0.2067024148D-01
      0.3767606913D+01 -0.5150303337D-01
      0.5387761534D+00  0.3346271174D+00
      0.2445297546D+00  0.5621061301D+00
      0.1166148582D+00  0.1712994697D+00
 P   6 1.00       0.000000000000
      0.1549594249D+02  0.7924233646D-02
      0.4041026682D+01  0.5144104825D-01
      0.1445917850D+01  0.1898400060D+00
      0.6044212998D+00  0.4049863191D+00
      0.2763825918D+00  0.4012362861D+00
      0.1306639377D+00  0.1051855189D+00
 ****
      9 0
 S   6 1.00       0.000000000000
      0.7310560386D+02 -0.4151277819D-02
      0.1340682447D+02 -0.2067024148D-01
      0.3767606913D+01 -0.5150303337D-01
      0.5387761534D+00  0.3346271174D+00
      0.2445297546D+00  0.5621061301D+00
      0.1166148582D+00  0.1712994697D+00
 P   6 1.00       0.000000000000
      0.1549594249D+02  0.7924233646D-02
      0.4041026682D+01  0.5144104825D-01
      0.1445917850D+01  0.1898400060D+00
      0.6044212998D+00  0.4049863191D+00
      0.2763825918D+00  0.4012362861D+00
      0.1306639377D+00  0.1051855189D+00
 ****
     10 0
 S   6 1.00       0.000000000000
      0.7310560386D+02 -0.4151277819D-02
      0.1340682447D+02 -0.2067024148D-01
      0.3767606913D+01 -0.5150303337D-01
      0.5387761534D+00  0.3346271174D+00
      0.2445297546D+00  0.5621061301D+00
      0.1166148582D+00  0.1712994697D+00
 P   6 1.00       0.000000000000
      0.1549594249D+02  0.7924233646D-02
      0.4041026682D+01  0.5144104825D-01
      0.1445917850D+01  0.1898400060D+00
      0.6044212998D+00  0.4049863191D+00
      0.2763825918D+00  0.4012362861D+00
      0.1306639377D+00  0.1051855189D+00
 ****
     11 0
 S   6 1.00       0.000000000000
      0.7310560386D+02 -0.4151277819D-02
      0.1340682447D+02 -0.2067024148D-01
      0.3767606913D+01 -0.5150303337D-01
      0.5387761534D+00  0.3346271174D+00
      0.2445297546D+00  0.5621061301D+00
      0.1166148582D+00  0.1712994697D+00
 P   6 1.00       0.000000000000
      0.1549594249D+02  0.7924233646D-02
      0.4041026682D+01  0.5144104825D-01
      0.1445917850D+01  0.1898400060D+00
      0.6044212998D+00  0.4049863191D+00
      0.2763825918D+00  0.4012362861D+00
      0.1306639377D+00  0.1051855189D+00
 ****
     12 0
 S   6 1.00       0.000000000000
      0.7310560386D+02 -0.4151277819D-02
      0.1340682447D+02 -0.2067024148D-01
      0.3767606913D+01 -0.5150303337D-01
      0.5387761534D+00  0.3346271174D+00
      0.2445297546D+00  0.5621061301D+00
      0.1166148582D+00  0.1712994697D+00
 P   6 1.00       0.000000000000
      0.1549594249D+02  0.7924233646D-02
      0.4041026682D+01  0.5144104825D-01
      0.1445917850D+01  0.1898400060D+00
      0.6044212998D+00  0.4049863191D+00
      0.2763825918D+00  0.4012362861D+00
      0.1306639377D+00  0.1051855189D+00
 ****
     13 0
 S   6 1.00       0.000000000000
      0.7310560386D+02 -0.4151277819D-02
      0.1340682447D+02 -0.2067024148D-01
      0.3767606913D+01 -0.5150303337D-01
      0.5387761534D+00  0.3346271174D+00
      0.2445297546D+00  0.5621061301D+00
      0.1166148582D+00  0.1712994697D+00
 P   6 1.00       0.000000000000
      0.1549594249D+02  0.7924233646D-02
      0.4041026682D+01  0.5144104825D-01
      0.1445917850D+01  0.1898400060D+00
      0.6044212998D+00  0.4049863191D+00
      0.2763825918D+00  0.4012362861D+00
      0.1306639377D+00  0.1051855189D+00
 ****
     14 0
 S   6 1.00       0.000000000000
      0.7310560386D+02 -0.4151277819D-02
      0.1340682447D+02 -0.2067024148D-01
      0.3767606913D+01 -0.5150303337D-01
      0.5387761534D+00  0.3346271174D+00
      0.2445297546D+00  0.5621061301D+00
      0.1166148582D+00  0.1712994697D+00
 P   6 1.00       0.000000000000
      0.1549594249D+02  0.7924233646D-02
      0.4041026682D+01  0.5144104825D-01
      0.1445917850D+01  0.1898400060D+00
      0.6044212998D+00  0.4049863191D+00
      0.2763825918D+00  0.4012362861D+00
      0.1306639377D+00  0.1051855189D+00
 ****
     15 0
 S   6 1.00       0.000000000000
      0.7310560386D+02 -0.4151277819D-02
      0.1340682447D+02 -0.2067024148D-01
      0.3767606913D+01 -0.5150303337D-01
      0.5387761534D+00  0.3346271174D+00
      0.2445297546D+00  0.5621061301D+00
      0.1166148582D+00  0.1712994697D+00
 P   6 1.00       0.000000000000
      0.1549594249D+02  0.7924233646D-02
      0.4041026682D+01  0.5144104825D-01
      0.1445917850D+01  0.1898400060D+00
      0.6044212998D+00  0.4049863191D+00
      0.2763825918D+00  0.4012362861D+00
      0.1306639377D+00  0.1051855189D+00
 ****
     16 0
 S   6 1.00       0.000000000000
      0.7310560386D+02 -0.4151277819D-02
      0.1340682447D+02 -0.2067024148D-01
      0.3767606913D+01 -0.5150303337D-01
      0.5387761534D+00  0.3346271174D+00
      0.2445297546D+00  0.5621061301D+00
      0.1166148582D+00  0.1712994697D+00
 P   6 1.00       0.000000000000
      0.1549594249D+02  0.7924233646D-02
      0.4041026682D+01  0.5144104825D-01
      0.1445917850D+01  0.1898400060D+00
      0.6044212998D+00  0.4049863191D+00
      0.2763825918D+00  0.4012362861D+00
      0.1306639377D+00  0.1051855189D+00
 ****
     17 0
 S   6 1.00       0.000000000000
      0.3326836535D+02  0.9163596281D-02
      0.6099718369D+01  0.4936149294D-01
      0.1706481387D+01  0.1685383049D+00
      0.5862224134D+00  0.3705627997D+00
      0.2276473177D+00  0.4164915298D+00
      0.9375773694D-01  0.1303340841D+00
 ****
     18 0
 S   6 1.00       0.000000000000
      0.3326836535D+02  0.9163596281D-02
      0.6099718369D+01  0.4936149294D-01
      0.1706481387D+01  0.1685383049D+00
      0.5862224134D+00  0.3705627997D+00
      0.2276473177D+00  0.4164915298D+00
      0.9375773694D-01  0.1303340841D+00
 ****
     19 0
 S   6 1.00       0.000000000000
      0.3326836535D+02  0.9163596281D-02
      0.6099718369D+01  0.4936149294D-01
      0.1706481387D+01  0.1685383049D+00
      0.5862224134D+00  0.3705627997D+00
      0.2276473177D+00  0.4164915298D+00
      0.9375773694D-01  0.1303340841D+00
 ****
     20 0
 S   6 1.00       0.000000000000
      0.3326836535D+02  0.9163596281D-02
      0.6099718369D+01  0.4936149294D-01
      0.1706481387D+01  0.1685383049D+00
      0.5862224134D+00  0.3705627997D+00
      0.2276473177D+00  0.4164915298D+00
      0.9375773694D-01  0.1303340841D+00
 ****
     21 0
 S   6 1.00       0.000000000000
      0.3326836535D+02  0.9163596281D-02
      0.6099718369D+01  0.4936149294D-01
      0.1706481387D+01  0.1685383049D+00
      0.5862224134D+00  0.3705627997D+00
      0.2276473177D+00  0.4164915298D+00
      0.9375773694D-01  0.1303340841D+00
 ****
     22 0
 S   6 1.00       0.000000000000
      0.3326836535D+02  0.9163596281D-02
      0.6099718369D+01  0.4936149294D-01
      0.1706481387D+01  0.1685383049D+00
      0.5862224134D+00  0.3705627997D+00
      0.2276473177D+00  0.4164915298D+00
      0.9375773694D-01  0.1303340841D+00
 ****
     23 0
 S   6 1.00       0.000000000000
      0.1432869836D+03 -0.4151277819D-02
      0.2627737596D+02 -0.2067024148D-01
      0.7384509550D+01 -0.5150303337D-01
      0.1056001261D+01  0.3346271174D+00
      0.4792783190D+00  0.5621061301D+00
      0.2285651220D+00  0.1712994697D+00
 P   6 1.00       0.000000000000
      0.3037204728D+02  0.7924233646D-02
      0.7920412296D+01  0.5144104825D-01
      0.2833998986D+01  0.1898400060D+00
      0.1184665748D+01  0.4049863191D+00
      0.5417098800D+00  0.4012362861D+00
      0.2561013179D+00  0.1051855189D+00
 ****
     24 0
 S   6 1.00       0.000000000000
      0.3326836535D+02  0.9163596281D-02
      0.6099718369D+01  0.4936149294D-01
      0.1706481387D+01  0.1685383049D+00
      0.5862224134D+00  0.3705627997D+00
      0.2276473177D+00  0.4164915298D+00
      0.9375773694D-01  0.1303340841D+00
 ****
     25 0
 S   6 1.00       0.000000000000
      0.1432869836D+03 -0.4151277819D-02
      0.2627737596D+02 -0.2067024148D-01
      0.7384509550D+01 -0.5150303337D-01
      0.1056001261D+01  0.3346271174D+00
      0.4792783190D+00  0.5621061301D+00
      0.2285651220D+00  0.1712994697D+00
 P   6 1.00       0.000000000000
      0.3037204728D+02  0.7924233646D-02
      0.7920412296D+01  0.5144104825D-01
      0.2833998986D+01  0.1898400060D+00
      0.1184665748D+01  0.4049863191D+00
      0.5417098800D+00  0.4012362861D+00
      0.2561013179D+00  0.1051855189D+00
 ****
     26 0
 S   6 1.00       0.000000000000
      0.3326836535D+02  0.9163596281D-02
      0.6099718369D+01  0.4936149294D-01
      0.1706481387D+01  0.1685383049D+00
      0.5862224134D+00  0.3705627997D+00
      0.2276473177D+00  0.4164915298D+00
      0.9375773694D-01  0.1303340841D+00
 ****

 There are    80 symmetry adapted cartesian basis functions of A   symmetry.
 There are    80 symmetry adapted basis functions of A   symmetry.
    80 basis functions,   480 primitive gaussians,    80 cartesian basis functions
    44 alpha electrons       44 beta electrons
       nuclear repulsion energy       599.0665758812 Hartrees.
 Integral buffers will be    131072 words long.
 Regular integral format.
 Two-electron integral symmetry is turned off.
 Do NDO integrals.
 One-electron integrals computed using PRISM.
 Generate ZINDO/S integrals.
 NDO Nuclear repulsion=   463.605829669829 Hartrees.
 NBasis=    80 RedAO= F EigKep=  0.00D+00  NBF=    80
 NBsUse=    80 1.00D-04 EigRej=  0.00D+00 NBFU=    80
 DipDrv:  will hold  3 matrices at once.
 Simple Huckel Guess.
 Overlap will be assumed to be unity.
 Requested convergence on RMS density matrix=1.00D-08 within 128 cycles.
 Requested convergence on MAX density matrix=1.00D-06.
 Requested convergence on             energy=1.00D-06.
 No special actions if energy rises.
 SCF Done:  E(RZINDO/S) =  -132.231494558     A.U. after   14 cycles
            NFock= 14  Conv=0.33D-08     -V/T= 0.8821
 Range of M.O.s used for correlation:     1    80
 NBasis=    80 NAE=    44 NBE=    44 NFC=     0 NFV=     0
 NROrb=     80 NOA=    44 NOB=    44 NVA=    36 NVB=    36
 Orbital symmetries:
       Occupied  (A) (A) (A) (A) (A) (A) (A) (A) (A) (A) (A) (A)
                 (A) (A) (A) (A) (A) (A) (A) (A) (A) (A) (A) (A)
                 (A) (A) (A) (A) (A) (A) (A) (A) (A) (A) (A) (A)
                 (A) (A) (A) (A) (A) (A) (A) (A)
       Virtual   (A) (A) (A) (A) (A) (A) (A) (A) (A) (A) (A) (A)
                 (A) (A) (A) (A) (A) (A) (A) (A) (A) (A) (A) (A)
                 (A) (A) (A) (A) (A) (A) (A) (A) (A) (A) (A) (A)
    40 initial guesses have been made.
 Convergence on wavefunction:    0.001000000000000
 Iteration     1 Dimension    40 NMult     0 NNew     40
 CISAX will form    40 AO SS matrices at one time.
 New state      1 was old state      5
 New state      2 was old state      7
 New state      3 was old state      1
 New state      4 was old state      2
 New state      5 was old state      3
 New state      6 was old state      4
 New state      7 was old state      6
 New state      8 was old state     12
 New state      9 was old state      8
 New state     10 was old state     11
 Iteration     2 Dimension    80 NMult    40 NNew     40
 Iteration     3 Dimension    90 NMult    80 NNew     10
 New state      8 was old state      9
 New state      9 was old state      8
 Iteration     4 Dimension   100 NMult    90 NNew     10
 Iteration     5 Dimension   110 NMult   100 NNew     10
 Iteration     6 Dimension   114 NMult   110 NNew      4
 ***********************************************************************
 Excited states from <AA,BB:AA,BB> singles matrix:
 ***********************************************************************
 
 Ground to excited state transition densities written to RWF  633
 Ground to excited state transition electric dipole moments (Au):
       state          X           Y           Z        Dip. S.      Osc.
         1         0.0003      0.0001     -0.0017      0.0000      0.0000
         2         0.0003      0.0001     -0.0000      0.0000      0.0000
         3        -0.0000     -0.7307      0.0001      0.5339      0.0460
         4        -0.8199      0.0000     -0.0002      0.6722      0.0641
         5        -1.0647     -0.0000      0.0008      1.1335      0.1132
         6         0.0000      1.9463      0.0001      3.7880      0.4085
         7         2.9001     -0.0000      0.0007      8.4106      0.9745
         8         0.0000     -0.3311     -0.0000      0.1096      0.0138
         9         1.6135      0.0000     -0.0011      2.6034      0.3285
        10        -0.0000      0.6199      0.0001      0.3842      0.0512
 Ground to excited state transition velocity dipole moments (Au):
       state          X           Y           Z        Dip. S.      Osc.
         1        -0.0000     -0.0000      0.0007      0.0000      0.0000
         2        -0.0000     -0.0000     -0.0000      0.0000      0.0000
         3         0.0000      0.0238     -0.0000      0.0006      0.0029
         4         0.0703     -0.0000      0.0000      0.0049      0.0231
         5         0.0914      0.0000     -0.0001      0.0083      0.0372
         6        -0.0000     -0.0912     -0.0000      0.0083      0.0343
         7        -0.3037      0.0000     -0.0000      0.0922      0.3538
         8        -0.0000      0.0017      0.0000      0.0000      0.0000
         9        -0.1924     -0.0000      0.0001      0.0370      0.1303
        10         0.0000     -0.0428     -0.0000      0.0018      0.0061
 Ground to excited state transition magnetic dipole moments (Au):
       state          X           Y           Z
         1         0.0000      0.9911      0.0001
         2        -0.0060     -0.0000      0.0007
         3         0.0001      0.0000      1.1642
         4         0.0000     -0.0001      0.0000
         5        -0.0000      0.0001     -0.0000
         6         0.0000     -0.0001      0.5554
         7        -0.0000      0.0002     -0.0000
         8         0.0001      0.0001      0.2446
         9        -0.0000      0.0003      0.0000
        10         0.0001      0.0001      0.9728
 Ground to excited state transition velocity quadrupole moments (Au):
       state          XX          YY          ZZ          XY          XZ          YZ
         1        -0.0000      0.0001     -0.0000     -0.0000     -0.0191      0.0000
         2        -0.0000     -0.0002      0.0000      0.0000      0.0000     -0.0014
         3        -0.0000      0.0000     -0.0000      0.2418     -0.0001     -0.0000
         4        -0.1030      0.0302      0.0062     -0.0000      0.0001     -0.0001
         5        -0.6024      0.0484     -0.0174     -0.0000      0.0002      0.0000
         6        -0.0000      0.0000     -0.0000      0.0501      0.0000      0.0003
         7        -0.5605      0.1551     -0.0123     -0.0000     -0.0001      0.0000
         8         0.0000      0.0000      0.0000     -0.1396      0.0000     -0.0001
         9         1.6866     -0.2913      0.0366      0.0000     -0.0003     -0.0000
        10        -0.0000      0.0000     -0.0000      0.7946     -0.0001      0.0000
 <0|del|b> * <b|rxdel|0> + <0|del|b> * <b|delr+rdel|0>
 Rotatory Strengths (R) in cgs (10**-40 erg-esu-cm/Gauss)
       state          XX          YY          ZZ    R(velocity)    E-M Angle
         1        -0.0014      0.0004     -0.0016     -0.0009       90.00
         2        -0.0000      0.0012      0.0007      0.0006       90.00
         3        -0.0420     -0.0306     -0.0036     -0.0254       90.00
         4         0.0000     -0.0100      0.0119      0.0006       90.00
         5         0.0000      0.0071     -0.0138     -0.0022       90.00
         6         0.0150     -0.0097      0.0164      0.0072       90.00
         7         0.0000     -0.0065      0.0530      0.0155       90.00
         8         0.0003      0.0004      0.0005      0.0004       90.00
         9         0.0000      0.0177     -0.0153      0.0008       90.00
        10        -0.0361     -0.0024     -0.0006     -0.0130       90.00
 1/2[<0|r|b>*<b|rxdel|0> + (<0|rxdel|b>*<b|r|0>)*]
 Rotatory Strengths (R) in cgs (10**-40 erg-esu-cm/Gauss)
       state          XX          YY          ZZ     R(length)
         1        -0.0000     -0.0462      0.0002     -0.0154
         2         0.0013      0.0000      0.0000      0.0004
         3         0.0000      0.0044     -0.0742     -0.0233
         4         0.0031      0.0000      0.0000      0.0010
         5        -0.0116      0.0000      0.0000     -0.0039
         6        -0.0000      0.1488     -0.0458      0.0343
         7         0.0771      0.0000      0.0000      0.0257
         8        -0.0000      0.0234      0.0024      0.0086
         9         0.0038     -0.0000      0.0000      0.0013
        10         0.0000     -0.0382     -0.0702     -0.0361
  1/2[<0|del|b>*<b|r|0> + (<0|r|b>*<b|del|0>)*] (Au)
       state          X           Y           Z        Dip. S.   Osc.(frdel)
         1        -0.0000     -0.0000     -0.0000      0.0000      0.0000
         2        -0.0000     -0.0000      0.0000      0.0000      0.0000
         3        -0.0000     -0.0174     -0.0000      0.0174      0.0116
         4        -0.0577     -0.0000     -0.0000      0.0577      0.0384
         5        -0.0973     -0.0000     -0.0000      0.0973      0.0648
         6        -0.0000     -0.1775     -0.0000      0.1775      0.1183
         7        -0.8807     -0.0000     -0.0000      0.8807      0.5871
         8        -0.0000     -0.0006     -0.0000      0.0006      0.0004
         9        -0.3104     -0.0000     -0.0000      0.3104      0.2069
        10        -0.0000     -0.0265     -0.0000      0.0265      0.0177

 Excitation energies and oscillator strengths:
 
 Excited State   1:      Singlet-A      2.6310 eV  471.24 nm  f=0.0000  <S**2>=0.000
      39 -> 46        -0.27611
      39 -> 49         0.22535
      40 -> 45         0.57736
      40 -> 50         0.15868
 This state for optimization and/or second-order correction.
 Total Energy, E(CIS) =  -132.134806483    
 Copying the excited state density for this state as the 1-particle RhoCI density.
 
 Excited State   2:      Singlet-A      2.6918 eV  460.60 nm  f=0.0000  <S**2>=0.000
      39 -> 45         0.56453
      39 -> 50         0.16603
      40 -> 46        -0.29212
      40 -> 49         0.23124
 
 Excited State   3:      Singlet-A      3.5164 eV  352.59 nm  f=0.0460  <S**2>=0.000
      41 -> 45         0.20444
      44 -> 45         0.64798
 
 Excited State   4:      Singlet-A      3.8897 eV  318.75 nm  f=0.0641  <S**2>=0.000
      42 -> 47         0.10562
      43 -> 45         0.55530
      43 -> 47        -0.17058
      44 -> 46         0.30228
      44 -> 48        -0.20814
 
 Excited State   5:      Singlet-A      4.0745 eV  304.29 nm  f=0.1132  <S**2>=0.000
      41 -> 46         0.16183
      41 -> 48         0.15982
      42 -> 45         0.60458
      42 -> 47         0.17061
      43 -> 47         0.11653
      44 -> 48         0.13415
 
 Excited State   6:      Singlet-A      4.4014 eV  281.70 nm  f=0.4085  <S**2>=0.000
      41 -> 45         0.61954
      42 -> 46        -0.16942
      43 -> 48        -0.11736
      44 -> 45        -0.18377
 
 Excited State   7:      Singlet-A      4.7295 eV  262.15 nm  f=0.9745  <S**2>=0.000
      42 -> 45         0.11152
      43 -> 45        -0.39178
      44 -> 46         0.49576
      44 -> 48        -0.23184
 
 Excited State   8:      Singlet-A      5.1450 eV  240.98 nm  f=0.0138  <S**2>=0.000
      42 -> 48         0.10438
      43 -> 46         0.38291
      43 -> 48        -0.21617
      44 -> 45         0.15937
      44 -> 47         0.43792
      44 -> 50         0.20821
 
 Excited State   9:      Singlet-A      5.1504 eV  240.73 nm  f=0.3285  <S**2>=0.000
      41 -> 46         0.44800
      41 -> 48         0.28317
      42 -> 45        -0.30896
      42 -> 47         0.17136
      42 -> 50        -0.16652
      43 -> 47         0.14167
      44 -> 48         0.16207
 
 Excited State  10:      Singlet-A      5.4378 eV  228.00 nm  f=0.0512  <S**2>=0.000
      41 -> 45         0.18743
      41 -> 47        -0.19217
      41 -> 50         0.10164
      42 -> 46         0.40133
      42 -> 48         0.32415
      43 -> 46         0.29307
      44 -> 47        -0.20583
 SavETr:  write IOETrn=   770 NScale= 10 NData=  16 NLR=1 NState=   10 LETran=     190.

 **********************************************************************

            Population analysis using the SCF density.

 **********************************************************************

 Orbital symmetries:
       Occupied  (A) (A) (A) (A) (A) (A) (A) (A) (A) (A) (A) (A)
                 (A) (A) (A) (A) (A) (A) (A) (A) (A) (A) (A) (A)
                 (A) (A) (A) (A) (A) (A) (A) (A) (A) (A) (A) (A)
                 (A) (A) (A) (A) (A) (A) (A) (A)
       Virtual   (A) (A) (A) (A) (A) (A) (A) (A) (A) (A) (A) (A)
                 (A) (A) (A) (A) (A) (A) (A) (A) (A) (A) (A) (A)
                 (A) (A) (A) (A) (A) (A) (A) (A) (A) (A) (A) (A)
 The electronic state is 1-A.
 Alpha  occ. eigenvalues --   -1.73775  -1.68758  -1.60043  -1.58438  -1.57828
 Alpha  occ. eigenvalues --   -1.49669  -1.34634  -1.24937  -1.17377  -1.16488
 Alpha  occ. eigenvalues --   -1.03139  -0.99825  -0.93586  -0.93028  -0.91238
 Alpha  occ. eigenvalues --   -0.86346  -0.77458  -0.73017  -0.70951  -0.68596
 Alpha  occ. eigenvalues --   -0.67161  -0.60829  -0.60048  -0.59863  -0.58632
 Alpha  occ. eigenvalues --   -0.58226  -0.57827  -0.57684  -0.55981  -0.51020
 Alpha  occ. eigenvalues --   -0.51014  -0.50897  -0.49688  -0.49026  -0.47845
 Alpha  occ. eigenvalues --   -0.47045  -0.46696  -0.43500  -0.37767  -0.36870
 Alpha  occ. eigenvalues --   -0.35388  -0.35242  -0.34879  -0.32505
 Alpha virt. eigenvalues --   -0.06534  -0.01774   0.00202   0.00650   0.04716
 Alpha virt. eigenvalues --    0.04869   0.05806   0.08210   0.08792   0.09403
 Alpha virt. eigenvalues --    0.10050   0.10747   0.11286   0.12346   0.12932
 Alpha virt. eigenvalues --    0.17981   0.17990   0.19741   0.19827   0.22635
 Alpha virt. eigenvalues --    0.24093   0.24887   0.24895   0.29413   0.29443
 Alpha virt. eigenvalues --    0.34214   0.34685   0.37789   0.40594   0.41183
 Alpha virt. eigenvalues --    0.42418   0.42616   0.44444   0.45896   0.49304
 Alpha virt. eigenvalues --    0.49615
     Molecular Orbital Coefficients:
                           1         2         3         4         5
                           O         O         O         O         O
     Eigenvalues --    -1.73775  -1.68758  -1.60043  -1.58438  -1.57828
   1 1   C  1S          0.22474  -0.22840   0.32488  -0.15748  -0.16392
   2        2PX         0.01227   0.03319   0.00369  -0.08113   0.00673
   3        2PY         0.00293   0.00962  -0.15771   0.05013   0.08292
   4        2PZ        -0.00000   0.00001  -0.00009   0.00005   0.00005
   5 2   C  1S          0.19893  -0.29320   0.10981   0.17363  -0.05996
   6        2PX         0.01810   0.01776   0.03072  -0.15165  -0.01546
   7        2PY         0.01907  -0.03171  -0.08801   0.06015   0.04817
   8        2PZ        -0.00001  -0.00000  -0.00003   0.00007   0.00002
   9 3   C  1S          0.27516  -0.09269   0.12079  -0.25447  -0.03622
  10        2PX         0.01863   0.07736  -0.02394  -0.02764   0.03080
  11        2PY         0.03146   0.00387  -0.09575  -0.01743   0.03247
  12        2PZ        -0.00000   0.00002  -0.00002   0.00001   0.00002
  13 4   O  1S          0.16062  -0.17987   0.41713  -0.17823  -0.21605
  14        2PX         0.00288   0.00776   0.00146  -0.01888   0.00344
  15        2PY         0.06552  -0.07287   0.15690  -0.06809  -0.08114
  16        2PZ         0.00005  -0.00005   0.00012  -0.00005  -0.00006
  17 5   C  1S          0.22474  -0.22840  -0.32488  -0.15748   0.16392
  18        2PX         0.01227   0.03319  -0.00369  -0.08113  -0.00673
  19        2PY        -0.00293  -0.00962  -0.15771  -0.05013   0.08292
  20        2PZ        -0.00000   0.00001   0.00006   0.00004  -0.00003
  21 6   C  1S          0.27516  -0.09269  -0.12079  -0.25447   0.03622
  22        2PX         0.01863   0.07736   0.02394  -0.02764  -0.03080
  23        2PY        -0.03146  -0.00387  -0.09575   0.01743   0.03247
  24        2PZ         0.00001   0.00001   0.00001  -0.00000  -0.00001
  25 7   O  1S          0.16062  -0.17987  -0.41713  -0.17823   0.21605
  26        2PX         0.00288   0.00776  -0.00146  -0.01888  -0.00344
  27        2PY        -0.06552   0.07287   0.15690   0.06809  -0.08114
  28        2PZ         0.00003  -0.00003  -0.00008  -0.00003   0.00004
  29 8   C  1S          0.19893  -0.29320  -0.10981   0.17363   0.05996
  30        2PX         0.01810   0.01776  -0.03072  -0.15165   0.01546
  31        2PY        -0.01907   0.03171  -0.08801  -0.06015   0.04817
  32        2PZ        -0.00000  -0.00001   0.00002   0.00006  -0.00001
  33 9   C  1S          0.11612  -0.21220   0.08313   0.26010  -0.04697
  34        2PX         0.02616  -0.03142   0.04504  -0.02857  -0.02479
  35        2PY         0.03864  -0.07610  -0.00821   0.12246   0.00446
  36        2PZ        -0.00001   0.00002  -0.00003   0.00001   0.00002
  37 10  C  1S          0.23886   0.06089  -0.14036  -0.15037  -0.08003
  38        2PX         0.00912   0.07860   0.01320   0.07584  -0.09798
  39        2PY        -0.07470  -0.01975  -0.01010   0.05986   0.00032
  40        2PZ         0.00002   0.00002   0.00000   0.00001  -0.00002
  41 11  C  1S          0.11612  -0.21220  -0.08313   0.26010   0.04697
  42        2PX         0.02616  -0.03142  -0.04504  -0.02857   0.02479
  43        2PY        -0.03864   0.07610  -0.00821  -0.12246   0.00446
  44        2PZ        -0.00001   0.00001   0.00002   0.00002  -0.00001
  45 12  C  1S          0.23886   0.06089   0.14036  -0.15037   0.08003
  46        2PX         0.00912   0.07860  -0.01320   0.07584   0.09798
  47        2PY         0.07470   0.01975  -0.01010  -0.05986   0.00032
  48        2PZ        -0.00001   0.00002  -0.00001   0.00004   0.00004
  49 13  C  1S          0.08375  -0.17340   0.01579   0.30125  -0.00926
  50        2PX         0.03623  -0.07046   0.01051   0.10166  -0.00608
  51        2PY         0.01665  -0.03536  -0.01055   0.06622   0.00621
  52        2PZ        -0.00002   0.00003  -0.00001  -0.00005   0.00000
  53 14  C  1S          0.08375  -0.17340  -0.01579   0.30125   0.00926
  54        2PX         0.03623  -0.07046  -0.01051   0.10166   0.00608
  55        2PY        -0.01665   0.03536  -0.01055  -0.06622   0.00621
  56        2PZ        -0.00002   0.00003   0.00000  -0.00005  -0.00000
  57 15  C  1S          0.32050   0.25073   0.11267   0.02249   0.20725
  58        2PX         0.01502   0.08894   0.03576   0.13855   0.10796
  59        2PY         0.01731  -0.00434  -0.08482  -0.03513  -0.15948
  60        2PZ         0.00000   0.00003   0.00002   0.00005   0.00006
  61 16  C  1S          0.32050   0.25073  -0.11267   0.02249  -0.20725
  62        2PX         0.01502   0.08894  -0.03576   0.13855  -0.10796
  63        2PY        -0.01731   0.00434  -0.08482   0.03513  -0.15948
  64        2PZ         0.00001   0.00002   0.00000   0.00003  -0.00000
  65 17  H  1S          0.03770  -0.06487   0.04951   0.05916  -0.02769
  66 18  H  1S          0.07855   0.01722  -0.07866  -0.04351  -0.03618
  67 19  H  1S          0.03770  -0.06487  -0.04951   0.05915   0.02769
  68 20  H  1S          0.07855   0.01722   0.07866  -0.04351   0.03618
  69 21  H  1S          0.02005  -0.04319   0.00559   0.08229  -0.00332
  70 22  H  1S          0.02005  -0.04319  -0.00559   0.08229   0.00332
  71 23  O  1S          0.28634   0.32502   0.22642   0.20902   0.48583
  72        2PX        -0.08447  -0.09168  -0.05963  -0.05124  -0.12484
  73        2PY         0.00899   0.00944  -0.02120   0.00305  -0.04309
  74        2PZ        -0.00005  -0.00005  -0.00003  -0.00003  -0.00007
  75 24  H  1S          0.12036   0.13180   0.10637   0.08035   0.22105
  76 25  O  1S          0.28634   0.32502  -0.22642   0.20902  -0.48583
  77        2PX        -0.08447  -0.09168   0.05963  -0.05124   0.12484
  78        2PY        -0.00899  -0.00944  -0.02120  -0.00305  -0.04309
  79        2PZ        -0.00003  -0.00004   0.00003  -0.00002   0.00006
  80 26  H  1S          0.12036   0.13180  -0.10637   0.08035  -0.22105
                           6         7         8         9        10
                           O         O         O         O         O
     Eigenvalues --    -1.49669  -1.34634  -1.24937  -1.17377  -1.16488
   1 1   C  1S          0.17130   0.12689  -0.00670  -0.02276   0.07215
   2        2PX        -0.04522  -0.04357  -0.18359  -0.07668   0.18628
   3        2PY        -0.20164   0.28115   0.02787  -0.14898   0.07190
   4        2PZ        -0.00014   0.00016   0.00004  -0.00017   0.00002
   5 2   C  1S         -0.01801   0.26928   0.21535  -0.08171  -0.23278
   6        2PX         0.04538   0.16710  -0.07796   0.04908   0.09878
   7        2PY        -0.07863   0.10887  -0.15673   0.04772   0.00251
   8        2PZ        -0.00005  -0.00005   0.00003  -0.00005  -0.00001
   9 3   C  1S         -0.23324   0.10738  -0.16098  -0.22214   0.23006
  10        2PX        -0.12288  -0.20355  -0.04060  -0.07783  -0.12839
  11        2PY        -0.11699   0.08505   0.12240   0.15375   0.01717
  12        2PZ        -0.00005  -0.00003  -0.00000  -0.00006  -0.00006
  13 4   O  1S          0.37157  -0.23894  -0.04922   0.23287  -0.02964
  14        2PX        -0.01122  -0.01170  -0.07682  -0.03241   0.06287
  15        2PY         0.12791  -0.05592  -0.01179   0.03790   0.00051
  16        2PZ         0.00010  -0.00005   0.00000   0.00000  -0.00001
  17 5   C  1S          0.17130   0.12689   0.00670   0.02276   0.07215
  18        2PX        -0.04522  -0.04357   0.18359   0.07668   0.18628
  19        2PY         0.20164  -0.28115   0.02787  -0.14898  -0.07190
  20        2PZ        -0.00009   0.00009  -0.00004   0.00009  -0.00001
  21 6   C  1S         -0.23324   0.10738   0.16098   0.22214   0.23006
  22        2PX        -0.12288  -0.20355   0.04060   0.07783  -0.12839
  23        2PY         0.11699  -0.08505   0.12240   0.15375  -0.01717
  24        2PZ        -0.00005  -0.00001  -0.00001   0.00001  -0.00004
  25 7   O  1S          0.37157  -0.23894   0.04922  -0.23287  -0.02964
  26        2PX        -0.01122  -0.01170   0.07682   0.03241   0.06287
  27        2PY        -0.12791   0.05592  -0.01179   0.03790  -0.00051
  28        2PZ         0.00006  -0.00003  -0.00001  -0.00001  -0.00001
  29 8   C  1S         -0.01801   0.26928  -0.21535   0.08171  -0.23278
  30        2PX         0.04538   0.16710   0.07796  -0.04908   0.09878
  31        2PY         0.07863  -0.10887  -0.15673   0.04772  -0.00251
  32        2PZ        -0.00004  -0.00005  -0.00003   0.00004  -0.00002
  33 9   C  1S         -0.04559  -0.09154   0.39598  -0.23135  -0.09576
  34        2PX         0.04519   0.10574   0.02531   0.04695  -0.18704
  35        2PY        -0.05533  -0.01598  -0.00414  -0.00658  -0.00482
  36        2PZ        -0.00003  -0.00004  -0.00002  -0.00003   0.00010
  37 10  C  1S         -0.19832  -0.15350   0.22330   0.36810  -0.05064
  38        2PX         0.01894  -0.01959  -0.06797  -0.05433  -0.13190
  39        2PY         0.13294   0.04763   0.00491  -0.00411   0.07479
  40        2PZ        -0.00002  -0.00001  -0.00002  -0.00001  -0.00005
  41 11  C  1S         -0.04559  -0.09154  -0.39598   0.23135  -0.09576
  42        2PX         0.04519   0.10574  -0.02531  -0.04695  -0.18704
  43        2PY         0.05533   0.01598  -0.00414  -0.00658   0.00482
  44        2PZ        -0.00003  -0.00004   0.00001   0.00003   0.00009
  45 12  C  1S         -0.19832  -0.15350  -0.22330  -0.36810  -0.05064
  46        2PX         0.01894  -0.01959   0.06797   0.05434  -0.13190
  47        2PY        -0.13294  -0.04763   0.00491  -0.00411  -0.07479
  48        2PZ         0.00002   0.00001   0.00003   0.00002  -0.00004
  49 13  C  1S         -0.11266  -0.25144   0.18340  -0.14912   0.31254
  50        2PX        -0.02948  -0.01620   0.07626  -0.04921  -0.10033
  51        2PY        -0.03031  -0.04851  -0.12816   0.10415   0.08721
  52        2PZ         0.00001   0.00001  -0.00004   0.00002   0.00005
  53 14  C  1S         -0.11266  -0.25144  -0.18340   0.14912   0.31254
  54        2PX        -0.02948  -0.01620  -0.07626   0.04921  -0.10033
  55        2PY         0.03031   0.04851  -0.12816   0.10415  -0.08721
  56        2PZ         0.00001   0.00001   0.00004  -0.00002   0.00005
  57 15  C  1S         -0.09068  -0.10895  -0.03977  -0.09358  -0.21600
  58        2PX         0.19033   0.12221   0.07143   0.13149   0.10346
  59        2PY        -0.07197  -0.04598   0.02525   0.06156  -0.11261
  60        2PZ         0.00007   0.00005   0.00002   0.00004   0.00005
  61 16  C  1S         -0.09068  -0.10895   0.03977   0.09358  -0.21600
  62        2PX         0.19033   0.12221  -0.07143  -0.13149   0.10346
  63        2PY         0.07197   0.04598   0.02525   0.06156   0.11261
  64        2PZ         0.00004   0.00003  -0.00002  -0.00004   0.00001
  65 17  H  1S          0.01250  -0.03905   0.18907  -0.10007  -0.04602
  66 18  H  1S         -0.01990  -0.05211   0.10993   0.16652   0.01971
  67 19  H  1S          0.01250  -0.03905  -0.18907   0.10007  -0.04602
  68 20  H  1S         -0.01990  -0.05211  -0.10993  -0.16652   0.01971
  69 21  H  1S         -0.03288  -0.09923   0.08650  -0.07677   0.17308
  70 22  H  1S         -0.03288  -0.09923  -0.08650   0.07677   0.17308
  71 23  O  1S          0.20744   0.11478   0.07943   0.13773   0.13516
  72        2PX        -0.04143  -0.01125  -0.00234   0.00997   0.01684
  73        2PY        -0.00543  -0.00837  -0.00528  -0.01213  -0.06292
  74        2PZ        -0.00003  -0.00001  -0.00000  -0.00000  -0.00000
  75 24  H  1S          0.08112   0.04320   0.02514   0.04303   0.07957
  76 25  O  1S          0.20744   0.11478  -0.07943  -0.13773   0.13516
  77        2PX        -0.04143  -0.01125   0.00234  -0.00997   0.01684
  78        2PY         0.00543   0.00837  -0.00528  -0.01213   0.06292
  79        2PZ        -0.00002  -0.00001   0.00001   0.00001  -0.00002
  80 26  H  1S          0.08112   0.04320  -0.02514  -0.04303   0.07957
                          11        12        13        14        15
                           O         O         O         O         O
     Eigenvalues --    -1.03139  -0.99825  -0.93586  -0.93028  -0.91238
   1 1   C  1S          0.08715   0.19723   0.16655  -0.03671  -0.07949
   2        2PX        -0.05559  -0.14391   0.19664   0.03372   0.21304
   3        2PY         0.04864   0.19145   0.12657  -0.02036  -0.07494
   4        2PZ        -0.00002   0.00021   0.00011   0.00002  -0.00009
   5 2   C  1S         -0.03023   0.26694  -0.03408  -0.14793  -0.01241
   6        2PX         0.16251   0.08137   0.05249  -0.09346  -0.21471
   7        2PY        -0.01449  -0.18696   0.03481  -0.20888   0.19156
   8        2PZ        -0.00008  -0.00003   0.00001   0.00006   0.00012
   9 3   C  1S         -0.04146   0.06523   0.21221   0.19449   0.11770
  10        2PX        -0.11487  -0.05566  -0.12651   0.03681  -0.00050
  11        2PY         0.08842  -0.03453  -0.15173   0.15624  -0.02771
  12        2PZ        -0.00004   0.00002  -0.00006  -0.00001  -0.00006
  13 4   O  1S          0.03001  -0.22622  -0.13757  -0.02249   0.08756
  14        2PX        -0.03531  -0.06193   0.08702  -0.04268   0.11277
  15        2PY         0.01081   0.02486   0.03479  -0.00189  -0.01474
  16        2PZ        -0.00002   0.00004   0.00002   0.00002  -0.00004
  17 5   C  1S          0.08715  -0.19723  -0.16655  -0.03671  -0.07949
  18        2PX        -0.05559   0.14391  -0.19664   0.03372   0.21304
  19        2PY        -0.04864   0.19145   0.12657   0.02036   0.07494
  20        2PZ        -0.00001  -0.00014  -0.00005   0.00002  -0.00007
  21 6   C  1S         -0.04146  -0.06523  -0.21221   0.19449   0.11770
  22        2PX        -0.11487   0.05566   0.12651   0.03681  -0.00050
  23        2PY        -0.08842  -0.03453  -0.15173  -0.15624   0.02771
  24        2PZ        -0.00001  -0.00002   0.00001   0.00001  -0.00004
  25 7   O  1S          0.03001   0.22622   0.13757  -0.02249   0.08756
  26        2PX        -0.03531   0.06193  -0.08702  -0.04268   0.11277
  27        2PY        -0.01081   0.02486   0.03479   0.00189   0.01474
  28        2PZ        -0.00001  -0.00003  -0.00001   0.00002  -0.00003
  29 8   C  1S         -0.03023  -0.26694   0.03408  -0.14793  -0.01241
  30        2PX         0.16251  -0.08137  -0.05249  -0.09346  -0.21471
  31        2PY         0.01449  -0.18696   0.03481   0.20888  -0.19156
  32        2PZ        -0.00007   0.00001  -0.00000   0.00006   0.00010
  33 9   C  1S         -0.09771  -0.07177  -0.00541   0.28626  -0.06673
  34        2PX        -0.05899   0.28689  -0.10708  -0.02444  -0.00693
  35        2PY        -0.04566   0.00598   0.01448  -0.16603   0.25273
  36        2PZ         0.00003  -0.00013   0.00007   0.00001   0.00001
  37 10  C  1S         -0.20369   0.00542   0.19552  -0.16003  -0.08499
  38        2PX         0.07275   0.00841   0.26356  -0.13300  -0.16084
  39        2PY        -0.10356   0.01418   0.00448  -0.11956  -0.00407
  40        2PZ         0.00004  -0.00001   0.00006  -0.00002  -0.00005
  41 11  C  1S         -0.09771   0.07177   0.00541   0.28626  -0.06673
  42        2PX        -0.05899  -0.28689   0.10708  -0.02444  -0.00693
  43        2PY         0.04566   0.00598   0.01448   0.16603  -0.25273
  44        2PZ         0.00003   0.00013  -0.00006   0.00001   0.00001
  45 12  C  1S         -0.20369  -0.00542  -0.19552  -0.16003  -0.08499
  46        2PX         0.07275  -0.00841  -0.26356  -0.13300  -0.16084
  47        2PY         0.10356   0.01418   0.00448   0.11956   0.00407
  48        2PZ         0.00002   0.00001  -0.00010  -0.00005  -0.00007
  49 13  C  1S          0.15198  -0.26599   0.09467  -0.10453  -0.07937
  50        2PX        -0.13186  -0.01468  -0.00508   0.11346   0.21278
  51        2PY         0.05026   0.18385  -0.06353  -0.20920   0.10538
  52        2PZ         0.00006   0.00001   0.00001  -0.00005  -0.00010
  53 14  C  1S          0.15198   0.26599  -0.09467  -0.10453  -0.07937
  54        2PX        -0.13186   0.01468   0.00508   0.11346   0.21278
  55        2PY        -0.05026   0.18385  -0.06353   0.20920  -0.10538
  56        2PZ         0.00006  -0.00001  -0.00000  -0.00006  -0.00010
  57 15  C  1S          0.26987  -0.00371  -0.21961  -0.06593   0.00294
  58        2PX         0.10925   0.00424   0.13375   0.09903   0.17276
  59        2PY         0.27029   0.00334   0.15037   0.09352   0.11713
  60        2PZ         0.00000   0.00000   0.00001   0.00002   0.00004
  61 16  C  1S          0.26987   0.00371   0.21961  -0.06593   0.00294
  62        2PX         0.10925  -0.00424  -0.13375   0.09903   0.17276
  63        2PY        -0.27029   0.00334   0.15037  -0.09352  -0.11713
  64        2PZ         0.00009  -0.00000  -0.00006   0.00004   0.00007
  65 17  H  1S         -0.02021  -0.04025  -0.01739   0.24390  -0.19022
  66 18  H  1S         -0.16502   0.01769   0.09256  -0.15345  -0.04143
  67 19  H  1S         -0.02021   0.04025   0.01739   0.24390  -0.19022
  68 20  H  1S         -0.16502  -0.01769  -0.09256  -0.15345  -0.04143
  69 21  H  1S          0.12579  -0.17930   0.06945  -0.04849  -0.18817
  70 22  H  1S          0.12579   0.17930  -0.06945  -0.04849  -0.18817
  71 23  O  1S         -0.10705   0.00675   0.19299   0.09359   0.02786
  72        2PX        -0.06426   0.00245   0.12694   0.04007  -0.01972
  73        2PY         0.25621  -0.00045  -0.07262   0.05273   0.17730
  74        2PZ        -0.00003   0.00000   0.00003   0.00001  -0.00002
  75 24  H  1S         -0.19046   0.00136   0.08474  -0.01530  -0.10421
  76 25  O  1S         -0.10705  -0.00675  -0.19299   0.09359   0.02786
  77        2PX        -0.06426  -0.00245  -0.12694   0.04007  -0.01972
  78        2PY        -0.25621  -0.00045  -0.07262  -0.05273  -0.17730
  79        2PZ         0.00005  -0.00000  -0.00001   0.00002   0.00004
  80 26  H  1S         -0.19046  -0.00136  -0.08474  -0.01530  -0.10421
                          16        17        18        19        20
                           O         O         O         O         O
     Eigenvalues --    -0.86346  -0.77458  -0.73017  -0.70951  -0.68596
   1 1   C  1S         -0.08343   0.17117   0.02806  -0.16185   0.21827
   2        2PX        -0.12605   0.02327   0.11824   0.15311   0.06565
   3        2PY        -0.07139   0.07585   0.07046  -0.05320  -0.03618
   4        2PZ        -0.00014   0.00001  -0.00014   0.00003   0.00005
   5 2   C  1S          0.05422  -0.00708  -0.11413  -0.04391  -0.06561
   6        2PX        -0.00746   0.12907   0.06557  -0.21311   0.00478
   7        2PY         0.05551   0.00882   0.12518   0.02833  -0.14797
   8        2PZ        -0.00006  -0.00007  -0.00003   0.00016   0.00002
   9 3   C  1S          0.04808   0.02484  -0.03547   0.09027  -0.07347
  10        2PX         0.13073  -0.14098  -0.24782   0.06892  -0.06798
  11        2PY         0.26031  -0.01167   0.11187  -0.06331  -0.24421
  12        2PZ         0.00001  -0.00007  -0.00017   0.00003  -0.00004
  13 4   O  1S          0.15138  -0.07955   0.12295   0.07596  -0.27303
  14        2PX        -0.08062   0.00796   0.05474   0.07263   0.04538
  15        2PY        -0.03817   0.06368  -0.08428  -0.07861   0.28370
  16        2PZ        -0.00009   0.00001  -0.00018  -0.00001   0.00024
  17 5   C  1S         -0.08343  -0.17117   0.02806   0.16185   0.21827
  18        2PX        -0.12605  -0.02327   0.11824  -0.15311   0.06565
  19        2PY         0.07139   0.07585  -0.07046  -0.05320   0.03618
  20        2PZ        -0.00006  -0.00002  -0.00010   0.00002   0.00002
  21 6   C  1S          0.04808  -0.02484  -0.03547  -0.09027  -0.07347
  22        2PX         0.13073   0.14098  -0.24782  -0.06892  -0.06798
  23        2PY        -0.26031  -0.01167  -0.11187  -0.06331   0.24421
  24        2PZ         0.00004  -0.00001  -0.00010   0.00002  -0.00003
  25 7   O  1S          0.15138   0.07955   0.12295  -0.07596  -0.27302
  26        2PX        -0.08062  -0.00796   0.05474  -0.07263   0.04538
  27        2PY         0.03817   0.06368   0.08428  -0.07861  -0.28370
  28        2PZ        -0.00004  -0.00001  -0.00011   0.00002   0.00014
  29 8   C  1S          0.05422   0.00708  -0.11413   0.04391  -0.06561
  30        2PX        -0.00746  -0.12907   0.06557   0.21311   0.00477
  31        2PY        -0.05551   0.00882  -0.12518   0.02833   0.14797
  32        2PZ        -0.00004   0.00003  -0.00002  -0.00007   0.00002
  33 9   C  1S         -0.13235  -0.08915   0.06363   0.18155   0.00970
  34        2PX         0.05916  -0.10230  -0.26204   0.10052  -0.01453
  35        2PY         0.09361   0.02735   0.03677  -0.06777   0.06557
  36        2PZ        -0.00005   0.00005   0.00013  -0.00003   0.00002
  37 10  C  1S         -0.15789   0.10325  -0.07159   0.03253  -0.04932
  38        2PX         0.02370  -0.09129   0.27651   0.18078  -0.01418
  39        2PY        -0.25151   0.06179  -0.00517   0.02603  -0.07338
  40        2PZ         0.00003  -0.00005   0.00004   0.00005   0.00001
  41 11  C  1S         -0.13235   0.08915   0.06363  -0.18155   0.00970
  42        2PX         0.05916   0.10230  -0.26204  -0.10052  -0.01453
  43        2PY        -0.09361   0.02735  -0.03677  -0.06777  -0.06557
  44        2PZ        -0.00004  -0.00006   0.00012   0.00006   0.00002
  45 12  C  1S         -0.15789  -0.10325  -0.07159  -0.03253  -0.04932
  46        2PX         0.02370   0.09129   0.27651  -0.18078  -0.01418
  47        2PY         0.25151   0.06179   0.00517   0.02603   0.07338
  48        2PZ        -0.00003   0.00003   0.00004  -0.00005  -0.00005
  49 13  C  1S          0.03883   0.10966  -0.01611  -0.17916   0.01384
  50        2PX        -0.05116  -0.05632   0.25536   0.14337   0.10712
  51        2PY         0.13548  -0.06727  -0.14355   0.10265   0.09043
  52        2PZ         0.00002   0.00003  -0.00012  -0.00006  -0.00004
  53 14  C  1S          0.03883  -0.10966  -0.01611   0.17916   0.01384
  54        2PX        -0.05116   0.05632   0.25536  -0.14337   0.10712
  55        2PY        -0.13548  -0.06727   0.14355   0.10265  -0.09043
  56        2PZ         0.00002  -0.00003  -0.00013   0.00008  -0.00004
  57 15  C  1S         -0.07918   0.19763   0.11995   0.00487   0.05738
  58        2PX        -0.15013   0.16177  -0.14385   0.18544  -0.12297
  59        2PY         0.04793  -0.11942  -0.05508   0.00768   0.22834
  60        2PZ        -0.00007   0.00011  -0.00008   0.00010  -0.00013
  61 16  C  1S         -0.07918  -0.19763   0.11995  -0.00487   0.05738
  62        2PX        -0.15013  -0.16177  -0.14385  -0.18544  -0.12297
  63        2PY        -0.04793  -0.11942   0.05508   0.00768  -0.22834
  64        2PZ        -0.00005  -0.00004  -0.00009  -0.00005  -0.00003
  65 17  H  1S         -0.12014  -0.06489   0.00677   0.13867  -0.05164
  66 18  H  1S         -0.23406   0.10353  -0.03577   0.03468  -0.08159
  67 19  H  1S         -0.12014   0.06489   0.00677  -0.13867  -0.05164
  68 20  H  1S         -0.23406  -0.10353  -0.03577  -0.03468  -0.08159
  69 21  H  1S          0.00466   0.11415  -0.11915  -0.22409  -0.10127
  70 22  H  1S          0.00466  -0.11415  -0.11915   0.22409  -0.10127
  71 23  O  1S          0.12013  -0.06476  -0.10625   0.07747   0.04765
  72        2PX         0.14785  -0.26330  -0.06453  -0.07021   0.19827
  73        2PY        -0.21730   0.34490  -0.16873   0.27479  -0.14453
  74        2PZ         0.00004  -0.00005  -0.00004   0.00002   0.00002
  75 24  H  1S          0.15192  -0.23436   0.08695  -0.16860   0.09328
  76 25  O  1S          0.12013   0.06476  -0.10625  -0.07747   0.04765
  77        2PX         0.14785   0.26330  -0.06453   0.07021   0.19827
  78        2PY         0.21730   0.34490   0.16873   0.27479   0.14453
  79        2PZ        -0.00003  -0.00004  -0.00008  -0.00007  -0.00002
  80 26  H  1S          0.15192   0.23436   0.08695   0.16860   0.09328
                          21        22        23        24        25
                           O         O         O         O         O
     Eigenvalues --    -0.67161  -0.60829  -0.60048  -0.59863  -0.58632
   1 1   C  1S         -0.06567  -0.08488  -0.08254   0.00029   0.01123
   2        2PX         0.07485  -0.09084  -0.09416   0.00016   0.15265
   3        2PY         0.02314   0.03912   0.05780  -0.00010  -0.03409
   4        2PZ        -0.00001   0.00036   0.00074   0.26169   0.00007
   5 2   C  1S          0.10852   0.16030   0.05571  -0.00045   0.05915
   6        2PX         0.06136  -0.06954   0.00799   0.00048  -0.19326
   7        2PY         0.31266  -0.08389  -0.03326   0.00000  -0.01726
   8        2PZ        -0.00002   0.00026   0.00057   0.22765   0.00034
   9 3   C  1S         -0.07729  -0.05358   0.13887  -0.00039   0.02295
  10        2PX         0.06426   0.06948   0.20823  -0.00075  -0.08860
  11        2PY        -0.19943   0.02662  -0.06159   0.00010  -0.01726
  12        2PZ         0.00003   0.00039   0.00098   0.30644   0.00012
  13 4   O  1S          0.08981   0.09480   0.13512  -0.00019  -0.00606
  14        2PX         0.11452   0.03325  -0.13051   0.00013   0.15861
  15        2PY        -0.10067  -0.13810  -0.17254   0.00002   0.05230
  16        2PZ        -0.00009   0.00013   0.00034   0.19422   0.00005
  17 5   C  1S         -0.06567   0.08488   0.08254  -0.00034  -0.01123
  18        2PX         0.07485   0.09084   0.09416  -0.00023  -0.15265
  19        2PY        -0.02314   0.03912   0.05779  -0.00036  -0.03409
  20        2PZ        -0.00002   0.00019   0.00067   0.26169   0.00036
  21 6   C  1S         -0.07729   0.05358  -0.13887   0.00028  -0.02295
  22        2PX         0.06426  -0.06948  -0.20823   0.00042   0.08860
  23        2PY         0.19943   0.02662  -0.06158   0.00025  -0.01726
  24        2PZ         0.00000   0.00030   0.00081   0.30645   0.00029
  25 7   O  1S          0.08981  -0.09480  -0.13511   0.00075   0.00606
  26        2PX         0.11452  -0.03325   0.13051  -0.00021  -0.15861
  27        2PY         0.10067  -0.13810  -0.17253   0.00114   0.05230
  28        2PZ        -0.00007   0.00023   0.00061   0.19422   0.00029
  29 8   C  1S          0.10852  -0.16030  -0.05571   0.00027  -0.05915
  30        2PX         0.06136   0.06954  -0.00799  -0.00001   0.19326
  31        2PY        -0.31266  -0.08389  -0.03326   0.00037  -0.01726
  32        2PZ        -0.00004   0.00017   0.00060   0.22765   0.00017
  33 9   C  1S         -0.00196  -0.06991  -0.05919   0.00015   0.07882
  34        2PX        -0.12902   0.08064   0.04262  -0.00019  -0.01024
  35        2PY        -0.08829   0.30139   0.06395  -0.00076   0.34388
  36        2PZ         0.00007   0.00009   0.00030   0.12908   0.00017
  37 10  C  1S          0.00927  -0.06140  -0.03106   0.00012   0.07567
  38        2PX        -0.13063   0.12467   0.08223  -0.00031  -0.10225
  39        2PY        -0.02496  -0.21513   0.39530  -0.00084   0.11665
  40        2PZ        -0.00003   0.00031   0.00062   0.24516   0.00017
  41 11  C  1S         -0.00196   0.06991   0.05919  -0.00013  -0.07882
  42        2PX        -0.12902  -0.08064  -0.04262   0.00022   0.01024
  43        2PY         0.08829   0.30139   0.06395  -0.00075   0.34388
  44        2PZ         0.00005   0.00013   0.00035   0.12908   0.00014
  45 12  C  1S          0.00927   0.06140   0.03106  -0.00006  -0.07567
  46        2PX        -0.13063  -0.12467  -0.08223   0.00019   0.10225
  47        2PY         0.02496  -0.21513   0.39530  -0.00100   0.11665
  48        2PZ        -0.00007   0.00026   0.00064   0.24516   0.00015
  49 13  C  1S         -0.02784   0.11462   0.05358  -0.00021   0.02211
  50        2PX        -0.08897  -0.03727  -0.07733   0.00026   0.22604
  51        2PY        -0.29643  -0.05287  -0.02464   0.00037  -0.01055
  52        2PZ         0.00004   0.00010   0.00026   0.08895   0.00001
  53 14  C  1S         -0.02784  -0.11462  -0.05358   0.00030  -0.02211
  54        2PX        -0.08897   0.03727   0.07733   0.00017  -0.22604
  55        2PY         0.29643  -0.05287  -0.02464  -0.00014  -0.01055
  56        2PZ         0.00003   0.00005   0.00019   0.08895   0.00022
  57 15  C  1S         -0.01037  -0.10189   0.06723  -0.00015   0.07795
  58        2PX        -0.04847   0.12306  -0.11400   0.00004  -0.06041
  59        2PY         0.23539   0.06155  -0.01900   0.00028  -0.05166
  60        2PZ        -0.00009   0.00035   0.00080   0.29702   0.00018
  61 16  C  1S         -0.01037   0.10189  -0.06723   0.00015  -0.07795
  62        2PX        -0.04847  -0.12306   0.11400  -0.00043   0.06041
  63        2PY        -0.23539   0.06155  -0.01900  -0.00011  -0.05166
  64        2PZ         0.00001   0.00024   0.00083   0.29702   0.00029
  65 17  H  1S          0.06208  -0.28545  -0.07511   0.00072  -0.26395
  66 18  H  1S         -0.00391  -0.21263   0.32304  -0.00068   0.12996
  67 19  H  1S          0.06208   0.28545   0.07511  -0.00067   0.26395
  68 20  H  1S         -0.00391   0.21263  -0.32304   0.00086  -0.12996
  69 21  H  1S          0.16488   0.10503   0.09455  -0.00043  -0.15766
  70 22  H  1S          0.16488  -0.10503  -0.09455  -0.00001   0.15766
  71 23  O  1S          0.10038   0.09716   0.07916  -0.00010  -0.11330
  72        2PX         0.23483   0.07501   0.12666  -0.00015  -0.13236
  73        2PY        -0.03270   0.17602   0.04278  -0.00018  -0.16753
  74        2PZ         0.00005   0.00033   0.00083   0.27416   0.00011
  75 24  H  1S          0.03270  -0.09818  -0.03749   0.00011   0.09680
  76 25  O  1S          0.10038  -0.09716  -0.07916   0.00036   0.11330
  77        2PX         0.23483  -0.07501  -0.12666   0.00055   0.13236
  78        2PY         0.03270   0.17602   0.04278  -0.00012  -0.16753
  79        2PZ         0.00003   0.00015   0.00067   0.27416   0.00038
  80 26  H  1S          0.03270   0.09818   0.03749  -0.00016  -0.09680
                          26        27        28        29        30
                           O         O         O         O         O
     Eigenvalues --    -0.58226  -0.57827  -0.57684  -0.55981  -0.51020
   1 1   C  1S          0.02637   0.00479  -0.05273  -0.00008  -0.09320
   2        2PX        -0.25126  -0.06314   0.08179   0.00038   0.00954
   3        2PY         0.07072  -0.30892   0.18650   0.00046  -0.08509
   4        2PZ        -0.00025  -0.00039   0.00036  -0.22220  -0.01591
   5 2   C  1S         -0.03545  -0.02651  -0.04714  -0.00008   0.03747
   6        2PX         0.26892  -0.07937  -0.07541  -0.00050  -0.12194
   7        2PY        -0.05542   0.00235  -0.15853  -0.00020  -0.02579
   8        2PZ        -0.00057  -0.00015   0.00040  -0.29057  -0.00498
   9 3   C  1S         -0.05902  -0.04368  -0.00095   0.00005   0.05831
  10        2PX         0.14075   0.17452  -0.16090  -0.00047   0.11915
  11        2PY         0.02442   0.01688  -0.01609  -0.00001  -0.03557
  12        2PZ        -0.00004  -0.00001  -0.00023  -0.06373  -0.00882
  13 4   O  1S          0.04355  -0.26144   0.16470   0.00023  -0.02193
  14        2PX        -0.16410  -0.04979   0.03547   0.00020  -0.00542
  15        2PY        -0.07614   0.46817  -0.31373  -0.00036   0.05164
  16        2PZ        -0.00029   0.00021  -0.00001  -0.19463  -0.01821
  17 5   C  1S          0.02637  -0.00479  -0.05273  -0.00011   0.09320
  18        2PX        -0.25126   0.06314   0.08179   0.00032  -0.00954
  19        2PY        -0.07072  -0.30892  -0.18651  -0.00024  -0.08507
  20        2PZ        -0.00028   0.00016   0.00019  -0.22220   0.01587
  21 6   C  1S         -0.05902   0.04368  -0.00095   0.00003  -0.05831
  22        2PX         0.14075  -0.17452  -0.16091  -0.00037  -0.11917
  23        2PY        -0.02442   0.01688   0.01609  -0.00001  -0.03564
  24        2PZ        -0.00012   0.00002  -0.00025  -0.06373   0.00896
  25 7   O  1S          0.04355   0.26143   0.16471   0.00012   0.02192
  26        2PX        -0.16410   0.04979   0.03547   0.00015   0.00542
  27        2PY         0.07615   0.46817   0.31375   0.00019   0.05159
  28        2PZ        -0.00029  -0.00019  -0.00003  -0.19463   0.01822
  29 8   C  1S         -0.03545   0.02651  -0.04714  -0.00007  -0.03747
  30        2PX         0.26892   0.07937  -0.07541  -0.00050   0.12192
  31        2PY         0.05542   0.00235   0.15853   0.00022  -0.02579
  32        2PZ        -0.00054  -0.00005   0.00035  -0.29057   0.00479
  33 9   C  1S         -0.02991  -0.00653   0.04655   0.00016  -0.03884
  34        2PX        -0.24904   0.02592   0.17862   0.00038   0.20734
  35        2PY         0.03190   0.06743  -0.07398  -0.00018  -0.03807
  36        2PZ        -0.00016  -0.00012   0.00014  -0.20023  -0.00344
  37 10  C  1S          0.10428  -0.05787  -0.00258  -0.00004   0.03743
  38        2PX        -0.07866   0.07331   0.03724   0.00014   0.18020
  39        2PY         0.05505   0.06787   0.15165   0.00027   0.00795
  40        2PZ        -0.00011   0.00005  -0.00045   0.09733   0.01465
  41 11  C  1S         -0.02991   0.00653   0.04655   0.00011   0.03884
  42        2PX        -0.24904  -0.02592   0.17862   0.00046  -0.20733
  43        2PY        -0.03190   0.06743   0.07398   0.00019  -0.03809
  44        2PZ        -0.00014  -0.00001   0.00011  -0.20023   0.00324
  45 12  C  1S          0.10428   0.05787  -0.00258  -0.00005  -0.03742
  46        2PX        -0.07866  -0.07331   0.03724   0.00019  -0.18016
  47        2PY        -0.05505   0.06787  -0.15165  -0.00030   0.00790
  48        2PZ        -0.00005  -0.00003  -0.00040   0.09733  -0.01460
  49 13  C  1S          0.06176   0.02377  -0.00362  -0.00008   0.01482
  50        2PX         0.25573  -0.00117  -0.05062  -0.00030  -0.24191
  51        2PY         0.04852  -0.01060   0.26385   0.00046   0.00420
  52        2PZ        -0.00032  -0.00006   0.00019  -0.16138  -0.00112
  53 14  C  1S          0.06176  -0.02377  -0.00362  -0.00005  -0.01483
  54        2PX         0.25573   0.00117  -0.05062  -0.00043   0.24189
  55        2PY        -0.04852  -0.01059  -0.26385  -0.00045   0.00424
  56        2PZ        -0.00032  -0.00004   0.00019  -0.16138   0.00089
  57 15  C  1S         -0.08867  -0.01369   0.04010   0.00010  -0.03272
  58        2PX         0.00883  -0.02169  -0.05555  -0.00028   0.18068
  59        2PY         0.02288   0.01902   0.21982   0.00042   0.00012
  60        2PZ         0.00000   0.00005  -0.00089   0.29638  -0.02214
  61 16  C  1S         -0.08867   0.01369   0.04010   0.00011   0.03271
  62        2PX         0.00883   0.02169  -0.05555  -0.00024  -0.18070
  63        2PY        -0.02288   0.01902  -0.21982  -0.00032   0.00012
  64        2PZ        -0.00001   0.00005  -0.00080   0.29638   0.02216
  65 17  H  1S         -0.03685  -0.06550   0.09157   0.00023   0.01855
  66 18  H  1S          0.09522   0.04047   0.13301   0.00020   0.01916
  67 19  H  1S         -0.03685   0.06549   0.09158   0.00023  -0.01857
  68 20  H  1S          0.09522  -0.04048   0.13301   0.00024  -0.01911
  69 21  H  1S         -0.18555   0.01758  -0.08116  -0.00007   0.20519
  70 22  H  1S         -0.18555  -0.01758  -0.08116   0.00005  -0.20517
  71 23  O  1S          0.12574   0.09439   0.03454   0.00008  -0.16227
  72        2PX         0.19052   0.13484   0.20950   0.00023  -0.38298
  73        2PY         0.16358   0.11146  -0.04140  -0.00014  -0.18895
  74        2PZ         0.00011   0.00016  -0.00090   0.40100  -0.06744
  75 24  H  1S         -0.09076  -0.06962   0.03358   0.00005   0.12311
  76 25  O  1S          0.12574  -0.09439   0.03454   0.00010   0.16229
  77        2PX         0.19052  -0.13484   0.20950   0.00030   0.38306
  78        2PY        -0.16358   0.11146   0.04140   0.00018  -0.18897
  79        2PZ         0.00011  -0.00004  -0.00090   0.40100   0.06738
  80 26  H  1S         -0.09076   0.06962   0.03359   0.00002  -0.12313
                          31        32        33        34        35
                           O         O         O         O         O
     Eigenvalues --    -0.51014  -0.50897  -0.49688  -0.49026  -0.47845
   1 1   C  1S          0.01018  -0.01085   0.00010  -0.00001  -0.00658
   2        2PX        -0.00111   0.02146   0.00001   0.00014  -0.11395
   3        2PY         0.00932  -0.12063  -0.00033   0.00020   0.02711
   4        2PZ        -0.14917  -0.00024   0.38792  -0.14625  -0.00030
   5 2   C  1S         -0.00410  -0.00787  -0.00008   0.00007   0.00341
   6        2PX         0.01326  -0.11531   0.00010   0.00012  -0.00244
   7        2PY         0.00279  -0.02059  -0.00003   0.00014  -0.18607
   8        2PZ        -0.04635   0.00041   0.12640   0.21835   0.00013
   9 3   C  1S         -0.00635   0.01690  -0.00008  -0.00011   0.02878
  10        2PX        -0.01311  -0.13293  -0.00025   0.00020   0.04568
  11        2PY         0.00426   0.29796   0.00028  -0.00046   0.08303
  12        2PZ        -0.08254  -0.00030   0.11118  -0.28526  -0.00031
  13 4   O  1S          0.00233  -0.06672  -0.00004   0.00005   0.01566
  14        2PX         0.00052   0.00216   0.00003   0.00026  -0.09793
  15        2PY        -0.00538   0.17008  -0.00020   0.00000  -0.04847
  16        2PZ        -0.17222  -0.00005   0.49238  -0.19217  -0.00049
  17 5   C  1S         -0.01021  -0.01085  -0.00012   0.00007  -0.00658
  18        2PX         0.00112   0.02146  -0.00007  -0.00010  -0.11395
  19        2PY         0.00956   0.12063  -0.00007  -0.00021  -0.02711
  20        2PZ         0.14917  -0.00001  -0.38792  -0.14625  -0.00010
  21 6   C  1S          0.00639   0.01690   0.00014  -0.00008   0.02878
  22        2PX         0.01285  -0.13294   0.00009   0.00026   0.04568
  23        2PY         0.00354  -0.29796  -0.00017   0.00042  -0.08303
  24        2PZ         0.08253  -0.00028  -0.11119  -0.28526  -0.00030
  25 7   O  1S         -0.00250  -0.06672  -0.00003   0.00006   0.01566
[...]
  78        2PY         0.00000   0.00000   1.27767
  79        2PZ         0.00000   0.00000   0.00000   1.93610
  80 26  H  1S          0.00000   0.00000   0.00000   0.00000   0.77653
     Gross orbital populations:
                           1
   1 1   C  1S          1.08087
   2        2PX         0.98634
   3        2PY         0.92013
   4        2PZ         0.69127
   5 2   C  1S          1.05859
   6        2PX         0.95375
   7        2PY         0.96336
   8        2PZ         1.01275
   9 3   C  1S          1.05735
  10        2PX         0.95391
  11        2PY         0.96308
  12        2PZ         1.02228
  13 4   O  1S          1.82226
  14        2PX         1.97812
  15        2PY         1.26530
  16        2PZ         1.44572
  17 5   C  1S          1.08087
  18        2PX         0.98634
  19        2PY         0.92013
  20        2PZ         0.69127
  21 6   C  1S          1.05735
  22        2PX         0.95391
  23        2PY         0.96308
  24        2PZ         1.02228
  25 7   O  1S          1.82226
  26        2PX         1.97812
  27        2PY         1.26530
  28        2PZ         1.44572
  29 8   C  1S          1.05859
  30        2PX         0.95375
  31        2PY         0.96336
  32        2PZ         1.01275
  33 9   C  1S          1.09879
  34        2PX         0.98543
  35        2PY         0.96344
  36        2PZ         0.95019
  37 10  C  1S          1.09619
  38        2PX         0.95997
  39        2PY         0.96304
  40        2PZ         0.99523
  41 11  C  1S          1.09879
  42        2PX         0.98543
  43        2PY         0.96344
  44        2PZ         0.95019
  45 12  C  1S          1.09619
  46        2PX         0.95997
  47        2PY         0.96304
  48        2PZ         0.99523
  49 13  C  1S          1.09359
  50        2PX         0.96540
  51        2PY         0.98491
  52        2PZ         0.97020
  53 14  C  1S          1.09359
  54        2PX         0.96540
  55        2PY         0.98491
  56        2PZ         0.97020
  57 15  C  1S          1.05148
  58        2PX         0.87859
  59        2PY         0.94325
  60        2PZ         0.97627
  61 16  C  1S          1.05148
  62        2PX         0.87859
  63        2PY         0.94325
  64        2PZ         0.97627
  65 17  H  1S          0.94411
  66 18  H  1S          0.94140
  67 19  H  1S          0.94411
  68 20  H  1S          0.94140
  69 21  H  1S          0.95997
  70 22  H  1S          0.95997
  71 23  O  1S          1.70042
  72        2PX         1.41278
  73        2PY         1.27767
  74        2PZ         1.93610
  75 24  H  1S          0.77653
  76 25  O  1S          1.70042
  77        2PX         1.41278
  78        2PY         1.27767
  79        2PZ         1.93610
  80 26  H  1S          0.77653
          Condensed to atoms (all electrons):
               1          2          3          4          5          6
     1  C    3.678606   0.000000   0.000000   0.000000   0.000000   0.000000
     2  C    0.000000   3.988453   0.000000   0.000000   0.000000   0.000000
     3  C    0.000000   0.000000   3.996623   0.000000   0.000000   0.000000
     4  O    0.000000   0.000000   0.000000   6.511389   0.000000   0.000000
     5  C    0.000000   0.000000   0.000000   0.000000   3.678606   0.000000
     6  C    0.000000   0.000000   0.000000   0.000000   0.000000   3.996623
     7  O    0.000000   0.000000   0.000000   0.000000   0.000000   0.000000
     8  C    0.000000   0.000000   0.000000   0.000000   0.000000   0.000000
     9  C    0.000000   0.000000   0.000000   0.000000   0.000000   0.000000
    10  C    0.000000   0.000000   0.000000   0.000000   0.000000   0.000000
    11  C    0.000000   0.000000   0.000000   0.000000   0.000000   0.000000
    12  C    0.000000   0.000000   0.000000   0.000000   0.000000   0.000000
    13  C    0.000000   0.000000   0.000000   0.000000   0.000000   0.000000
    14  C    0.000000   0.000000   0.000000   0.000000   0.000000   0.000000
    15  C    0.000000   0.000000   0.000000   0.000000   0.000000   0.000000
    16  C    0.000000   0.000000   0.000000   0.000000   0.000000   0.000000
    17  H    0.000000   0.000000   0.000000   0.000000   0.000000   0.000000
    18  H    0.000000   0.000000   0.000000   0.000000   0.000000   0.000000
    19  H    0.000000   0.000000   0.000000   0.000000   0.000000   0.000000
    20  H    0.000000   0.000000   0.000000   0.000000   0.000000   0.000000
    21  H    0.000000   0.000000   0.000000   0.000000   0.000000   0.000000
    22  H    0.000000   0.000000   0.000000   0.000000   0.000000   0.000000
    23  O    0.000000   0.000000   0.000000   0.000000   0.000000   0.000000
    24  H    0.000000   0.000000   0.000000   0.000000   0.000000   0.000000
    25  O    0.000000   0.000000   0.000000   0.000000   0.000000   0.000000
    26  H    0.000000   0.000000   0.000000   0.000000   0.000000   0.000000
               7          8          9         10         11         12
     1  C    0.000000   0.000000   0.000000   0.000000   0.000000   0.000000
     2  C    0.000000   0.000000   0.000000   0.000000   0.000000   0.000000
     3  C    0.000000   0.000000   0.000000   0.000000   0.000000   0.000000
     4  O    0.000000   0.000000   0.000000   0.000000   0.000000   0.000000
     5  C    0.000000   0.000000   0.000000   0.000000   0.000000   0.000000
     6  C    0.000000   0.000000   0.000000   0.000000   0.000000   0.000000
     7  O    6.511389   0.000000   0.000000   0.000000   0.000000   0.000000
     8  C    0.000000   3.988453   0.000000   0.000000   0.000000   0.000000
     9  C    0.000000   0.000000   3.997849   0.000000   0.000000   0.000000
    10  C    0.000000   0.000000   0.000000   4.014422   0.000000   0.000000
    11  C    0.000000   0.000000   0.000000   0.000000   3.997849   0.000000
    12  C    0.000000   0.000000   0.000000   0.000000   0.000000   4.014422
    13  C    0.000000   0.000000   0.000000   0.000000   0.000000   0.000000
    14  C    0.000000   0.000000   0.000000   0.000000   0.000000   0.000000
    15  C    0.000000   0.000000   0.000000   0.000000   0.000000   0.000000
    16  C    0.000000   0.000000   0.000000   0.000000   0.000000   0.000000
    17  H    0.000000   0.000000   0.000000   0.000000   0.000000   0.000000
    18  H    0.000000   0.000000   0.000000   0.000000   0.000000   0.000000
    19  H    0.000000   0.000000   0.000000   0.000000   0.000000   0.000000
    20  H    0.000000   0.000000   0.000000   0.000000   0.000000   0.000000
    21  H    0.000000   0.000000   0.000000   0.000000   0.000000   0.000000
    22  H    0.000000   0.000000   0.000000   0.000000   0.000000   0.000000
    23  O    0.000000   0.000000   0.000000   0.000000   0.000000   0.000000
    24  H    0.000000   0.000000   0.000000   0.000000   0.000000   0.000000
    25  O    0.000000   0.000000   0.000000   0.000000   0.000000   0.000000
    26  H    0.000000   0.000000   0.000000   0.000000   0.000000   0.000000
              13         14         15         16         17         18
     1  C    0.000000   0.000000   0.000000   0.000000   0.000000   0.000000
     2  C    0.000000   0.000000   0.000000   0.000000   0.000000   0.000000
     3  C    0.000000   0.000000   0.000000   0.000000   0.000000   0.000000
     4  O    0.000000   0.000000   0.000000   0.000000   0.000000   0.000000
     5  C    0.000000   0.000000   0.000000   0.000000   0.000000   0.000000
     6  C    0.000000   0.000000   0.000000   0.000000   0.000000   0.000000
     7  O    0.000000   0.000000   0.000000   0.000000   0.000000   0.000000
     8  C    0.000000   0.000000   0.000000   0.000000   0.000000   0.000000
     9  C    0.000000   0.000000   0.000000   0.000000   0.000000   0.000000
    10  C    0.000000   0.000000   0.000000   0.000000   0.000000   0.000000
    11  C    0.000000   0.000000   0.000000   0.000000   0.000000   0.000000
    12  C    0.000000   0.000000   0.000000   0.000000   0.000000   0.000000
    13  C    4.014090   0.000000   0.000000   0.000000   0.000000   0.000000
    14  C    0.000000   4.014090   0.000000   0.000000   0.000000   0.000000
    15  C    0.000000   0.000000   3.849591   0.000000   0.000000   0.000000
    16  C    0.000000   0.000000   0.000000   3.849591   0.000000   0.000000
    17  H    0.000000   0.000000   0.000000   0.000000   0.944112   0.000000
    18  H    0.000000   0.000000   0.000000   0.000000   0.000000   0.941403
    19  H    0.000000   0.000000   0.000000   0.000000   0.000000   0.000000
    20  H    0.000000   0.000000   0.000000   0.000000   0.000000   0.000000
    21  H    0.000000   0.000000   0.000000   0.000000   0.000000   0.000000
    22  H    0.000000   0.000000   0.000000   0.000000   0.000000   0.000000
    23  O    0.000000   0.000000   0.000000   0.000000   0.000000   0.000000
    24  H    0.000000   0.000000   0.000000   0.000000   0.000000   0.000000
    25  O    0.000000   0.000000   0.000000   0.000000   0.000000   0.000000
    26  H    0.000000   0.000000   0.000000   0.000000   0.000000   0.000000
              19         20         21         22         23         24
     1  C    0.000000   0.000000   0.000000   0.000000   0.000000   0.000000
     2  C    0.000000   0.000000   0.000000   0.000000   0.000000   0.000000
     3  C    0.000000   0.000000   0.000000   0.000000   0.000000   0.000000
     4  O    0.000000   0.000000   0.000000   0.000000   0.000000   0.000000
     5  C    0.000000   0.000000   0.000000   0.000000   0.000000   0.000000
     6  C    0.000000   0.000000   0.000000   0.000000   0.000000   0.000000
     7  O    0.000000   0.000000   0.000000   0.000000   0.000000   0.000000
     8  C    0.000000   0.000000   0.000000   0.000000   0.000000   0.000000
     9  C    0.000000   0.000000   0.000000   0.000000   0.000000   0.000000
    10  C    0.000000   0.000000   0.000000   0.000000   0.000000   0.000000
    11  C    0.000000   0.000000   0.000000   0.000000   0.000000   0.000000
    12  C    0.000000   0.000000   0.000000   0.000000   0.000000   0.000000
    13  C    0.000000   0.000000   0.000000   0.000000   0.000000   0.000000
    14  C    0.000000   0.000000   0.000000   0.000000   0.000000   0.000000
    15  C    0.000000   0.000000   0.000000   0.000000   0.000000   0.000000
    16  C    0.000000   0.000000   0.000000   0.000000   0.000000   0.000000
    17  H    0.000000   0.000000   0.000000   0.000000   0.000000   0.000000
    18  H    0.000000   0.000000   0.000000   0.000000   0.000000   0.000000
    19  H    0.944112   0.000000   0.000000   0.000000   0.000000   0.000000
    20  H    0.000000   0.941403   0.000000   0.000000   0.000000   0.000000
    21  H    0.000000   0.000000   0.959971   0.000000   0.000000   0.000000
    22  H    0.000000   0.000000   0.000000   0.959971   0.000000   0.000000
    23  O    0.000000   0.000000   0.000000   0.000000   6.326966   0.000000
    24  H    0.000000   0.000000   0.000000   0.000000   0.000000   0.776528
    25  O    0.000000   0.000000   0.000000   0.000000   0.000000   0.000000
    26  H    0.000000   0.000000   0.000000   0.000000   0.000000   0.000000
              25         26
     1  C    0.000000   0.000000
     2  C    0.000000   0.000000
     3  C    0.000000   0.000000
     4  O    0.000000   0.000000
     5  C    0.000000   0.000000
     6  C    0.000000   0.000000
     7  O    0.000000   0.000000
     8  C    0.000000   0.000000
     9  C    0.000000   0.000000
    10  C    0.000000   0.000000
    11  C    0.000000   0.000000
    12  C    0.000000   0.000000
    13  C    0.000000   0.000000
    14  C    0.000000   0.000000
    15  C    0.000000   0.000000
    16  C    0.000000   0.000000
    17  H    0.000000   0.000000
    18  H    0.000000   0.000000
    19  H    0.000000   0.000000
    20  H    0.000000   0.000000
    21  H    0.000000   0.000000
    22  H    0.000000   0.000000
    23  O    0.000000   0.000000
    24  H    0.000000   0.000000
    25  O    6.326966   0.000000
    26  H    0.000000   0.776528
 Mulliken charges:
               1
     1  C    0.321394
     2  C    0.011547
     3  C    0.003377
     4  O   -0.511389
     5  C    0.321394
     6  C    0.003377
     7  O   -0.511389
     8  C    0.011547
     9  C    0.002151
    10  C   -0.014422
    11  C    0.002151
    12  C   -0.014422
    13  C   -0.014090
    14  C   -0.014090
    15  C    0.150409
    16  C    0.150409
    17  H    0.055888
    18  H    0.058597
    19  H    0.055888
    20  H    0.058597
    21  H    0.040029
    22  H    0.040029
    23  O   -0.326966
    24  H    0.223472
    25  O   -0.326966
    26  H    0.223472
 Sum of Mulliken charges =   0.00000
 Mulliken charges with hydrogens summed into heavy atoms:
               1
     1  C    0.321394
     2  C    0.011547
     3  C    0.003377
     4  O   -0.511389
     5  C    0.321394
     6  C    0.003377
     7  O   -0.511389
     8  C    0.011547
     9  C    0.058040
    10  C    0.044175
    11  C    0.058040
    12  C    0.044175
    13  C    0.025940
    14  C    0.025940
    15  C    0.150409
    16  C    0.150409
    23  O   -0.103494
    25  O   -0.103494
 Charge=              0.0000 electrons
 Dipole moment (field-independent basis, Debye):
    X=             -2.7638    Y=             -0.0000    Z=              0.0042  Tot=              2.7638
 N-N= 4.636058296698D+02 E-N= 0.000000000000D+00  KE=-1.121579402052D+03
 Orbital energies and kinetic energies (alpha):
                                 1                 2
   1         O                -1.737749        -13.906512
   2         O                -1.687578        -13.575596
   3         O                -1.600427        -13.838111
   4         O                -1.584376        -13.421295
   5         O                -1.578283        -13.126940
   6         O                -1.496690        -13.801683
   7         O                -1.346340        -13.595665
   8         O                -1.249369        -13.074538
   9         O                -1.173765        -13.256962
  10         O                -1.164884        -12.970502
  11         O                -1.031387        -12.740448
  12         O                -0.998248        -12.832836
  13         O                -0.935862        -13.222279
  14         O                -0.930282        -12.701335
  15         O                -0.912379        -12.599626
  16         O                -0.863462        -12.800489
  17         O                -0.774575        -12.344270
  18         O                -0.730175        -12.645066
  19         O                -0.709510        -12.186114
  20         O                -0.685964        -12.877931
  21         O                -0.671612        -12.534020
  22         O                -0.608290        -12.146978
  23         O                -0.600476        -12.652885
  24         O                -0.598628        -13.009826
  25         O                -0.586320        -12.004144
  26         O                -0.582258        -12.340218
  27         O                -0.578274        -12.960541
  28         O                -0.576838        -12.528593
  29         O                -0.559813        -12.560798
  30         O                -0.510203        -11.915784
  31         O                -0.510138        -12.160033
  32         O                -0.508972        -12.425498
  33         O                -0.496876        -12.896534
  34         O                -0.490258        -12.347884
  35         O                -0.478452        -12.069097
  36         O                -0.470447        -12.222710
  37         O                -0.466962        -12.393740
  38         O                -0.435001        -12.634185
  39         O                -0.377670        -12.788142
  40         O                -0.368696        -12.802753
  41         O                -0.353885        -12.260828
  42         O                -0.352416        -12.159937
  43         O                -0.348788        -12.737788
  44         O                -0.325046        -12.718585
  45         V                -0.065336        -12.725579
  46         V                -0.017740        -12.377977
  47         V                 0.002018        -12.480932
  48         V                 0.006501        -12.230496
  49         V                 0.047155        -12.808089
  50         V                 0.048692        -12.167094
  51         V                 0.058057        -12.652086
  52         V                 0.082098        -12.159479
  53         V                 0.087921        -12.272356
  54         V                 0.094025        -12.658761
  55         V                 0.100504        -12.017873
  56         V                 0.107473        -12.603445
  57         V                 0.112856        -11.713085
  58         V                 0.123461        -12.147255
  59         V                 0.129322        -11.648060
  60         V                 0.179814        -11.653653
  61         V                 0.179896        -10.233657
  62         V                 0.197413        -11.661304
  63         V                 0.198271        -11.438457
  64         V                 0.226351        -12.458102
  65         V                 0.240930        -10.689993
  66         V                 0.248874        -12.444414
  67         V                 0.248946        -11.133812
  68         V                 0.294127        -11.722697
  69         V                 0.294431        -10.591521
  70         V                 0.342140        -11.491504
  71         V                 0.346849        -12.175476
  72         V                 0.377887        -11.738616
  73         V                 0.405942        -11.913041
  74         V                 0.411833        -12.271857
  75         V                 0.424179        -12.089622
  76         V                 0.426163        -11.953554
  77         V                 0.444439        -11.572659
  78         V                 0.458962        -12.182587
  79         V                 0.493037        -12.151181
  80         V                 0.496150        -12.451110
 Total kinetic energy from orbitals=-1.121579402052D+03
 1\1\GINC-GTX1080DELTA\SP\RZINDO\STO-3G\C14H8O4\MVEROT\12-Apr-2022\0\\#
 n ZINDO(NSTATE=10) pop=full gfinput\\UV-spectra\\0,1\C,0,0.0240010765,
 1.4800323252,-0.0196760199\C,0,1.2851018024,0.7093473519,-0.0101449934
 \C,0,-1.2355410927,0.7068428447,-0.0044857748\O,0,0.0216202456,2.71957
 86314,-0.0394418814\C,0,0.0249544903,-1.4666519747,0.0254036496\C,0,-1
 .2350883976,-0.6941778624,0.016733654\O,0,0.0233760387,-2.7062219401,0
 .0437131239\C,0,1.2855560271,-0.6952218954,0.0112426914\C,0,2.50144452
 71,1.4017121729,-0.0228991257\C,0,-2.4482079189,-1.3934682596,0.030354
 8577\C,0,2.502346314,-1.3868680832,0.0195116079\C,0,-2.4491119546,1.40
 54435922,-0.0118572531\C,0,3.7098343389,0.7043452531,-0.014482412\C,0,
 3.7102848541,-0.6887866285,0.0067007671\C,0,-3.6630098977,0.7141765956
 ,0.0017379871\C,0,-3.6625523472,-0.7028905984,0.0230661029\H,0,2.49015
 7785,2.5044693067,-0.0396983876\H,0,-2.4328626812,-2.4960783196,0.0469
 011724\H,0,2.4917727725,-2.4896328929,0.0362722216\H,0,-2.4344793382,2
 .508060616,-0.028584555\H,0,4.6610011404,1.2580318317,-0.0246479378\H,
 0,4.6618095875,-1.2419108586,0.0133884805\O,0,-4.8843344319,1.33868334
 74,-0.0044067191\H,0,-4.7274641508,2.2958392387,-0.0195951883\O,0,-4.8
 834736263,-1.3280889086,0.0356405871\H,0,-4.7259851631,-2.2851648855,0
 .0494033448\\Version=AM64L-G09RevD.01\State=1-A\HF=-132.2314946\RMSD=3
 .305e-09\PG=C01 [X(C14H8O4)]\\@


 ARTHROPOD AXIOM: A COMPUTER SYSTEM IS LIKE A SPIDER'S WEB.
 YOU CANNOT PULL ON ONE END WITHOUT MAKING THE OTHER END MOVE.
     -- GREG WETTSTEIN
 Job cpu time:       0 days  0 hours  0 minutes  1.2 seconds.
 File lengths (MBytes):  RWF=    127 Int=      0 D2E=      0 Chk=      5 Scr=      2
 Normal termination of Gaussian 09 at Tue Apr 12 00:35:56 2022.
