 Entering Gaussian System, Link 0=g09
 Input=/scratch/mverot/1-4-butanediol-opt/1-4-butanediol-opt.com
 Output=/scratch/mverot/1-4-butanediol-opt/1-4-butanediol-opt.log
 Initial command:
 /opt/g09/l1.exe "/scratch/mverot/1-4-butanediol-opt/Gau-1474318.inp" -scrdir="/scratch/mverot/1-4-butanediol-opt/"
 Entering Link 1 = /opt/g09/l1.exe PID=   1474320.
  
 Copyright (c) 1988,1990,1992,1993,1995,1998,2003,2009,2013,
            Gaussian, Inc.  All Rights Reserved.
  
 This is part of the Gaussian(R) 09 program.  It is based on
 the Gaussian(R) 03 system (copyright 2003, Gaussian, Inc.),
 the Gaussian(R) 98 system (copyright 1998, Gaussian, Inc.),
 the Gaussian(R) 94 system (copyright 1995, Gaussian, Inc.),
 the Gaussian 92(TM) system (copyright 1992, Gaussian, Inc.),
 the Gaussian 90(TM) system (copyright 1990, Gaussian, Inc.),
 the Gaussian 88(TM) system (copyright 1988, Gaussian, Inc.),
 the Gaussian 86(TM) system (copyright 1986, Carnegie Mellon
 University), and the Gaussian 82(TM) system (copyright 1983,
 Carnegie Mellon University). Gaussian is a federally registered
 trademark of Gaussian, Inc.
  
 This software contains proprietary and confidential information,
 including trade secrets, belonging to Gaussian, Inc.
  
 This software is provided under written license and may be
 used, copied, transmitted, or stored only in accord with that
 written license.
  
 The following legend is applicable only to US Government
 contracts under FAR:
  
                    RESTRICTED RIGHTS LEGEND
  
 Use, reproduction and disclosure by the US Government is
 subject to restrictions as set forth in subparagraphs (a)
 and (c) of the Commercial Computer Software - Restricted
 Rights clause in FAR 52.227-19.
  
 Gaussian, Inc.
 340 Quinnipiac St., Bldg. 40, Wallingford CT 06492
  
  
 ---------------------------------------------------------------
 Warning -- This program may not be used in any manner that
 competes with the business of Gaussian, Inc. or will provide
 assistance to any competitor of Gaussian, Inc.  The licensee
 of this program is prohibited from giving any competitor of
 Gaussian, Inc. access to this program.  By using this program,
 the user acknowledges that Gaussian, Inc. is engaged in the
 business of creating and licensing software in the field of
 computational chemistry and represents and warrants to the
 licensee that it is not a competitor of Gaussian, Inc. and that
 it will not use this program in any manner prohibited above.
 ---------------------------------------------------------------
  

 Cite this work as:
 Gaussian 09, Revision D.01,
 M. J. Frisch, G. W. Trucks, H. B. Schlegel, G. E. Scuseria, 
 M. A. Robb, J. R. Cheeseman, G. Scalmani, V. Barone, B. Mennucci, 
 G. A. Petersson, H. Nakatsuji, M. Caricato, X. Li, H. P. Hratchian, 
 A. F. Izmaylov, J. Bloino, G. Zheng, J. L. Sonnenberg, M. Hada, 
 M. Ehara, K. Toyota, R. Fukuda, J. Hasegawa, M. Ishida, T. Nakajima, 
 Y. Honda, O. Kitao, H. Nakai, T. Vreven, J. A. Montgomery, Jr., 
 J. E. Peralta, F. Ogliaro, M. Bearpark, J. J. Heyd, E. Brothers, 
 K. N. Kudin, V. N. Staroverov, T. Keith, R. Kobayashi, J. Normand, 
 K. Raghavachari, A. Rendell, J. C. Burant, S. S. Iyengar, J. Tomasi, 
 M. Cossi, N. Rega, J. M. Millam, M. Klene, J. E. Knox, J. B. Cross, 
 V. Bakken, C. Adamo, J. Jaramillo, R. Gomperts, R. E. Stratmann, 
 O. Yazyev, A. J. Austin, R. Cammi, C. Pomelli, J. W. Ochterski, 
 R. L. Martin, K. Morokuma, V. G. Zakrzewski, G. A. Voth, 
 P. Salvador, J. J. Dannenberg, S. Dapprich, A. D. Daniels, 
 O. Farkas, J. B. Foresman, J. V. Ortiz, J. Cioslowski, 
 and D. J. Fox, Gaussian, Inc., Wallingford CT, 2013.
 
 ******************************************
 Gaussian 09:  AM64L-G09RevD.01 24-Apr-2013
                17-Apr-2022 
 ******************************************
 %chk=1-4-butanediol-opt
 ---------------
 # hf/6-31G* opt
 ---------------
 1/18=20,19=15,38=1/1,3;
 2/9=110,12=2,17=6,18=5,40=1/2;
 3/5=1,6=6,7=1,11=9,16=1,25=1,30=1,71=1/1,2,3;
 4//1;
 5/5=2,38=5/2;
 6/7=2,8=2,9=2,10=2,28=1/1;
 7//1,2,3,16;
 1/18=20,19=15/3(2);
 2/9=110/2;
 99//99;
 2/9=110/2;
 3/5=1,6=6,7=1,11=9,16=1,25=1,30=1,71=1/1,2,3;
 4/5=5,16=3,69=1/1;
 5/5=2,38=5/2;
 7//1,2,3,16;
 1/18=20,19=15/3(-5);
 2/9=110/2;
 6/7=2,8=2,9=2,10=2,19=2,28=1/1;
 99/9=1/99;
 -------------------------
 Optimisation de geometrie
 -------------------------
 Symbolic Z-matrix:
 Charge =  0 Multiplicity = 1
 C                     1.6107    1.2545    1.9562 
 C                     1.1287    2.3802    1.0303 
 O                     1.4973    3.6767    1.461 
 C                     3.1202    0.9463    1.9456 
 C                     4.0514    2.0104    2.5215 
 O                     4.1945    3.0862    1.5783 
 H                     1.0825    0.3332    1.6712 
 H                     1.2915    1.4946    2.98 
 H                     0.0328    2.3688    1.0055 
 H                     1.4756    2.182     0.0004 
 H                     2.4724    3.7128    1.402 
 H                     3.4548    0.7229    0.923 
 H                     3.2871    0.0321    2.5311 
 H                     5.0392    1.5667    2.7112 
 H                     3.6576    2.3857    3.4778 
 H                     4.7634    3.7635    1.976 
 

 GradGradGradGradGradGradGradGradGradGradGradGradGradGradGradGradGradGrad
 Berny optimization.
 Initialization pass.
                           ----------------------------
                           !    Initial Parameters    !
                           ! (Angstroms and Degrees)  !
 --------------------------                            --------------------------
 ! Name  Definition              Value          Derivative Info.                !
 --------------------------------------------------------------------------------
 ! R1    R(1,2)                  1.5352         estimate D2E/DX2                !
 ! R2    R(1,4)                  1.5407         estimate D2E/DX2                !
 ! R3    R(1,7)                  1.0996         estimate D2E/DX2                !
 ! R4    R(1,8)                  1.099          estimate D2E/DX2                !
 ! R5    R(2,3)                  1.415          estimate D2E/DX2                !
 ! R6    R(2,9)                  1.0962         estimate D2E/DX2                !
 ! R7    R(2,10)                 1.1047         estimate D2E/DX2                !
 ! R8    R(3,11)                 0.9776         estimate D2E/DX2                !
 ! R9    R(4,5)                  1.5268         estimate D2E/DX2                !
 ! R10   R(4,12)                 1.0989         estimate D2E/DX2                !
 ! R11   R(4,13)                 1.0984         estimate D2E/DX2                !
 ! R12   R(5,6)                  1.4379         estimate D2E/DX2                !
 ! R13   R(5,14)                 1.0994         estimate D2E/DX2                !
 ! R14   R(5,15)                 1.1002         estimate D2E/DX2                !
 ! R15   R(6,16)                 0.9698         estimate D2E/DX2                !
 ! A1    A(2,1,4)              116.7531         estimate D2E/DX2                !
 ! A2    A(2,1,7)              107.8932         estimate D2E/DX2                !
 ! A3    A(2,1,8)              108.0877         estimate D2E/DX2                !
 ! A4    A(4,1,7)              107.5333         estimate D2E/DX2                !
 ! A5    A(4,1,8)              109.554          estimate D2E/DX2                !
 ! A6    A(7,1,8)              106.559          estimate D2E/DX2                !
 ! A7    A(1,2,3)              113.9843         estimate D2E/DX2                !
 ! A8    A(1,2,9)              108.6562         estimate D2E/DX2                !
 ! A9    A(1,2,10)             109.3984         estimate D2E/DX2                !
 ! A10   A(3,2,9)              106.0708         estimate D2E/DX2                !
 ! A11   A(3,2,10)             111.4914         estimate D2E/DX2                !
 ! A12   A(9,2,10)             106.9162         estimate D2E/DX2                !
 ! A13   A(2,3,11)             105.9801         estimate D2E/DX2                !
 ! A14   A(1,4,5)              117.1002         estimate D2E/DX2                !
 ! A15   A(1,4,12)             110.2059         estimate D2E/DX2                !
 ! A16   A(1,4,13)             108.1622         estimate D2E/DX2                !
 ! A17   A(5,4,12)             107.8776         estimate D2E/DX2                !
 ! A18   A(5,4,13)             106.6391         estimate D2E/DX2                !
 ! A19   A(12,4,13)            106.2946         estimate D2E/DX2                !
 ! A20   A(4,5,6)              109.5557         estimate D2E/DX2                !
 ! A21   A(4,5,14)             109.3787         estimate D2E/DX2                !
 ! A22   A(4,5,15)             110.3221         estimate D2E/DX2                !
 ! A23   A(6,5,14)             109.0102         estimate D2E/DX2                !
 ! A24   A(6,5,15)             110.5225         estimate D2E/DX2                !
 ! A25   A(14,5,15)            108.0171         estimate D2E/DX2                !
 ! A26   A(5,6,16)             108.174          estimate D2E/DX2                !
 ! D1    D(4,1,2,3)            -71.948          estimate D2E/DX2                !
 ! D2    D(4,1,2,9)            170.0178         estimate D2E/DX2                !
 ! D3    D(4,1,2,10)            53.6277         estimate D2E/DX2                !
 ! D4    D(7,1,2,3)            166.9021         estimate D2E/DX2                !
 ! D5    D(7,1,2,9)             48.8678         estimate D2E/DX2                !
 ! D6    D(7,1,2,10)           -67.5223         estimate D2E/DX2                !
 ! D7    D(8,1,2,3)             52.0354         estimate D2E/DX2                !
 ! D8    D(8,1,2,9)            -65.9989         estimate D2E/DX2                !
 ! D9    D(8,1,2,10)           177.611          estimate D2E/DX2                !
 ! D10   D(2,1,4,5)             68.0507         estimate D2E/DX2                !
 ! D11   D(2,1,4,12)           -55.715          estimate D2E/DX2                !
 ! D12   D(2,1,4,13)          -171.5252         estimate D2E/DX2                !
 ! D13   D(7,1,4,5)           -170.6099         estimate D2E/DX2                !
 ! D14   D(7,1,4,12)            65.6244         estimate D2E/DX2                !
 ! D15   D(7,1,4,13)           -50.1858         estimate D2E/DX2                !
 ! D16   D(8,1,4,5)            -55.1806         estimate D2E/DX2                !
 ! D17   D(8,1,4,12)          -178.9464         estimate D2E/DX2                !
 ! D18   D(8,1,4,13)            65.2435         estimate D2E/DX2                !
 ! D19   D(1,2,3,11)            65.689          estimate D2E/DX2                !
 ! D20   D(9,2,3,11)          -174.8043         estimate D2E/DX2                !
 ! D21   D(10,2,3,11)          -58.7729         estimate D2E/DX2                !
 ! D22   D(1,4,5,6)            -76.1976         estimate D2E/DX2                !
 ! D23   D(1,4,5,14)           164.3712         estimate D2E/DX2                !
 ! D24   D(1,4,5,15)            45.6919         estimate D2E/DX2                !
 ! D25   D(12,4,5,6)            48.744          estimate D2E/DX2                !
 ! D26   D(12,4,5,14)          -70.6872         estimate D2E/DX2                !
 ! D27   D(12,4,5,15)          170.6335         estimate D2E/DX2                !
 ! D28   D(13,4,5,6)           162.5783         estimate D2E/DX2                !
 ! D29   D(13,4,5,14)           43.1471         estimate D2E/DX2                !
 ! D30   D(13,4,5,15)          -75.5322         estimate D2E/DX2                !
 ! D31   D(4,5,6,16)           178.0428         estimate D2E/DX2                !
 ! D32   D(14,5,6,16)          -62.2996         estimate D2E/DX2                !
 ! D33   D(15,5,6,16)           56.2735         estimate D2E/DX2                !
 --------------------------------------------------------------------------------
 Trust Radius=3.00D-01 FncErr=1.00D-07 GrdErr=1.00D-07
 Number of steps in this run=     84 maximum allowed number of steps=    100.
 GradGradGradGradGradGradGradGradGradGradGradGradGradGradGradGradGradGrad

                          Input orientation:                          
 ---------------------------------------------------------------------
 Center     Atomic      Atomic             Coordinates (Angstroms)
 Number     Number       Type             X           Y           Z
 ---------------------------------------------------------------------
      1          6           0        1.610700    1.254500    1.956200
      2          6           0        1.128700    2.380200    1.030300
      3          8           0        1.497300    3.676700    1.461000
      4          6           0        3.120200    0.946300    1.945600
      5          6           0        4.051400    2.010400    2.521500
      6          8           0        4.194500    3.086200    1.578300
      7          1           0        1.082500    0.333200    1.671200
      8          1           0        1.291500    1.494600    2.980000
      9          1           0        0.032800    2.368800    1.005500
     10          1           0        1.475600    2.182000    0.000400
     11          1           0        2.472400    3.712800    1.402000
     12          1           0        3.454800    0.722900    0.923000
     13          1           0        3.287100    0.032100    2.531100
     14          1           0        5.039200    1.566700    2.711200
     15          1           0        3.657600    2.385700    3.477800
     16          1           0        4.763400    3.763500    1.976000
 ---------------------------------------------------------------------
                    Distance matrix (angstroms):
                    1          2          3          4          5
     1  C    0.000000
     2  C    1.535192   0.000000
     3  O    2.474901   1.415020   0.000000
     4  C    1.540678   2.619144   3.213056   0.000000
     5  C    2.616862   3.301909   3.228722   1.526795   0.000000
     6  O    3.189664   3.193410   2.763573   2.422437   1.437863
     7  H    1.099552   2.145483   3.375683   2.145555   3.514310
     8  H    1.098955   2.147585   2.666697   2.171350   2.844876
     9  H    2.152966   1.096240   2.015650   3.526944   4.309971
    10  H    2.168793   1.104680   2.089964   2.831160   3.608343
    11  H    2.663251   1.928604   0.977550   2.892865   2.577729
    12  H    2.179634   2.858128   3.584157   1.098897   2.137473
    13  H    2.152926   3.524864   4.199001   1.098375   2.120829
    14  H    3.524501   4.333499   4.308150   2.157221   1.099366
    15  H    2.790104   3.519321   3.225067   2.169864   1.100199
    16  H    4.029267   4.002363   3.307593   3.261540   1.969232
                    6          7          8          9         10
     6  O    0.000000
     7  H    4.155982   0.000000
     8  H    3.595186   1.762240   0.000000
     9  H    4.261750   2.385098   2.499440   0.000000
    10  H    3.271049   2.522729   3.063401   1.768274   0.000000
    11  H    1.841015   3.664149   2.967325   2.813396   2.302486
    12  H    2.561593   2.517832   3.083283   3.798141   2.626289
    13  H    3.325467   2.385446   2.514525   4.286968   3.782598
    14  H    2.075057   4.273008   3.758019   5.349469   4.519544
    15  H    2.094531   3.756022   2.576877   4.387679   4.110344
    16  H    0.969818   5.040723   4.267319   5.026493   4.148948
                   11         12         13         14         15
    11  H    0.000000
    12  H    3.183403   0.000000
    13  H    3.935245   1.758213   0.000000
    14  H    3.592800   2.533768   2.336084   0.000000
    15  H    2.734015   3.055002   2.563775   1.779678   0.000000
    16  H    2.362356   3.473686   4.051042   2.332920   2.318735
                   16
    16  H    0.000000
 Stoichiometry    C4H10O2
 Framework group  C1[X(C4H10O2)]
 Deg. of freedom    42
 Full point group                 C1      NOp   1
 Largest Abelian subgroup         C1      NOp   1
 Largest concise Abelian subgroup C1      NOp   1
                         Standard orientation:                         
 ---------------------------------------------------------------------
 Center     Atomic      Atomic             Coordinates (Angstroms)
 Number     Number       Type             X           Y           Z
 ---------------------------------------------------------------------
      1          6           0        0.830011    1.152271    0.212354
      2          6           0        1.646795   -0.045249   -0.293241
      3          8           0        1.303057   -1.274744    0.317060
      4          6           0       -0.644568    1.221794   -0.228637
      5          6           0       -1.588870    0.160941    0.331710
      6          8           0       -1.371828   -1.085645   -0.351200
      7          1           0        1.324059    2.070107   -0.137655
      8          1           0        0.886718    1.165023    1.309771
      9          1           0        2.703422    0.126014   -0.056702
     10          1           0        1.569165   -0.103974   -1.393623
     11          1           0        0.386969   -1.467934    0.035876
     12          1           0       -0.714763    1.190762   -1.324851
     13          1           0       -1.048228    2.196018    0.078564
     14          1           0       -2.629383    0.479027    0.174364
     15          1           0       -1.429669    0.040813    1.413682
     16          1           0       -1.958328   -1.751287    0.040574
 ---------------------------------------------------------------------
 Rotational constants (GHZ):      4.5593886      2.8857863      1.9677595
 Standard basis: 6-31G(d) (6D, 7F)
 There are   110 symmetry adapted cartesian basis functions of A   symmetry.
 There are   110 symmetry adapted basis functions of A   symmetry.
   110 basis functions,   208 primitive gaussians,   110 cartesian basis functions
    25 alpha electrons       25 beta electrons
       nuclear repulsion energy       262.6789795019 Hartrees.
 NAtoms=   16 NActive=   16 NUniq=   16 SFac= 1.00D+00 NAtFMM=   60 NAOKFM=F Big=F
 Integral buffers will be    131072 words long.
 Raffenetti 1 integral format.
 Two-electron integral symmetry is turned on.
 One-electron integrals computed using PRISM.
 NBasis=   110 RedAO= T EigKep=  5.09D-03  NBF=   110
 NBsUse=   110 1.00D-06 EigRej= -1.00D+00 NBFU=   110
 ExpMin= 1.61D-01 ExpMax= 5.48D+03 ExpMxC= 8.25D+02 IAcc=1 IRadAn=         1 AccDes= 0.00D+00
 Harris functional with IExCor=  205 and IRadAn=       1 diagonalized for initial guess.
 HarFok:  IExCor=  205 AccDes= 0.00D+00 IRadAn=         1 IDoV= 1 UseB2=F ITyADJ=14
 ICtDFT=  3500011 ScaDFX=  1.000000  1.000000  1.000000  1.000000
 FoFCou: FMM=F IPFlag=           0 FMFlag=      100000 FMFlg1=           0
         NFxFlg=           0 DoJE=T BraDBF=F KetDBF=T FulRan=T
         wScrn=  0.000000 ICntrl=     500 IOpCl=  0 I1Cent=   200000004 NGrid=           0
         NMat0=    1 NMatS0=      1 NMatT0=    0 NMatD0=    1 NMtDS0=    0 NMtDT0=    0
 Petite list used in FoFCou.
 Keep R1 ints in memory in canonical form, NReq=19588404.
 Requested convergence on RMS density matrix=1.00D-08 within 128 cycles.
 Requested convergence on MAX density matrix=1.00D-06.
 Requested convergence on             energy=1.00D-06.
 No special actions if energy rises.
 SCF Done:  E(RHF) =  -306.992418846     A.U. after   12 cycles
            NFock= 12  Conv=0.61D-08     -V/T= 2.0024

 **********************************************************************

            Population analysis using the SCF density.

 **********************************************************************

 Orbital symmetries:
       Occupied  (A) (A) (A) (A) (A) (A) (A) (A) (A) (A) (A) (A)
                 (A) (A) (A) (A) (A) (A) (A) (A) (A) (A) (A) (A)
                 (A)
       Virtual   (A) (A) (A) (A) (A) (A) (A) (A) (A) (A) (A) (A)
                 (A) (A) (A) (A) (A) (A) (A) (A) (A) (A) (A) (A)
                 (A) (A) (A) (A) (A) (A) (A) (A) (A) (A) (A) (A)
                 (A) (A) (A) (A) (A) (A) (A) (A) (A) (A) (A) (A)
                 (A) (A) (A) (A) (A) (A) (A) (A) (A) (A) (A) (A)
                 (A) (A) (A) (A) (A) (A) (A) (A) (A) (A) (A) (A)
                 (A) (A) (A) (A) (A) (A) (A) (A) (A) (A) (A) (A)
                 (A)
 The electronic state is 1-A.
 Alpha  occ. eigenvalues --  -20.58619 -20.52630 -11.29104 -11.25933 -11.23133
 Alpha  occ. eigenvalues --  -11.22035  -1.37552  -1.32427  -1.06462  -0.96548
 Alpha  occ. eigenvalues --   -0.86252  -0.78371  -0.72006  -0.66942  -0.64841
 Alpha  occ. eigenvalues --   -0.60599  -0.60002  -0.57339  -0.53855  -0.52930
 Alpha  occ. eigenvalues --   -0.49886  -0.47655  -0.45501  -0.45142  -0.40959
 Alpha virt. eigenvalues --    0.20263   0.24179   0.27136   0.28737   0.29709
 Alpha virt. eigenvalues --    0.31423   0.32470   0.32665   0.33919   0.36455
 Alpha virt. eigenvalues --    0.38678   0.39182   0.42813   0.47448   0.48435
 Alpha virt. eigenvalues --    0.72713   0.73358   0.73877   0.77919   0.78761
 Alpha virt. eigenvalues --    0.83220   0.90405   0.90787   0.94499   0.99105
 Alpha virt. eigenvalues --    1.02438   1.08395   1.09510   1.10116   1.11346
 Alpha virt. eigenvalues --    1.13572   1.15631   1.16552   1.18879   1.19968
 Alpha virt. eigenvalues --    1.21620   1.22138   1.22945   1.26207   1.32446
 Alpha virt. eigenvalues --    1.34755   1.37674   1.46528   1.48743   1.57596
 Alpha virt. eigenvalues --    1.59734   1.70415   1.79468   1.81687   1.85721
 Alpha virt. eigenvalues --    1.90029   1.91619   1.98349   2.02491   2.04751
 Alpha virt. eigenvalues --    2.06984   2.14087   2.20077   2.23830   2.24350
 Alpha virt. eigenvalues --    2.32023   2.36164   2.40050   2.46104   2.55313
 Alpha virt. eigenvalues --    2.57041   2.61898   2.65814   2.69304   2.74481
 Alpha virt. eigenvalues --    2.75704   2.78113   2.83868   2.91459   2.98651
 Alpha virt. eigenvalues --    3.02539   3.05606   3.19236   3.23992   4.22838
 Alpha virt. eigenvalues --    4.28247   4.56019   4.70978   4.88361   4.96142
          Condensed to atoms (all electrons):
               1          2          3          4          5          6
     1  C    5.173176   0.338168  -0.054047   0.331929  -0.046717   0.002665
     2  C    0.338168   4.745678   0.234722  -0.044137  -0.003621   0.002723
     3  O   -0.054047   0.234722   8.447196  -0.001010   0.007427  -0.019627
     4  C    0.331929  -0.044137  -0.001010   5.137718   0.340440  -0.051955
     5  C   -0.046717  -0.003621   0.007427   0.340440   4.836515   0.182047
     6  O    0.002665   0.002723  -0.019627  -0.051955   0.182047   8.429558
     7  H    0.385837  -0.035599   0.003072  -0.041999   0.004780  -0.000077
     8  H    0.389528  -0.038396   0.002090  -0.044452  -0.003267  -0.000004
     9  H   -0.047679   0.410900  -0.038314   0.004394  -0.000074  -0.000020
    10  H   -0.056427   0.393437  -0.036800  -0.007013   0.000781   0.000097
    11  H   -0.000743  -0.025852   0.243664   0.000969  -0.005574   0.032617
    12  H   -0.039704  -0.002246  -0.000003   0.390239  -0.040747   0.001115
    13  H   -0.038905   0.003774  -0.000076   0.399531  -0.042703   0.002617
    14  H    0.004056  -0.000097   0.000001  -0.042645   0.404524  -0.035852
    15  H   -0.006027   0.000459   0.000399  -0.042502   0.394487  -0.036398
    16  H   -0.000171  -0.000135   0.000834   0.005317  -0.019460   0.255632
               7          8          9         10         11         12
     1  C    0.385837   0.389528  -0.047679  -0.056427  -0.000743  -0.039704
     2  C   -0.035599  -0.038396   0.410900   0.393437  -0.025852  -0.002246
     3  O    0.003072   0.002090  -0.038314  -0.036800   0.243664  -0.000003
     4  C   -0.041999  -0.044452   0.004394  -0.007013   0.000969   0.390239
     5  C    0.004780  -0.003267  -0.000074   0.000781  -0.005574  -0.040747
     6  O   -0.000077  -0.000004  -0.000020   0.000097   0.032617   0.001115
     7  H    0.561078  -0.025512  -0.001840   0.001764  -0.000203  -0.001910
     8  H   -0.025512   0.548766  -0.003781   0.005125  -0.000211   0.003997
     9  H   -0.001840  -0.003781   0.550530  -0.038047   0.004874  -0.000070
    10  H    0.001764   0.005125  -0.038047   0.606029  -0.004409   0.003062
    11  H   -0.000203  -0.000211   0.004874  -0.004409   0.265461   0.000007
    12  H   -0.001910   0.003997  -0.000070   0.003062   0.000007   0.532437
    13  H   -0.005320  -0.001758  -0.000088  -0.000103  -0.000007  -0.024760
    14  H   -0.000078  -0.000056   0.000002   0.000004   0.000592  -0.002971
    15  H   -0.000058   0.003157  -0.000009   0.000050  -0.000692   0.004685
    16  H    0.000005   0.000000   0.000000   0.000006  -0.001373  -0.000090
              13         14         15         16
     1  C   -0.038905   0.004056  -0.006027  -0.000171
     2  C    0.003774  -0.000097   0.000459  -0.000135
     3  O   -0.000076   0.000001   0.000399   0.000834
     4  C    0.399531  -0.042645  -0.042502   0.005317
     5  C   -0.042703   0.404524   0.394487  -0.019460
     6  O    0.002617  -0.035852  -0.036398   0.255632
     7  H   -0.005320  -0.000078  -0.000058   0.000005
     8  H   -0.001758  -0.000056   0.003157   0.000000
     9  H   -0.000088   0.000002  -0.000009   0.000000
    10  H   -0.000103   0.000004   0.000050   0.000006
    11  H   -0.000007   0.000592  -0.000692  -0.001373
    12  H   -0.024760  -0.002971   0.004685  -0.000090
    13  H    0.544925  -0.002898   0.000877  -0.000179
    14  H   -0.002898   0.561462  -0.041732  -0.002614
    15  H    0.000877  -0.041732   0.567646  -0.003233
    16  H   -0.000179  -0.002614  -0.003233   0.315015
 Mulliken charges:
               1
     1  C   -0.334938
     2  C    0.020221
     3  O   -0.789528
     4  C   -0.334825
     5  C   -0.008839
     6  O   -0.765138
     7  H    0.156059
     8  H    0.164774
     9  H    0.159221
    10  H    0.132445
    11  H    0.490880
    12  H    0.176959
    13  H    0.165073
    14  H    0.158300
    15  H    0.158891
    16  H    0.450445
 Sum of Mulliken charges =  -0.00000
 Mulliken charges with hydrogens summed into heavy atoms:
               1
     1  C   -0.014105
     2  C    0.311887
     3  O   -0.298648
     4  C    0.007207
     5  C    0.308352
     6  O   -0.314693
 Electronic spatial extent (au):  <R**2>=            660.5332
 Charge=             -0.0000 electrons
 Dipole moment (field-independent basis, Debye):
    X=             -2.9058    Y=              1.4582    Z=              0.3047  Tot=              3.2654
 Quadrupole moment (field-independent basis, Debye-Ang):
   XX=            -35.7328   YY=            -37.8933   ZZ=            -39.3231
   XY=              6.0175   XZ=             -3.6848   YZ=             -0.2417
 Traceless Quadrupole moment (field-independent basis, Debye-Ang):
   XX=              1.9170   YY=             -0.2436   ZZ=             -1.6734
   XY=              6.0175   XZ=             -3.6848   YZ=             -0.2417
 Octapole moment (field-independent basis, Debye-Ang**2):
  XXX=            -13.9857  YYY=            -14.4469  ZZZ=              0.2617  XYY=            -14.2399
  XXY=             -3.2898  XXZ=              1.6263  XZZ=             -0.7943  YZZ=             -1.8483
  YYZ=              0.1464  XYZ=              3.9092
 Hexadecapole moment (field-independent basis, Debye-Ang**3):
 XXXX=           -429.4473 YYYY=           -273.1908 ZZZZ=            -84.2622 XXXY=             28.0112
 XXXZ=             -3.5457 YYYX=             27.6924 YYYZ=             -0.5439 ZZZX=              0.8228
 ZZZY=             -0.3061 XXYY=           -118.1377 XXZZ=            -95.2355 YYZZ=            -65.1043
 XXYZ=             -1.3619 YYXZ=             -5.7843 ZZXY=              0.9270
 N-N= 2.626789795019D+02 E-N=-1.246272214267D+03  KE= 3.062639314591D+02
 Calling FoFJK, ICntrl=      2127 FMM=F ISym2X=0 I1Cent= 0 IOpClX= 0 NMat=1 NMatS=1 NMatT=0.
 ***** Axes restored to original set *****
 -------------------------------------------------------------------
 Center     Atomic                   Forces (Hartrees/Bohr)
 Number     Number              X              Y              Z
 -------------------------------------------------------------------
      1        6          -0.003753843    0.000066550    0.004430244
      2        6          -0.004648260    0.005035856   -0.003148692
      3        8           0.023834253   -0.015780347   -0.007009811
      4        6           0.003611756   -0.005394560   -0.003454867
      5        6           0.002754623    0.005265991   -0.001057246
      6        8           0.014575765    0.003918683    0.023395238
      7        1           0.003874468    0.006836696    0.001566915
      8        1           0.002298681   -0.001965618   -0.007117087
      9        1           0.009154291    0.000137025    0.000361388
     10        1          -0.002340472    0.003807639    0.009381273
     11        1          -0.027289644    0.002510126    0.001558761
     12        1          -0.002630033    0.001608204    0.007357853
     13        1          -0.001738147    0.006259699   -0.003844484
     14        1          -0.008385300    0.004663506   -0.002342484
     15        1           0.003782987   -0.001638322   -0.008982017
     16        1          -0.013101125   -0.015331129   -0.011094984
 -------------------------------------------------------------------
 Cartesian Forces:  Max     0.027289644 RMS     0.008824117

 GradGradGradGradGradGradGradGradGradGradGradGradGradGradGradGradGradGrad
 Berny optimization.
 FormGI is forming the generalized inverse of G from B-inverse, IUseBI=4.
 Internal  Forces:  Max     0.027222628 RMS     0.005998216
 Search for a local minimum.
 Step number   1 out of a maximum of   84
 All quantities printed in internal units (Hartrees-Bohrs-Radians)
 Mixed Optimization -- RFO/linear search
 Second derivative matrix not updated -- first step.
 ITU=  0
     Eigenvalues ---    0.00230   0.00300   0.00412   0.01191   0.01493
     Eigenvalues ---    0.03094   0.03096   0.04594   0.04691   0.04711
     Eigenvalues ---    0.05131   0.05871   0.05894   0.08956   0.09056
     Eigenvalues ---    0.11250   0.11807   0.12656   0.12716   0.13729
     Eigenvalues ---    0.14096   0.16000   0.16000   0.21997   0.22001
     Eigenvalues ---    0.22010   0.22052   0.28459   0.28949   0.29721
     Eigenvalues ---    0.33170   0.33660   0.33732   0.33752   0.33798
     Eigenvalues ---    0.33804   0.33862   0.34101   0.39880   0.43219
     Eigenvalues ---    0.51864   0.53414
 RFO step:  Lambda=-7.69862175D-03 EMin= 2.30000000D-03
 Linear search not attempted -- first point.
 Iteration  1 RMS(Cart)=  0.09708575 RMS(Int)=  0.00286937
 Iteration  2 RMS(Cart)=  0.00386775 RMS(Int)=  0.00018547
 Iteration  3 RMS(Cart)=  0.00000916 RMS(Int)=  0.00018541
 Iteration  4 RMS(Cart)=  0.00000000 RMS(Int)=  0.00018541
 Variable       Old X    -DE/DX   Delta X   Delta X   Delta X     New X
                                 (Linear)    (Quad)   (Total)
    R1        2.90109  -0.00343   0.00000  -0.01154  -0.01154   2.88955
    R2        2.91146  -0.00098   0.00000  -0.00334  -0.00334   2.90812
    R3        2.07785  -0.00800   0.00000  -0.02317  -0.02317   2.05468
    R4        2.07672  -0.00773   0.00000  -0.02235  -0.02235   2.05437
    R5        2.67400  -0.01472   0.00000  -0.03346  -0.03346   2.64054
    R6        2.07159  -0.00916   0.00000  -0.02627  -0.02627   2.04532
    R7        2.08754  -0.01016   0.00000  -0.02995  -0.02995   2.05759
    R8        1.84730  -0.02722   0.00000  -0.05172  -0.05172   1.79558
    R9        2.88522  -0.00243   0.00000  -0.00798  -0.00798   2.87724
   R10        2.07662  -0.00797   0.00000  -0.02307  -0.02307   2.05355
   R11        2.07563  -0.00752   0.00000  -0.02172  -0.02172   2.05390
   R12        2.71717  -0.01646   0.00000  -0.04049  -0.04049   2.67667
   R13        2.07750  -0.00982   0.00000  -0.02845  -0.02845   2.04905
   R14        2.07908  -0.00972   0.00000  -0.02823  -0.02823   2.05084
   R15        1.83269  -0.02294   0.00000  -0.04234  -0.04234   1.79035
    A1        2.03773   0.00824   0.00000   0.03905   0.03877   2.07650
    A2        1.88309  -0.00308   0.00000  -0.02568  -0.02529   1.85780
    A3        1.88649  -0.00197   0.00000   0.00631   0.00558   1.89206
    A4        1.87681  -0.00300   0.00000  -0.02524  -0.02485   1.85196
    A5        1.91208  -0.00194   0.00000   0.00578   0.00503   1.91711
    A6        1.85981   0.00126   0.00000  -0.00439  -0.00438   1.85542
    A7        1.98940   0.00277   0.00000   0.01180   0.01175   2.00115
    A8        1.89641  -0.00138   0.00000  -0.01017  -0.01011   1.88630
    A9        1.90936   0.00130   0.00000   0.01522   0.01519   1.92455
   A10        1.85128  -0.00120   0.00000  -0.01287  -0.01286   1.83843
   A11        1.94589  -0.00210   0.00000  -0.00838  -0.00855   1.93734
   A12        1.86604   0.00038   0.00000   0.00270   0.00270   1.86874
   A13        1.84970   0.00607   0.00000   0.03621   0.03621   1.88591
   A14        2.04378   0.00616   0.00000   0.02916   0.02898   2.07276
   A15        1.92346  -0.00135   0.00000   0.00462   0.00415   1.92761
   A16        1.88779  -0.00275   0.00000  -0.02454  -0.02434   1.86345
   A17        1.88282  -0.00158   0.00000   0.00552   0.00509   1.88791
   A18        1.86120  -0.00185   0.00000  -0.01565  -0.01539   1.84581
   A19        1.85519   0.00100   0.00000  -0.00252  -0.00251   1.85268
   A20        1.91211   0.00318   0.00000   0.01351   0.01346   1.92557
   A21        1.90902  -0.00066   0.00000  -0.00456  -0.00450   1.90452
   A22        1.92548   0.00093   0.00000   0.01417   0.01412   1.93960
   A23        1.90259  -0.00217   0.00000  -0.02051  -0.02051   1.88208
   A24        1.92898  -0.00168   0.00000  -0.00541  -0.00562   1.92336
   A25        1.88525   0.00032   0.00000   0.00210   0.00204   1.88729
   A26        1.88799   0.00320   0.00000   0.01908   0.01908   1.90708
    D1       -1.25573  -0.00176   0.00000  -0.08321  -0.08343  -1.33916
    D2        2.96737  -0.00102   0.00000  -0.06738  -0.06756   2.89981
    D3        0.93598  -0.00143   0.00000  -0.07330  -0.07341   0.86257
    D4        2.91299  -0.00104   0.00000  -0.05661  -0.05661   2.85638
    D5        0.85290  -0.00030   0.00000  -0.04078  -0.04073   0.81218
    D6       -1.17849  -0.00070   0.00000  -0.04670  -0.04658  -1.22507
    D7        0.90819   0.00006   0.00000  -0.04159  -0.04154   0.86665
    D8       -1.15190   0.00080   0.00000  -0.02576  -0.02566  -1.17756
    D9        3.09990   0.00040   0.00000  -0.03169  -0.03151   3.06838
   D10        1.18771   0.00182   0.00000   0.06851   0.06878   1.25649
   D11       -0.97241   0.00032   0.00000   0.03409   0.03420  -0.93821
   D12       -2.99368   0.00142   0.00000   0.04851   0.04862  -2.94506
   D13       -2.97770   0.00102   0.00000   0.04159   0.04164  -2.93607
   D14        1.14536  -0.00048   0.00000   0.00717   0.00706   1.15242
   D15       -0.87591   0.00062   0.00000   0.02159   0.02148  -0.85443
   D16       -0.96308  -0.00013   0.00000   0.02568   0.02569  -0.93739
   D17       -3.12320  -0.00163   0.00000  -0.00874  -0.00889  -3.13209
   D18        1.13871  -0.00053   0.00000   0.00569   0.00553   1.14424
   D19        1.14649   0.00179   0.00000   0.04532   0.04529   1.19178
   D20       -3.05091   0.00088   0.00000   0.03091   0.03084  -3.02007
   D21       -1.02578  -0.00043   0.00000   0.02237   0.02246  -1.00332
   D22       -1.32990  -0.00187   0.00000  -0.07132  -0.07147  -1.40137
   D23        2.86882  -0.00074   0.00000  -0.05167  -0.05176   2.81706
   D24        0.79747  -0.00128   0.00000  -0.05999  -0.06003   0.73744
   D25        0.85074  -0.00042   0.00000  -0.03849  -0.03847   0.81228
   D26       -1.23372   0.00071   0.00000  -0.01884  -0.01876  -1.25248
   D27        2.97812   0.00017   0.00000  -0.02717  -0.02703   2.95108
   D28        2.83753  -0.00091   0.00000  -0.04638  -0.04643   2.79110
   D29        0.75306   0.00022   0.00000  -0.02674  -0.02672   0.72634
   D30       -1.31829  -0.00032   0.00000  -0.03506  -0.03499  -1.35328
   D31        3.10743   0.00116   0.00000   0.02975   0.02975   3.13718
   D32       -1.08733   0.00095   0.00000   0.01988   0.01979  -1.06754
   D33        0.98216  -0.00100   0.00000   0.00663   0.00672   0.98888
         Item               Value     Threshold  Converged?
 Maximum Force            0.027223     0.000450     NO 
 RMS     Force            0.005998     0.000300     NO 
 Maximum Displacement     0.398095     0.001800     NO 
 RMS     Displacement     0.096197     0.001200     NO 
 Predicted change in Energy=-4.175181D-03
 GradGradGradGradGradGradGradGradGradGradGradGradGradGradGradGradGradGrad

                          Input orientation:                          
 ---------------------------------------------------------------------
 Center     Atomic      Atomic             Coordinates (Angstroms)
 Number     Number       Type             X           Y           Z
 ---------------------------------------------------------------------
      1          6           0        1.624537    1.287363    1.953454
      2          6           0        1.081486    2.365699    1.015165
      3          8           0        1.327085    3.677150    1.430213
      4          6           0        3.131835    0.977353    1.939668
      5          6           0        4.094181    1.993065    2.540037
      6          8           0        4.342339    3.040014    1.618840
      7          1           0        1.123618    0.361592    1.681017
      8          1           0        1.305061    1.520767    2.966025
      9          1           0        0.003622    2.272332    0.984388
     10          1           0        1.445519    2.202374    0.002071
     11          1           0        2.261737    3.835992    1.366668
     12          1           0        3.463750    0.751857    0.929775
     13          1           0        3.269565    0.064943    2.513989
     14          1           0        5.039348    1.505309    2.750952
     15          1           0        3.707193    2.396324    3.470311
     16          1           0        4.938825    3.664465    2.008527
 ---------------------------------------------------------------------
                    Distance matrix (angstroms):
                    1          2          3          4          5
     1  C    0.000000
     2  C    1.529085   0.000000
     3  O    2.464415   1.397314   0.000000
     4  C    1.538910   2.643132   3.287183   0.000000
     5  C    2.634623   3.397120   3.424131   1.522571   0.000000
     6  O    3.251184   3.384122   3.087600   2.413052   1.416435
     7  H    1.087288   2.112246   3.331250   2.116365   3.496265
     8  H    1.087126   2.137698   2.647488   2.164674   2.860721
     9  H    2.129934   1.082338   1.980866   3.517848   4.385283
    10  H    2.162681   1.088832   2.056351   2.845808   3.674302
    11  H    2.691812   1.917892   0.950180   3.042567   2.851495
    12  H    2.171954   2.878708   3.656926   1.086692   2.128611
    13  H    2.124765   3.511075   4.242150   1.086879   2.097219
    14  H    3.513465   4.406575   4.499127   2.139048   1.084312
    15  H    2.805014   3.594860   3.386359   2.165037   1.085260
    16  H    4.078988   4.189585   3.657769   3.238908   1.946664
                    6          7          8          9         10
     6  O    0.000000
     7  H    4.187837   0.000000
     8  H    3.653502   1.740073   0.000000
     9  H    4.451553   2.321769   2.487062   0.000000
    10  H    3.421571   2.512162   3.044559   1.746112   0.000000
    11  H    2.241891   3.669549   2.972110   2.773131   2.279703
    12  H    2.546054   2.488551   3.065529   3.779856   2.652902
    13  H    3.286820   2.320976   2.486571   4.228313   3.769017
    14  H    2.030473   4.217321   3.740508   5.391439   4.577975
    15  H    2.060508   3.743871   2.605982   4.462244   4.145054
    16  H    0.947413   5.056880   4.326255   5.229065   4.285646
                   11         12         13         14         15
    11  H    0.000000
    12  H    3.338801   0.000000
    13  H    4.068522   1.737611   0.000000
    14  H    3.881166   2.523269   2.294110   0.000000
    15  H    2.930409   3.036093   2.557618   1.756708   0.000000
    16  H    2.758297   3.438435   3.999810   2.285444   2.293886
                   16
    16  H    0.000000
 Stoichiometry    C4H10O2
 Framework group  C1[X(C4H10O2)]
 Deg. of freedom    42
 Full point group                 C1      NOp   1
 Largest Abelian subgroup         C1      NOp   1
 Largest concise Abelian subgroup C1      NOp   1
                         Standard orientation:                         
 ---------------------------------------------------------------------
 Center     Atomic      Atomic             Coordinates (Angstroms)
 Number     Number       Type             X           Y           Z
 ---------------------------------------------------------------------
      1          6           0        0.801324    1.128762    0.209485
      2          6           0        1.692144    0.001135   -0.313008
      3          8           0        1.499352   -1.232398    0.314459
      4          6           0       -0.674936    1.173716   -0.222811
      5          6           0       -1.637156    0.140874    0.347798
      6          8           0       -1.512474   -1.085781   -0.349380
      7          1           0        1.245841    2.058250   -0.137865
      8          1           0        0.868780    1.144846    1.294397
      9          1           0        2.722107    0.266434   -0.112391
     10          1           0        1.590224   -0.090358   -1.393191
     11          1           0        0.638890   -1.554643    0.072373
     12          1           0       -0.754098    1.148390   -1.306319
     13          1           0       -1.062821    2.140876    0.086144
     14          1           0       -2.654301    0.493947    0.219398
     15          1           0       -1.463830   -0.011488    1.408238
     16          1           0       -2.114078   -1.717743    0.019791
 ---------------------------------------------------------------------
 Rotational constants (GHZ):      4.7260137      2.5882422      1.8522551
 Standard basis: 6-31G(d) (6D, 7F)
 There are   110 symmetry adapted cartesian basis functions of A   symmetry.
 There are   110 symmetry adapted basis functions of A   symmetry.
   110 basis functions,   208 primitive gaussians,   110 cartesian basis functions
    25 alpha electrons       25 beta electrons
       nuclear repulsion energy       260.3317506673 Hartrees.
 NAtoms=   16 NActive=   16 NUniq=   16 SFac= 1.00D+00 NAtFMM=   60 NAOKFM=F Big=F
 Integral buffers will be    131072 words long.
 Raffenetti 1 integral format.
 Two-electron integral symmetry is turned on.
 One-electron integrals computed using PRISM.
 NBasis=   110 RedAO= T EigKep=  4.90D-03  NBF=   110
 NBsUse=   110 1.00D-06 EigRej= -1.00D+00 NBFU=   110
 Initial guess from the checkpoint file:  "1-4-butanediol-opt.chk"
 B after Tr=     0.000000   -0.000000    0.000000
         Rot=    0.999927   -0.000915   -0.006176   -0.010319 Ang=  -1.38 deg.
 ExpMin= 1.61D-01 ExpMax= 5.48D+03 ExpMxC= 8.25D+02 IAcc=1 IRadAn=         1 AccDes= 0.00D+00
 Harris functional with IExCor=  205 and IRadAn=       1 diagonalized for initial guess.
 HarFok:  IExCor=  205 AccDes= 0.00D+00 IRadAn=         1 IDoV= 1 UseB2=F ITyADJ=14
 ICtDFT=  3500011 ScaDFX=  1.000000  1.000000  1.000000  1.000000
 FoFCou: FMM=F IPFlag=           0 FMFlag=      100000 FMFlg1=           0
         NFxFlg=           0 DoJE=T BraDBF=F KetDBF=T FulRan=T
         wScrn=  0.000000 ICntrl=     500 IOpCl=  0 I1Cent=   200000004 NGrid=           0
         NMat0=    1 NMatS0=      1 NMatT0=    0 NMatD0=    1 NMtDS0=    0 NMtDT0=    0
 Petite list used in FoFCou.
 Keep R1 ints in memory in canonical form, NReq=19587855.
 Requested convergence on RMS density matrix=1.00D-08 within 128 cycles.
 Requested convergence on MAX density matrix=1.00D-06.
 Requested convergence on             energy=1.00D-06.
 No special actions if energy rises.
 SCF Done:  E(RHF) =  -306.993352056     A.U. after   11 cycles
            NFock= 11  Conv=0.65D-08     -V/T= 2.0013
 Calling FoFJK, ICntrl=      2127 FMM=F ISym2X=0 I1Cent= 0 IOpClX= 0 NMat=1 NMatS=1 NMatT=0.
 ***** Axes restored to original set *****
 -------------------------------------------------------------------
 Center     Atomic                   Forces (Hartrees/Bohr)
 Number     Number              X              Y              Z
 -------------------------------------------------------------------
      1        6           0.000359069   -0.000455436   -0.000507152
      2        6          -0.000976066   -0.000692953    0.000408486
      3        8           0.007045205    0.000046035    0.000643399
      4        6           0.000497619   -0.000535602    0.001253294
      5        6           0.002649980    0.005005265   -0.005329866
      6        8          -0.008018489    0.000645786    0.000699745
      7        1          -0.000744028   -0.000814386    0.000349951
      8        1           0.000272580    0.000734715    0.000165820
      9        1          -0.000622999   -0.000765415   -0.000431220
     10        1           0.000909649   -0.000161673   -0.000055866
     11        1           0.000559511    0.000509464    0.000470670
     12        1          -0.000083681    0.000822240   -0.000423283
     13        1          -0.000480391   -0.001064731   -0.000222462
     14        1           0.000107849   -0.002755866    0.002177599
     15        1          -0.001309848   -0.000469047    0.001295645
     16        1          -0.000165959   -0.000048396   -0.000494760
 -------------------------------------------------------------------
 Cartesian Forces:  Max     0.008018489 RMS     0.002058216

 GradGradGradGradGradGradGradGradGradGradGradGradGradGradGradGradGradGrad
 Berny optimization.
 Using GEDIIS/GDIIS optimizer.
 FormGI is forming the generalized inverse of G from B-inverse, IUseBI=4.
 Internal  Forces:  Max     0.018610870 RMS     0.004301964
 Search for a local minimum.
 Step number   2 out of a maximum of   84
 All quantities printed in internal units (Hartrees-Bohrs-Radians)
 Mixed Optimization -- RFO/linear search
 Update second derivatives using D2CorX and points    1    2
 DE= -9.33D-04 DEPred=-4.18D-03 R= 2.24D-01
 Trust test= 2.24D-01 RLast= 2.86D-01 DXMaxT set to 3.00D-01
 ITU=  0  0
 Use linear search instead of GDIIS.
     Eigenvalues ---    0.00232   0.00326   0.00469   0.01191   0.01496
     Eigenvalues ---    0.02903   0.03297   0.04566   0.04689   0.04760
     Eigenvalues ---    0.05272   0.05843   0.05903   0.09316   0.09332
     Eigenvalues ---    0.11481   0.11929   0.12911   0.12927   0.13648
     Eigenvalues ---    0.14037   0.15139   0.16000   0.21897   0.22026
     Eigenvalues ---    0.22065   0.22911   0.28067   0.28942   0.29665
     Eigenvalues ---    0.33257   0.33683   0.33738   0.33763   0.33801
     Eigenvalues ---    0.33849   0.34050   0.37439   0.40858   0.45254
     Eigenvalues ---    0.51804   0.52893
 RFO step:  Lambda=-5.88817206D-03 EMin= 2.32124611D-03
 Quartic linear search produced a step of -0.45093.
 Iteration  1 RMS(Cart)=  0.14073373 RMS(Int)=  0.00634563
 Iteration  2 RMS(Cart)=  0.00812465 RMS(Int)=  0.00013037
 Iteration  3 RMS(Cart)=  0.00001407 RMS(Int)=  0.00012990
 Iteration  4 RMS(Cart)=  0.00000000 RMS(Int)=  0.00012990
 Variable       Old X    -DE/DX   Delta X   Delta X   Delta X     New X
                                 (Linear)    (Quad)   (Total)
    R1        2.88955  -0.00384   0.00520  -0.02113  -0.01593   2.87363
    R2        2.90812  -0.00698   0.00151  -0.01811  -0.01661   2.89151
    R3        2.05468   0.00095   0.01045  -0.02550  -0.01505   2.03963
    R4        2.05437   0.00023   0.01008  -0.02578  -0.01570   2.03867
    R5        2.64054   0.00219   0.01509  -0.03658  -0.02149   2.61905
    R6        2.04532   0.00070   0.01185  -0.02959  -0.01774   2.02758
    R7        2.05759   0.00038   0.01350  -0.03438  -0.02087   2.03672
    R8        1.79558   0.00060   0.02332  -0.06076  -0.03744   1.75814
    R9        2.87724  -0.00332   0.00360  -0.01579  -0.01219   2.86505
   R10        2.05355   0.00020   0.01040  -0.02667  -0.01627   2.03728
   R11        2.05390   0.00072   0.00980  -0.02421  -0.01442   2.03949
   R12        2.67667  -0.00113   0.01826  -0.04937  -0.03111   2.64556
   R13        2.04905   0.00176   0.01283  -0.03028  -0.01745   2.03160
   R14        2.05084   0.00140   0.01273  -0.03063  -0.01790   2.03294
   R15        1.79035  -0.00034   0.01909  -0.05071  -0.03162   1.75873
    A1        2.07650  -0.01861  -0.01748  -0.00980  -0.02739   2.04910
    A2        1.85780   0.00570   0.01140   0.00452   0.01597   1.87378
    A3        1.89206   0.00557  -0.00251  -0.00261  -0.00535   1.88672
    A4        1.85196   0.00680   0.01121   0.01052   0.02177   1.87373
    A5        1.91711   0.00443  -0.00227  -0.00685  -0.00927   1.90783
    A6        1.85542  -0.00256   0.00198   0.00696   0.00899   1.86441
    A7        2.00115  -0.00759  -0.00530  -0.00830  -0.01371   1.98743
    A8        1.88630   0.00212   0.00456   0.00474   0.00929   1.89559
    A9        1.92455   0.00094  -0.00685   0.00715   0.00004   1.92459
   A10        1.83843   0.00448   0.00580   0.01421   0.02008   1.85851
   A11        1.93734   0.00117   0.00386  -0.02314  -0.01939   1.91795
   A12        1.86874  -0.00049  -0.00122   0.00768   0.00651   1.87524
   A13        1.88591   0.00100  -0.01633   0.04407   0.02774   1.91365
   A14        2.07276  -0.01724  -0.01307  -0.01717  -0.03048   2.04228
   A15        1.92761   0.00372  -0.00187  -0.00959  -0.01190   1.91571
   A16        1.86345   0.00593   0.01097   0.00879   0.02000   1.88345
   A17        1.88791   0.00519  -0.00229  -0.00410  -0.00697   1.88094
   A18        1.84581   0.00601   0.00694   0.01800   0.02508   1.87089
   A19        1.85268  -0.00230   0.00113   0.00856   0.00977   1.86245
   A20        1.92557  -0.00793  -0.00607  -0.00587  -0.01205   1.91352
   A21        1.90452   0.00074   0.00203   0.00328   0.00531   1.90982
   A22        1.93960   0.00030  -0.00637   0.00164  -0.00491   1.93469
   A23        1.88208   0.00657   0.00925   0.01738   0.02667   1.90874
   A24        1.92336   0.00130   0.00253  -0.01816  -0.01572   1.90764
   A25        1.88729  -0.00063  -0.00092   0.00265   0.00183   1.88912
   A26        1.90708   0.00070  -0.00861   0.02385   0.01524   1.92232
    D1       -1.33916   0.00497   0.03762   0.13975   0.17735  -1.16181
    D2        2.89981   0.00247   0.03046   0.12369   0.15416   3.05398
    D3        0.86257   0.00132   0.03310   0.10779   0.14087   1.00344
    D4        2.85638   0.00360   0.02553   0.12868   0.15419   3.01057
    D5        0.81218   0.00110   0.01837   0.11261   0.13100   0.94317
    D6       -1.22507  -0.00005   0.02101   0.09672   0.11771  -1.10736
    D7        0.86665   0.00111   0.01873   0.11963   0.13836   1.00501
    D8       -1.17756  -0.00139   0.01157   0.10356   0.11517  -1.06238
    D9        3.06838  -0.00254   0.01421   0.08767   0.10188  -3.11292
   D10        1.25649  -0.00344  -0.03101  -0.06381  -0.09464   1.16184
   D11       -0.93821   0.00038  -0.01542  -0.03424  -0.04973  -0.98794
   D12       -2.94506  -0.00206  -0.02192  -0.04435  -0.06620  -3.01126
   D13       -2.93607  -0.00257  -0.01878  -0.05579  -0.07445  -3.01051
   D14        1.15242   0.00124  -0.00318  -0.02621  -0.02953   1.12289
   D15       -0.85443  -0.00120  -0.00968  -0.03632  -0.04600  -0.90043
   D16       -0.93739   0.00017  -0.01159  -0.04540  -0.05693  -0.99432
   D17       -3.13209   0.00398   0.00401  -0.01583  -0.01201   3.13908
   D18        1.14424   0.00154  -0.00249  -0.02594  -0.02848   1.11577
   D19        1.19178  -0.00193  -0.02042  -0.00117  -0.02141   1.17037
   D20       -3.02007  -0.00057  -0.01391   0.00958  -0.00425  -3.02432
   D21       -1.00332   0.00191  -0.01013   0.01524   0.00486  -0.99846
   D22       -1.40137   0.00573   0.03223   0.13286   0.16498  -1.23639
   D23        2.81706   0.00197   0.02334   0.11315   0.13639   2.95345
   D24        0.73744   0.00209   0.02707   0.10679   0.13378   0.87122
   D25        0.81228   0.00164   0.01735   0.10147   0.11885   0.93112
   D26       -1.25248  -0.00212   0.00846   0.08175   0.09026  -1.16222
   D27        2.95108  -0.00200   0.01219   0.07540   0.08765   3.03873
   D28        2.79110   0.00423   0.02094   0.11806   0.13902   2.93012
   D29        0.72634   0.00046   0.01205   0.09834   0.11043   0.83677
   D30       -1.35328   0.00058   0.01578   0.09198   0.10782  -1.24545
   D31        3.13718  -0.00143  -0.01342  -0.00186  -0.01517   3.12202
   D32       -1.06754  -0.00112  -0.00892   0.00922   0.00039  -1.06716
   D33        0.98888   0.00269  -0.00303   0.01245   0.00922   0.99810
         Item               Value     Threshold  Converged?
 Maximum Force            0.018611     0.000450     NO 
 RMS     Force            0.004302     0.000300     NO 
 Maximum Displacement     0.549138     0.001800     NO 
 RMS     Displacement     0.139751     0.001200     NO 
 Predicted change in Energy=-3.256859D-03
 GradGradGradGradGradGradGradGradGradGradGradGradGradGradGradGradGradGrad

                          Input orientation:                          
 ---------------------------------------------------------------------
 Center     Atomic      Atomic             Coordinates (Angstroms)
 Number     Number       Type             X           Y           Z
 ---------------------------------------------------------------------
      1          6           0        1.623228    1.256227    1.948071
      2          6           0        1.147428    2.380854    1.041856
      3          8           0        1.598817    3.635327    1.420514
      4          6           0        3.121385    0.945241    1.957341
      5          6           0        4.041813    2.008017    2.524738
      6          8           0        4.098036    3.098331    1.648396
      7          1           0        1.109684    0.357390    1.642617
      8          1           0        1.298123    1.475341    2.953130
      9          1           0        0.075763    2.419284    1.077669
     10          1           0        1.429660    2.182393    0.020788
     11          1           0        2.521044    3.683178    1.307412
     12          1           0        3.453654    0.722595    0.956200
     13          1           0        3.270864    0.049398    2.540350
     14          1           0        5.028111    1.598263    2.647636
     15          1           0        3.693858    2.342247    3.486267
     16          1           0        4.648234    3.762516    1.998116
 ---------------------------------------------------------------------
                    Distance matrix (angstroms):
                    1          2          3          4          5
     1  C    0.000000
     2  C    1.520657   0.000000
     3  O    2.437013   1.385943   0.000000
     4  C    1.530122   2.606838   3.137349   0.000000
     5  C    2.597554   3.273440   3.136188   1.516120   0.000000
     6  O    3.099650   3.096571   2.566397   2.384342   1.399971
     7  H    1.079323   2.111101   3.321665   2.119331   3.478518
     8  H    1.078818   2.120291   2.665497   2.144035   2.827560
     9  H    2.122486   1.072951   1.978888   3.496060   4.241780
    10  H    2.147015   1.077785   2.024565   2.853544   3.622639
    11  H    2.665822   1.911383   0.930367   2.877345   2.569199
    12  H    2.149194   2.841803   3.484253   1.078080   2.111529
    13  H    2.126484   3.491440   4.112015   1.079250   2.104946
    14  H    3.492794   4.272082   4.173190   2.130387   1.075075
    15  H    2.798748   3.530006   3.213812   2.148712   1.075788
    16  H    3.928696   3.883177   3.106242   3.204679   1.929597
                    6          7          8          9         10
     6  O    0.000000
     7  H    4.055002   0.000000
     8  H    3.489404   1.732850   0.000000
     9  H    4.118921   2.374777   2.429515   0.000000
    10  H    3.257035   2.462387   3.019248   1.733826   0.000000
    11  H    1.716165   3.628383   3.013050   2.762174   2.258068
    12  H    2.557046   2.469563   3.033261   3.782017   2.665063
    13  H    3.282650   2.360399   2.468888   4.238450   3.779933
    14  H    2.028232   4.231300   3.744495   5.259716   4.493372
    15  H    2.028002   3.743883   2.602942   4.347169   4.142667
    16  H    0.930679   4.923678   4.167309   4.853759   4.094610
                   11         12         13         14         15
    11  H    0.000000
    12  H    3.123806   0.000000
    13  H    3.909824   1.730936   0.000000
    14  H    3.525402   2.471167   2.344869   0.000000
    15  H    2.814427   3.013671   2.516116   1.742712   0.000000
    16  H    2.237924   3.428372   3.997301   2.291327   2.267728
                   16
    16  H    0.000000
 Stoichiometry    C4H10O2
 Framework group  C1[X(C4H10O2)]
 Deg. of freedom    42
 Full point group                 C1      NOp   1
 Largest Abelian subgroup         C1      NOp   1
 Largest concise Abelian subgroup C1      NOp   1
                         Standard orientation:                         
 ---------------------------------------------------------------------
 Center     Atomic      Atomic             Coordinates (Angstroms)
 Number     Number       Type             X           Y           Z
 ---------------------------------------------------------------------
      1          6           0        0.813771    1.146713    0.219085
      2          6           0        1.637963   -0.042808   -0.247978
      3          8           0        1.217216   -1.256059    0.273397
      4          6           0       -0.644403    1.216690   -0.239284
      5          6           0       -1.584856    0.152397    0.291230
      6          8           0       -1.279004   -1.080942   -0.296350
      7          1           0        1.306149    2.039055   -0.136201
      8          1           0        0.850839    1.177713    1.296820
      9          1           0        2.651139    0.093600    0.077737
     10          1           0        1.648334   -0.090218   -1.324670
     11          1           0        0.377023   -1.467638   -0.065562
     12          1           0       -0.689769    1.188751   -1.316048
     13          1           0       -1.041965    2.173320    0.063344
     14          1           0       -2.598407    0.419532    0.052188
     15          1           0       -1.502392    0.067054    1.360452
     16          1           0       -1.841500   -1.743117    0.037245
 ---------------------------------------------------------------------
 Rotational constants (GHZ):      4.7046616      3.0738144      2.0505409
 Standard basis: 6-31G(d) (6D, 7F)
 There are   110 symmetry adapted cartesian basis functions of A   symmetry.
 There are   110 symmetry adapted basis functions of A   symmetry.
   110 basis functions,   208 primitive gaussians,   110 cartesian basis functions
    25 alpha electrons       25 beta electrons
       nuclear repulsion energy       268.2148817136 Hartrees.
 NAtoms=   16 NActive=   16 NUniq=   16 SFac= 1.00D+00 NAtFMM=   60 NAOKFM=F Big=F
 Integral buffers will be    131072 words long.
 Raffenetti 1 integral format.
 Two-electron integral symmetry is turned on.
 One-electron integrals computed using PRISM.
 NBasis=   110 RedAO= T EigKep=  4.77D-03  NBF=   110
 NBsUse=   110 1.00D-06 EigRej= -1.00D+00 NBFU=   110
 Initial guess from the checkpoint file:  "1-4-butanediol-opt.chk"
 B after Tr=    -0.000000   -0.000000    0.000000
         Rot=    0.999884    0.001308    0.012539    0.008565 Ang=   1.75 deg.
 ExpMin= 1.61D-01 ExpMax= 5.48D+03 ExpMxC= 8.25D+02 IAcc=1 IRadAn=         1 AccDes= 0.00D+00
 Harris functional with IExCor=  205 and IRadAn=       1 diagonalized for initial guess.
 HarFok:  IExCor=  205 AccDes= 0.00D+00 IRadAn=         1 IDoV= 1 UseB2=F ITyADJ=14
 ICtDFT=  3500011 ScaDFX=  1.000000  1.000000  1.000000  1.000000
 FoFCou: FMM=F IPFlag=           0 FMFlag=      100000 FMFlg1=           0
         NFxFlg=           0 DoJE=T BraDBF=F KetDBF=T FulRan=T
         wScrn=  0.000000 ICntrl=     500 IOpCl=  0 I1Cent=   200000004 NGrid=           0
         NMat0=    1 NMatS0=      1 NMatT0=    0 NMatD0=    1 NMtDS0=    0 NMtDT0=    0
 Petite list used in FoFCou.
 Keep R1 ints in memory in canonical form, NReq=19588999.
 Requested convergence on RMS density matrix=1.00D-08 within 128 cycles.
 Requested convergence on MAX density matrix=1.00D-06.
 Requested convergence on             energy=1.00D-06.
 No special actions if energy rises.
 SCF Done:  E(RHF) =  -306.990533556     A.U. after   11 cycles
            NFock= 11  Conv=0.75D-08     -V/T= 2.0002
 Calling FoFJK, ICntrl=      2127 FMM=F ISym2X=0 I1Cent= 0 IOpClX= 0 NMat=1 NMatS=1 NMatT=0.
 ***** Axes restored to original set *****
 -------------------------------------------------------------------
 Center     Atomic                   Forces (Hartrees/Bohr)
 Number     Number              X              Y              Z
 -------------------------------------------------------------------
      1        6           0.001624263    0.001494613    0.000173213
      2        6           0.006637778    0.001668283    0.001598969
      3        8          -0.032707907    0.010799851    0.006014114
      4        6          -0.001506684    0.003159359   -0.000703936
      5        6          -0.005775350   -0.002198069    0.000753736
      6        8           0.004302322   -0.008560427   -0.014967405
      7        1          -0.003302590   -0.005856694   -0.000946749
      8        1          -0.002087835    0.001161306    0.006223616
      9        1          -0.007933461   -0.000582001   -0.000290451
     10        1           0.001418343   -0.004632727   -0.008847661
     11        1           0.018274388   -0.000579761   -0.002348684
     12        1           0.002511728   -0.001992687   -0.006393915
     13        1           0.001317452   -0.004815290    0.003067736
     14        1           0.007504386   -0.003659250    0.001075045
     15        1          -0.002994688    0.000290096    0.008345028
     16        1           0.012717854    0.014303399    0.007247345
 -------------------------------------------------------------------
 Cartesian Forces:  Max     0.032707907 RMS     0.007764240

 GradGradGradGradGradGradGradGradGradGradGradGradGradGradGradGradGradGrad
 Berny optimization.
 Using GEDIIS/GDIIS optimizer.
 FormGI is forming the generalized inverse of G from B-inverse, IUseBI=4.
 Internal  Forces:  Max     0.037612931 RMS     0.010155458
 Search for a local minimum.
 Step number   3 out of a maximum of   84
 All quantities printed in internal units (Hartrees-Bohrs-Radians)
 Mixed Optimization -- RFO/linear search
 Update second derivatives using D2CorX and points    1    3    2
 DE=  2.82D-03 DEPred=-3.26D-03 R=-8.65D-01
 Trust test=-8.65D-01 RLast= 5.94D-01 DXMaxT set to 1.50D-01
 ITU= -1  0  0
 Use linear search instead of GDIIS.
     Eigenvalues ---    0.00230   0.00343   0.00691   0.01190   0.01484
     Eigenvalues ---    0.03077   0.03482   0.04665   0.04711   0.04896
     Eigenvalues ---    0.05757   0.05817   0.06214   0.09014   0.09054
     Eigenvalues ---    0.11288   0.11838   0.12694   0.12754   0.13734
     Eigenvalues ---    0.14085   0.15572   0.16001   0.22014   0.22023
     Eigenvalues ---    0.22063   0.27727   0.28749   0.29588   0.31504
     Eigenvalues ---    0.33313   0.33682   0.33740   0.33777   0.33801
     Eigenvalues ---    0.33849   0.34054   0.38380   0.42597   0.48793
     Eigenvalues ---    0.52710   0.70811
 RFO step:  Lambda=-4.21097914D-03 EMin= 2.30043547D-03
 Quartic linear search produced a step of -0.54898.
 Iteration  1 RMS(Cart)=  0.08870004 RMS(Int)=  0.00170692
 Iteration  2 RMS(Cart)=  0.00262285 RMS(Int)=  0.00023249
 Iteration  3 RMS(Cart)=  0.00000516 RMS(Int)=  0.00023248
 Iteration  4 RMS(Cart)=  0.00000000 RMS(Int)=  0.00023248
 Variable       Old X    -DE/DX   Delta X   Delta X   Delta X     New X
                                 (Linear)    (Quad)   (Total)
    R1        2.87363   0.01172   0.00874   0.01019   0.01894   2.89256
    R2        2.89151   0.01840   0.00912   0.01508   0.02420   2.91571
    R3        2.03963   0.00672   0.00826   0.00888   0.01715   2.05677
    R4        2.03867   0.00666   0.00862   0.00790   0.01652   2.05519
    R5        2.61905   0.00555   0.01180   0.00714   0.01894   2.63799
    R6        2.02758   0.00789   0.00974   0.00982   0.01956   2.04714
    R7        2.03672   0.00961   0.01146   0.01168   0.02314   2.05986
    R8        1.75814   0.01837   0.02055   0.01469   0.03525   1.79339
    R9        2.86505   0.01061   0.00669   0.00927   0.01596   2.88101
   R10        2.03728   0.00712   0.00893   0.00839   0.01732   2.05460
   R11        2.03949   0.00584   0.00791   0.00753   0.01545   2.05493
   R12        2.64556   0.00999   0.01708   0.00854   0.02562   2.67118
   R13        2.03160   0.00840   0.00958   0.01184   0.02142   2.05302
   R14        2.03294   0.00852   0.00983   0.01156   0.02138   2.05433
   R15        1.75873   0.02045   0.01736   0.01511   0.03247   1.79120
    A1        2.04910   0.03726   0.01504   0.03335   0.04821   2.09731
    A2        1.87378  -0.01075  -0.00877  -0.01030  -0.01868   1.85510
    A3        1.88672  -0.01141   0.00293  -0.00495  -0.00269   1.88403
    A4        1.87373  -0.01490  -0.01195  -0.01966  -0.03130   1.84243
    A5        1.90783  -0.00734   0.00509   0.00286   0.00744   1.91527
    A6        1.86441   0.00499  -0.00493  -0.00468  -0.00973   1.85468
    A7        1.98743   0.01596   0.00753   0.01567   0.02308   2.01051
    A8        1.89559  -0.00478  -0.00510  -0.01054  -0.01562   1.87997
    A9        1.92459  -0.00547  -0.00002  -0.00712  -0.00754   1.91705
   A10        1.85851  -0.00902  -0.01102  -0.01215  -0.02300   1.83551
   A11        1.91795   0.00110   0.01065   0.01647   0.02696   1.94491
   A12        1.87524   0.00131  -0.00357  -0.00399  -0.00763   1.86762
   A13        1.91365  -0.00260  -0.01523  -0.00191  -0.01714   1.89651
   A14        2.04228   0.03761   0.01673   0.03636   0.05290   2.09518
   A15        1.91571  -0.00678   0.00653   0.00256   0.00849   1.92420
   A16        1.88345  -0.01473  -0.01098  -0.02183  -0.03240   1.85105
   A17        1.88094  -0.01153   0.00383  -0.00551  -0.00247   1.87847
   A18        1.87089  -0.01192  -0.01377  -0.01144  -0.02475   1.84614
   A19        1.86245   0.00514  -0.00536  -0.00354  -0.00905   1.85339
   A20        1.91352   0.01712   0.00661   0.01820   0.02469   1.93820
   A21        1.90982  -0.00567  -0.00291  -0.01789  -0.02081   1.88901
   A22        1.93469  -0.00439   0.00269  -0.00768  -0.00546   1.92923
   A23        1.90874  -0.01010  -0.01464  -0.00605  -0.02049   1.88825
   A24        1.90764   0.00095   0.00863   0.01935   0.02782   1.93546
   A25        1.88912   0.00170  -0.00100  -0.00629  -0.00743   1.88169
   A26        1.92232   0.00014  -0.00837   0.00318  -0.00518   1.91713
    D1       -1.16181  -0.01181  -0.09736   0.10385   0.00641  -1.15540
    D2        3.05398  -0.00712  -0.08463   0.11661   0.03199   3.08597
    D3        1.00344  -0.00276  -0.07734   0.13174   0.05430   1.05774
    D4        3.01057  -0.00889  -0.08465   0.11531   0.03069   3.04126
    D5        0.94317  -0.00420  -0.07192   0.12807   0.05628   0.99945
    D6       -1.10736   0.00017  -0.06462   0.14320   0.07858  -1.02878
    D7        1.00501  -0.00359  -0.07596   0.12841   0.05244   1.05745
    D8       -1.06238   0.00110  -0.06323   0.14117   0.07802  -0.98436
    D9       -3.11292   0.00546  -0.05593   0.15630   0.10033  -3.01260
   D10        1.16184   0.00592   0.05196  -0.07036  -0.01794   1.14390
   D11       -0.98794  -0.00140   0.02730  -0.09277  -0.06540  -1.05334
   D12       -3.01126   0.00431   0.03634  -0.07778  -0.04133  -3.05259
   D13       -3.01051   0.00516   0.04087  -0.07694  -0.03592  -3.04644
   D14        1.12289  -0.00215   0.01621  -0.09935  -0.08337   1.03951
   D15       -0.90043   0.00356   0.02525  -0.08436  -0.05931  -0.95974
   D16       -0.99432  -0.00075   0.03125  -0.09154  -0.06016  -1.05448
   D17        3.13908  -0.00806   0.00659  -0.11395  -0.10761   3.03147
   D18        1.11577  -0.00235   0.01563  -0.09896  -0.08355   1.03222
   D19        1.17037   0.00246   0.01175  -0.00265   0.00937   1.17974
   D20       -3.02432  -0.00014   0.00233  -0.01471  -0.01233  -3.03665
   D21       -0.99846  -0.00298  -0.00267  -0.01772  -0.02071  -1.01917
   D22       -1.23639  -0.01273  -0.09057   0.06533  -0.02537  -1.26175
   D23        2.95345  -0.00736  -0.07487   0.07260  -0.00226   2.95119
   D24        0.87122  -0.00314  -0.07344   0.09648   0.02289   0.89411
   D25        0.93112  -0.00384  -0.06525   0.09085   0.02557   0.95669
   D26       -1.16222   0.00153  -0.04955   0.09813   0.04868  -1.11355
   D27        3.03873   0.00575  -0.04812   0.12200   0.07382   3.11256
   D28        2.93012  -0.00938  -0.07632   0.07843   0.00215   2.93227
   D29        0.83677  -0.00401  -0.06062   0.08570   0.02526   0.86203
   D30       -1.24545   0.00021  -0.05919   0.10958   0.05041  -1.19505
   D31        3.12202   0.00334   0.00833   0.02208   0.03072  -3.13045
   D32       -1.06716   0.00066  -0.00021   0.00757   0.00741  -1.05975
   D33        0.99810  -0.00266  -0.00506   0.00776   0.00234   1.00044
         Item               Value     Threshold  Converged?
 Maximum Force            0.037613     0.000450     NO 
 RMS     Force            0.010155     0.000300     NO 
 Maximum Displacement     0.373616     0.001800     NO 
 RMS     Displacement     0.089414     0.001200     NO 
 Predicted change in Energy=-2.523111D-03
 GradGradGradGradGradGradGradGradGradGradGradGradGradGradGradGradGradGrad

                          Input orientation:                          
 ---------------------------------------------------------------------
 Center     Atomic      Atomic             Coordinates (Angstroms)
 Number     Number       Type             X           Y           Z
 ---------------------------------------------------------------------
      1          6           0        1.618133    1.265578    1.921990
      2          6           0        1.081285    2.385403    1.027137
      3          8           0        1.463975    3.676131    1.396311
      4          6           0        3.132034    0.972064    1.972727
      5          6           0        4.092060    2.009804    2.543466
      6          8           0        4.239014    3.104748    1.661672
      7          1           0        1.153905    0.345658    1.571496
      8          1           0        1.242336    1.431979    2.928903
      9          1           0        0.000612    2.377823    1.102162
     10          1           0        1.330059    2.178539   -0.013768
     11          1           0        2.398545    3.766876    1.258537
     12          1           0        3.494959    0.695322    0.985910
     13          1           0        3.246426    0.088777    2.596595
     14          1           0        5.064429    1.541401    2.667506
     15          1           0        3.755984    2.342665    3.522266
     16          1           0        4.845943    3.733833    2.028189
 ---------------------------------------------------------------------
                    Distance matrix (angstroms):
                    1          2          3          4          5
     1  C    0.000000
     2  C    1.530678   0.000000
     3  O    2.472017   1.395965   0.000000
     4  C    1.542926   2.664065   3.229033   0.000000
     5  C    2.657145   3.391917   3.316540   1.524565   0.000000
     6  O    3.212372   3.300204   2.845652   2.422912   1.413527
     7  H    1.088396   2.112382   3.349460   2.113378   3.513810
     8  H    1.087560   2.133464   2.726569   2.167199   2.933151
     9  H    2.127341   1.083300   1.978272   3.541164   4.353475
    10  H    2.159548   1.090031   2.061320   2.940895   3.767834
    11  H    2.702907   1.922807   0.949019   2.976416   2.757960
    12  H    2.173456   2.946845   3.630226   1.087248   2.123764
    13  H    2.119267   3.524986   4.181736   1.087424   2.099586
    14  H    3.536783   4.389600   4.374503   2.130965   1.086411
    15  H    2.879480   3.658075   3.398693   2.160771   1.087103
    16  H    4.064765   4.122259   3.440974   3.250835   1.950929
                    6          7          8          9         10
     6  O    0.000000
     7  H    4.139880   0.000000
     8  H    3.658431   1.740824   0.000000
     9  H    4.336534   2.383286   2.402808   0.000000
    10  H    3.482382   2.429721   3.037164   1.747125   0.000000
    11  H    1.997063   3.654012   3.094946   2.775609   2.298529
    12  H    2.610671   2.438382   3.064669   3.880049   2.808216
    13  H    3.309893   2.344240   2.435364   4.243627   3.854032
    14  H    2.033978   4.233585   3.832584   5.365832   4.641196
    15  H    2.067824   3.816328   2.738587   4.467769   4.291339
    16  H    0.947863   5.031842   4.369874   5.116006   4.353156
                   11         12         13         14         15
    11  H    0.000000
    12  H    3.272750   0.000000
    13  H    4.004711   1.738957   0.000000
    14  H    3.747649   2.450888   2.328149   0.000000
    15  H    2.999248   3.035617   2.489282   1.756322   0.000000
    16  H    2.565777   3.484831   4.020941   2.294171   2.314222
                   16
    16  H    0.000000
 Stoichiometry    C4H10O2
 Framework group  C1[X(C4H10O2)]
 Deg. of freedom    42
 Full point group                 C1      NOp   1
 Largest Abelian subgroup         C1      NOp   1
 Largest concise Abelian subgroup C1      NOp   1
                         Standard orientation:                         
 ---------------------------------------------------------------------
 Center     Atomic      Atomic             Coordinates (Angstroms)
 Number     Number       Type             X           Y           Z
 ---------------------------------------------------------------------
      1          6           0        0.827186    1.144053    0.191376
      2          6           0        1.702023   -0.029720   -0.255719
      3          8           0        1.356114   -1.268854    0.286140
      4          6           0       -0.659307    1.203133   -0.217852
      5          6           0       -1.637614    0.158241    0.306948
      6          8           0       -1.421021   -1.095095   -0.309732
      7          1           0        1.281233    2.040136   -0.227532
      8          1           0        0.914619    1.234764    1.271614
      9          1           0        2.710524    0.159861    0.091447
     10          1           0        1.741521   -0.068033   -1.344360
     11          1           0        0.512840   -1.528398   -0.063377
     12          1           0       -0.750815    1.225203   -1.301017
     13          1           0       -1.031251    2.161204    0.137464
     14          1           0       -2.645390    0.484969    0.066276
     15          1           0       -1.564023    0.076082    1.388441
     16          1           0       -2.043727   -1.728443    0.021256
 ---------------------------------------------------------------------
 Rotational constants (GHZ):      4.6546411      2.7512749      1.8967187
 Standard basis: 6-31G(d) (6D, 7F)
 There are   110 symmetry adapted cartesian basis functions of A   symmetry.
 There are   110 symmetry adapted basis functions of A   symmetry.
   110 basis functions,   208 primitive gaussians,   110 cartesian basis functions
    25 alpha electrons       25 beta electrons
       nuclear repulsion energy       261.8678855737 Hartrees.
 NAtoms=   16 NActive=   16 NUniq=   16 SFac= 1.00D+00 NAtFMM=   60 NAOKFM=F Big=F
 Integral buffers will be    131072 words long.
 Raffenetti 1 integral format.
 Two-electron integral symmetry is turned on.
 One-electron integrals computed using PRISM.
 NBasis=   110 RedAO= T EigKep=  4.84D-03  NBF=   110
 NBsUse=   110 1.00D-06 EigRej= -1.00D+00 NBFU=   110
 Lowest energy guess from the checkpoint file:  "1-4-butanediol-opt.chk"
 B after Tr=     0.000000    0.000000    0.000000
         Rot=    0.999939    0.001742    0.007902    0.007504 Ang=   1.26 deg.
 B after Tr=     0.000000    0.000000    0.000000
         Rot=    0.999990    0.000491   -0.004300   -0.000986 Ang=   0.51 deg.
 Keep R1 ints in memory in canonical form, NReq=19588058.
 Requested convergence on RMS density matrix=1.00D-08 within 128 cycles.
 Requested convergence on MAX density matrix=1.00D-06.
 Requested convergence on             energy=1.00D-06.
 No special actions if energy rises.
 SCF Done:  E(RHF) =  -306.993663156     A.U. after   11 cycles
            NFock= 11  Conv=0.58D-08     -V/T= 2.0014
 Calling FoFJK, ICntrl=      2127 FMM=F ISym2X=0 I1Cent= 0 IOpClX= 0 NMat=1 NMatS=1 NMatT=0.
 ***** Axes restored to original set *****
 -------------------------------------------------------------------
 Center     Atomic                   Forces (Hartrees/Bohr)
 Number     Number              X              Y              Z
 -------------------------------------------------------------------
      1        6           0.000389388    0.001272886    0.002011565
      2        6           0.000681279   -0.000399680   -0.000297072
      3        8           0.001288451   -0.000859375   -0.000230964
      4        6          -0.000061653    0.001200670   -0.002796182
      5        6          -0.000277018    0.000994776   -0.000037796
      6        8          -0.003425886   -0.000678257   -0.000858947
      7        1          -0.001381721   -0.000094575    0.001104315
      8        1           0.001946453    0.000685630    0.000786870
      9        1          -0.000221587   -0.002086287   -0.001169854
     10        1           0.001509037    0.001142014    0.000018499
     11        1           0.001652376   -0.000343135    0.001967247
     12        1          -0.001052150    0.000698404   -0.000888960
     13        1           0.001033157   -0.000636742   -0.000602580
     14        1          -0.000539550   -0.001461771    0.001585709
     15        1          -0.000871141    0.001458464   -0.000657421
     16        1          -0.000669434   -0.000893023    0.000065573
 -------------------------------------------------------------------
 Cartesian Forces:  Max     0.003425886 RMS     0.001208183

 GradGradGradGradGradGradGradGradGradGradGradGradGradGradGradGradGradGrad
 Berny optimization.
 Using GEDIIS/GDIIS optimizer.
 FormGI is forming the generalized inverse of G from B-inverse, IUseBI=4.
 Internal  Forces:  Max     0.012763420 RMS     0.002939099
 Search for a local minimum.
 Step number   4 out of a maximum of   84
 All quantities printed in internal units (Hartrees-Bohrs-Radians)
 Mixed Optimization -- RFO/linear search
 Update second derivatives using D2CorX and points    3    2    4
 DE= -3.11D-04 DEPred=-2.52D-03 R= 1.23D-01
 Trust test= 1.23D-01 RLast= 7.99D-01 DXMaxT set to 1.50D-01
 ITU=  0 -1  0  0
 Use linear search instead of GDIIS.
     Eigenvalues ---    0.00176   0.00364   0.00775   0.01191   0.01594
     Eigenvalues ---    0.02806   0.03254   0.04560   0.04667   0.04754
     Eigenvalues ---    0.05786   0.05935   0.06015   0.09524   0.09546
     Eigenvalues ---    0.11276   0.11906   0.13052   0.13081   0.13857
     Eigenvalues ---    0.14171   0.15546   0.16035   0.22030   0.22044
     Eigenvalues ---    0.22168   0.27676   0.28732   0.29618   0.30361
     Eigenvalues ---    0.33302   0.33684   0.33740   0.33780   0.33803
[...]
 ! A4    A(4,1,7)              107.1578         -DE/DX =    0.0                 !
 ! A5    A(4,1,8)              109.7398         -DE/DX =    0.0                 !
 ! A6    A(7,1,8)              106.5854         -DE/DX =    0.0                 !
 ! A7    A(1,2,3)              113.9143         -DE/DX =    0.0                 !
 ! A8    A(1,2,9)              108.5779         -DE/DX =    0.0                 !
 ! A9    A(1,2,10)             109.8289         -DE/DX =    0.0                 !
 ! A10   A(3,2,9)              106.1086         -DE/DX =    0.0                 !
 ! A11   A(3,2,10)             110.9559         -DE/DX =    0.0                 !
 ! A12   A(9,2,10)             107.1454         -DE/DX =    0.0                 !
 ! A13   A(2,3,11)             108.1492         -DE/DX =   -0.0001              !
 ! A14   A(1,4,5)              117.1454         -DE/DX =    0.0                 !
 ! A15   A(1,4,12)             110.1353         -DE/DX =    0.0                 !
 ! A16   A(1,4,13)             107.7539         -DE/DX =    0.0                 !
 ! A17   A(5,4,12)             108.0418         -DE/DX =    0.0                 !
 ! A18   A(5,4,13)             106.7207         -DE/DX =    0.0                 !
 ! A19   A(12,4,13)            106.505          -DE/DX =    0.0                 !
 ! A20   A(4,5,6)              109.8278         -DE/DX =    0.0                 !
 ! A21   A(4,5,14)             109.1033         -DE/DX =    0.0                 !
 ! A22   A(4,5,15)             110.4818         -DE/DX =    0.0                 !
 ! A23   A(6,5,14)             109.1587         -DE/DX =    0.0                 !
 ! A24   A(6,5,15)             110.2757         -DE/DX =    0.0                 !
 ! A25   A(14,5,15)            107.9518         -DE/DX =    0.0                 !
 ! A26   A(5,6,16)             109.74           -DE/DX =    0.0                 !
 ! D1    D(4,1,2,3)            -74.515          -DE/DX =    0.0                 !
 ! D2    D(4,1,2,9)            167.4997         -DE/DX =    0.0                 !
 ! D3    D(4,1,2,10)            50.6403         -DE/DX =    0.0                 !
 ! D4    D(7,1,2,3)            164.8738         -DE/DX =    0.0                 !
 ! D5    D(7,1,2,9)             46.8885         -DE/DX =    0.0                 !
 ! D6    D(7,1,2,10)           -69.9709         -DE/DX =    0.0                 !
 ! D7    D(8,1,2,3)             50.0876         -DE/DX =    0.0                 !
 ! D8    D(8,1,2,9)            -67.8976         -DE/DX =    0.0                 !
 ! D9    D(8,1,2,10)           175.2429         -DE/DX =    0.0                 !
 ! D10   D(2,1,4,5)             69.401          -DE/DX =    0.0                 !
 ! D11   D(2,1,4,12)           -54.5644         -DE/DX =    0.0                 !
 ! D12   D(2,1,4,13)          -170.3571         -DE/DX =    0.0                 !
 ! D13   D(7,1,4,5)           -169.7876         -DE/DX =    0.0                 !
 ! D14   D(7,1,4,12)            66.2469         -DE/DX =    0.0                 !
 ! D15   D(7,1,4,13)           -49.5457         -DE/DX =    0.0                 !
 ! D16   D(8,1,4,5)            -54.4356         -DE/DX =    0.0                 !
 ! D17   D(8,1,4,12)          -178.401          -DE/DX =    0.0                 !
 ! D18   D(8,1,4,13)            65.8063         -DE/DX =    0.0                 !
 ! D19   D(1,2,3,11)            67.6868         -DE/DX =    0.0                 !
 ! D20   D(9,2,3,11)          -172.9187         -DE/DX =    0.0                 !
 ! D21   D(10,2,3,11)          -56.8669         -DE/DX =    0.0                 !
 ! D22   D(1,4,5,6)            -75.4789         -DE/DX =    0.0                 !
 ! D23   D(1,4,5,14)           164.9118         -DE/DX =    0.0                 !
 ! D24   D(1,4,5,15)            46.3858         -DE/DX =    0.0                 !
 ! D25   D(12,4,5,6)            49.541          -DE/DX =    0.0                 !
 ! D26   D(12,4,5,14)          -70.0683         -DE/DX =    0.0                 !
 ! D27   D(12,4,5,15)          171.4057         -DE/DX =    0.0                 !
 ! D28   D(13,4,5,6)           163.7353         -DE/DX =    0.0                 !
 ! D29   D(13,4,5,14)           44.126          -DE/DX =    0.0                 !
 ! D30   D(13,4,5,15)          -74.4            -DE/DX =    0.0                 !
 ! D31   D(4,5,6,16)          -176.7053         -DE/DX =    0.0                 !
 ! D32   D(14,5,6,16)          -57.1299         -DE/DX =    0.0                 !
 ! D33   D(15,5,6,16)           61.3071         -DE/DX =    0.0                 !
 --------------------------------------------------------------------------------
 GradGradGradGradGradGradGradGradGradGradGradGradGradGradGradGradGradGrad

                          Input orientation:                          
 ---------------------------------------------------------------------
 Center     Atomic      Atomic             Coordinates (Angstroms)
 Number     Number       Type             X           Y           Z
 ---------------------------------------------------------------------
      1          6           0        1.618156    1.267288    1.959817
      2          6           0        1.129283    2.372498    1.023896
      3          8           0        1.448680    3.662279    1.455254
      4          6           0        3.122268    0.953562    1.946641
      5          6           0        4.056439    2.006568    2.525873
      6          8           0        4.192633    3.079435    1.615752
      7          1           0        1.096834    0.351823    1.686693
      8          1           0        1.303239    1.513952    2.971082
      9          1           0        0.047833    2.330802    0.975868
     10          1           0        1.502748    2.195070    0.015519
     11          1           0        2.391405    3.767044    1.402339
     12          1           0        3.449809    0.733499    0.933606
     13          1           0        3.276776    0.045865    2.525352
     14          1           0        5.031637    1.560064    2.699229
     15          1           0        3.678674    2.367079    3.479426
     16          1           0        4.813286    3.709771    1.954753
 ---------------------------------------------------------------------
                    Distance matrix (angstroms):
                    1          2          3          4          5
     1  C    0.000000
     2  C    1.528540   0.000000
     3  O    2.453424   1.397004   0.000000
     4  C    1.536539   2.614733   3.221724   0.000000
     5  C    2.610015   3.310299   3.269252   1.522171   0.000000
     6  O    3.167048   3.199088   2.809759   2.403020   1.413475
     7  H    1.088324   2.126848   3.337137   2.128860   3.493088
     8  H    1.087507   2.135157   2.633286   2.161569   2.832135
     9  H    2.136617   1.083319   1.991234   3.505901   4.310053
    10  H    2.157404   1.089854   2.056323   2.809523   3.585909
    11  H    2.675346   1.918574   0.950003   2.957382   2.670944
    12  H    2.166331   2.842412   3.585301   1.087176   2.126974
    13  H    2.136054   3.504186   4.191122   1.087517   2.110031
    14  H    3.504897   4.323790   4.336400   2.140076   1.086476
    15  H    2.786483   3.539640   3.278367   2.158019   1.087170
    16  H    4.021766   4.028234   3.401812   3.233619   1.949332
                    6          7          8          9         10
     6  O    0.000000
     7  H    4.126605   0.000000
     8  H    3.554751   1.744363   0.000000
     9  H    4.260195   2.349901   2.494828   0.000000
    10  H    3.252434   2.520942   3.039585   1.748562   0.000000
    11  H    1.939787   3.663401   2.953216   2.781545   2.276858
    12  H    2.553532   2.499861   3.060747   3.758537   2.601945
    13  H    3.296773   2.355654   2.499761   4.248283   3.750403
    14  H    2.046054   4.238839   3.738580   5.329382   4.478682
    15  H    2.060313   3.733771   2.574671   4.410456   4.094251
    16  H    0.947341   5.015943   4.263212   5.056610   4.124877
                   11         12         13         14         15
    11  H    0.000000
    12  H    3.246894   0.000000
    13  H    3.986504   1.742537   0.000000
    14  H    3.677433   2.510541   2.324343   0.000000
    15  H    2.816249   3.033506   2.541616   1.757979   0.000000
    16  H    2.484743   3.429286   4.013808   2.285424   2.326972
                   16
    16  H    0.000000
 Stoichiometry    C4H10O2
 Framework group  C1[X(C4H10O2)]
 Deg. of freedom    42
 Full point group                 C1      NOp   1
 Largest Abelian subgroup         C1      NOp   1
 Largest concise Abelian subgroup C1      NOp   1
                         Standard orientation:                         
 ---------------------------------------------------------------------
 Center     Atomic      Atomic             Coordinates (Angstroms)
 Number     Number       Type             X           Y           Z
 ---------------------------------------------------------------------
      1          6           0        0.802265    1.146317    0.219025
      2          6           0        1.644670   -0.018000   -0.301700
      3          8           0        1.362928   -1.240326    0.313246
      4          6           0       -0.666607    1.202435   -0.228432
      5          6           0       -1.602209    0.136572    0.324371
      6          8           0       -1.368018   -1.093646   -0.331090
      7          1           0        1.274970    2.068099   -0.114621
      8          1           0        0.855579    1.145627    1.305224
      9          1           0        2.687218    0.190030   -0.093383
     10          1           0        1.542149   -0.093428   -1.384096
     11          1           0        0.487336   -1.505498    0.057260
     12          1           0       -0.728606    1.174958   -1.313491
     13          1           0       -1.070687    2.163871    0.079875
     14          1           0       -2.630524    0.442175    0.152304
     15          1           0       -1.460690    0.025139    1.396515
     16          1           0       -1.984734   -1.743137   -0.022419
 ---------------------------------------------------------------------
 Rotational constants (GHZ):      4.6617121      2.8489593      1.9638644

 **********************************************************************

            Population analysis using the SCF density.

 **********************************************************************

 Orbital symmetries:
       Occupied  (A) (A) (A) (A) (A) (A) (A) (A) (A) (A) (A) (A)
                 (A) (A) (A) (A) (A) (A) (A) (A) (A) (A) (A) (A)
                 (A)
       Virtual   (A) (A) (A) (A) (A) (A) (A) (A) (A) (A) (A) (A)
                 (A) (A) (A) (A) (A) (A) (A) (A) (A) (A) (A) (A)
                 (A) (A) (A) (A) (A) (A) (A) (A) (A) (A) (A) (A)
                 (A) (A) (A) (A) (A) (A) (A) (A) (A) (A) (A) (A)
                 (A) (A) (A) (A) (A) (A) (A) (A) (A) (A) (A) (A)
                 (A) (A) (A) (A) (A) (A) (A) (A) (A) (A) (A) (A)
                 (A) (A) (A) (A) (A) (A) (A) (A) (A) (A) (A) (A)
                 (A)
 The electronic state is 1-A.
 Alpha  occ. eigenvalues --  -20.57884 -20.52526 -11.28301 -11.25441 -11.22505
 Alpha  occ. eigenvalues --  -11.21428  -1.38318  -1.33747  -1.06644  -0.96908
 Alpha  occ. eigenvalues --   -0.86749  -0.78857  -0.72750  -0.67532  -0.65452
 Alpha  occ. eigenvalues --   -0.61185  -0.60174  -0.57753  -0.54048  -0.53284
 Alpha  occ. eigenvalues --   -0.49934  -0.47391  -0.45535  -0.45042  -0.41002
 Alpha virt. eigenvalues --    0.20728   0.24664   0.27494   0.29133   0.30142
 Alpha virt. eigenvalues --    0.31817   0.32835   0.32906   0.34222   0.36737
 Alpha virt. eigenvalues --    0.38927   0.40318   0.43323   0.47629   0.48721
 Alpha virt. eigenvalues --    0.72758   0.73328   0.73791   0.78424   0.79643
 Alpha virt. eigenvalues --    0.83952   0.90812   0.91002   0.94807   0.99788
 Alpha virt. eigenvalues --    1.03446   1.09223   1.09908   1.11375   1.12581
 Alpha virt. eigenvalues --    1.14506   1.16678   1.17832   1.20126   1.21017
 Alpha virt. eigenvalues --    1.22262   1.23398   1.24432   1.27118   1.32031
 Alpha virt. eigenvalues --    1.34862   1.37379   1.45940   1.49337   1.57378
 Alpha virt. eigenvalues --    1.59688   1.70933   1.79859   1.81031   1.85928
 Alpha virt. eigenvalues --    1.90976   1.92696   1.98268   2.02351   2.05395
 Alpha virt. eigenvalues --    2.07084   2.14127   2.20915   2.25082   2.25685
 Alpha virt. eigenvalues --    2.32849   2.39017   2.41839   2.48824   2.57653
 Alpha virt. eigenvalues --    2.59298   2.63155   2.68519   2.70467   2.76516
 Alpha virt. eigenvalues --    2.77267   2.80187   2.87005   2.94131   3.00738
 Alpha virt. eigenvalues --    3.03739   3.06722   3.20654   3.24635   4.23945
 Alpha virt. eigenvalues --    4.28271   4.56887   4.71771   4.89203   4.96943
          Condensed to atoms (all electrons):
               1          2          3          4          5          6
     1  C    5.172012   0.343536  -0.056764   0.335456  -0.047031   0.002632
     2  C    0.343536   4.731473   0.234733  -0.043655  -0.003806   0.002423
     3  O   -0.056764   0.234733   8.431790  -0.000704   0.006448  -0.014722
     4  C    0.335456  -0.043655  -0.000704   5.132305   0.346218  -0.054646
     5  C   -0.047031  -0.003806   0.006448   0.346218   4.813642   0.187613
     6  O    0.002632   0.002423  -0.014722  -0.054646   0.187613   8.420386
     7  H    0.387311  -0.037227   0.003368  -0.042944   0.004992  -0.000085
     8  H    0.390451  -0.038336   0.002138  -0.044201  -0.003320  -0.000019
     9  H   -0.049385   0.414212  -0.039686   0.004529  -0.000078  -0.000004
    10  H   -0.056558   0.397055  -0.038584  -0.007141   0.000799   0.000056
    11  H   -0.000501  -0.024636   0.251328   0.000879  -0.004612   0.029107
    12  H   -0.040423  -0.002412  -0.000001   0.390986  -0.040739   0.001625
    13  H   -0.039956   0.003954  -0.000087   0.400768  -0.043091   0.002783
    14  H    0.004312  -0.000102  -0.000001  -0.043409   0.407815  -0.037851
    15  H   -0.006396   0.000506   0.000310  -0.043744   0.398395  -0.039572
    16  H   -0.000183  -0.000124   0.000601   0.005591  -0.019782   0.260845
               7          8          9         10         11         12
     1  C    0.387311   0.390451  -0.049385  -0.056558  -0.000501  -0.040423
     2  C   -0.037227  -0.038336   0.414212   0.397055  -0.024636  -0.002412
     3  O    0.003368   0.002138  -0.039686  -0.038584   0.251328  -0.000001
     4  C   -0.042944  -0.044201   0.004529  -0.007141   0.000879   0.390986
     5  C    0.004992  -0.003320  -0.000078   0.000799  -0.004612  -0.040739
     6  O   -0.000085  -0.000019  -0.000004   0.000056   0.029107   0.001625
     7  H    0.563016  -0.025682  -0.002170   0.002004  -0.000202  -0.001935
     8  H   -0.025682   0.545388  -0.003635   0.005285  -0.000195   0.004131
     9  H   -0.002170  -0.003635   0.550325  -0.038507   0.005051  -0.000070
    10  H    0.002004   0.005285  -0.038507   0.603530  -0.004562   0.003138
    11  H   -0.000202  -0.000195   0.005051  -0.004562   0.266461   0.000014
    12  H   -0.001935   0.004131  -0.000070   0.003138   0.000014   0.533104
    13  H   -0.005873  -0.001728  -0.000096  -0.000100  -0.000009  -0.024917
    14  H   -0.000085  -0.000063   0.000003   0.000002   0.000481  -0.003297
    15  H   -0.000069   0.003166  -0.000007   0.000049  -0.000592   0.004937
    16  H    0.000006  -0.000001  -0.000000   0.000004  -0.001089  -0.000105
              13         14         15         16
     1  C   -0.039956   0.004312  -0.006396  -0.000183
     2  C    0.003954  -0.000102   0.000506  -0.000124
     3  O   -0.000087  -0.000001   0.000310   0.000601
     4  C    0.400768  -0.043409  -0.043744   0.005591
     5  C   -0.043091   0.407815   0.398395  -0.019782
     6  O    0.002783  -0.037851  -0.039572   0.260845
     7  H   -0.005873  -0.000085  -0.000069   0.000006
     8  H   -0.001728  -0.000063   0.003166  -0.000001
     9  H   -0.000096   0.000003  -0.000007  -0.000000
    10  H   -0.000100   0.000002   0.000049   0.000004
    11  H   -0.000009   0.000481  -0.000592  -0.001089
    12  H   -0.024917  -0.003297   0.004937  -0.000105
    13  H    0.546026  -0.003051   0.001001  -0.000193
    14  H   -0.003051   0.569418  -0.043797  -0.003385
    15  H    0.001001  -0.043797   0.573765  -0.002710
    16  H   -0.000193  -0.003385  -0.002710   0.310551
 Mulliken charges:
               1
     1  C   -0.338513
     2  C    0.022404
     3  O   -0.780169
     4  C   -0.336289
     5  C   -0.003461
     6  O   -0.760573
     7  H    0.155575
     8  H    0.166622
     9  H    0.159520
    10  H    0.133529
    11  H    0.483076
    12  H    0.175963
    13  H    0.164570
    14  H    0.153012
    15  H    0.154759
    16  H    0.449975
 Sum of Mulliken charges =   0.00000
 Mulliken charges with hydrogens summed into heavy atoms:
               1
     1  C   -0.016316
     2  C    0.315452
     3  O   -0.297093
     4  C    0.004244
     5  C    0.304309
     6  O   -0.310598
 Electronic spatial extent (au):  <R**2>=            659.7773
 Charge=             -0.0000 electrons
 Dipole moment (field-independent basis, Debye):
    X=             -2.9223    Y=              1.2528    Z=              0.1525  Tot=              3.1832
 Quadrupole moment (field-independent basis, Debye-Ang):
   XX=            -35.6652   YY=            -37.3594   ZZ=            -39.1889
   XY=              6.0674   XZ=             -3.3803   YZ=             -0.0458
 Traceless Quadrupole moment (field-independent basis, Debye-Ang):
   XX=              1.7393   YY=              0.0451   ZZ=             -1.7844
   XY=              6.0674   XZ=             -3.3803   YZ=             -0.0458
 Octapole moment (field-independent basis, Debye-Ang**2):
  XXX=            -15.2718  YYY=            -15.6131  ZZZ=              0.1856  XYY=            -13.6568
  XXY=             -3.5663  XXZ=              0.6391  XZZ=             -0.7135  YZZ=             -1.9663
  YYZ=             -0.1462  XYZ=              3.4309
 Hexadecapole moment (field-independent basis, Debye-Ang**3):
 XXXX=           -432.8676 YYYY=           -264.6968 ZZZZ=            -83.0816 XXXY=             31.5584
 XXXZ=             -2.5678 YYYX=             26.4493 YYYZ=              0.0825 ZZZX=              1.0286
 ZZZY=             -0.1842 XXYY=           -117.2474 XXZZ=            -95.5314 YYZZ=            -63.5874
 XXYZ=              0.0286 YYXZ=             -4.7470 ZZXY=              0.9538
 N-N= 2.639134851359D+02 E-N=-1.249012948926D+03  KE= 3.066025663631D+02
 1\1\GINC-GTX1080DELTA\FOpt\RHF\6-31G(d)\C4H10O2\MVEROT\17-Apr-2022\0\\
 # hf/6-31G* opt\\Optimisation de geometrie\\0,1\C,1.6181557122,1.26728
 79946,1.9598171293\C,1.1292832995,2.3724982071,1.0238961199\O,1.448679
 8694,3.6622793736,1.4552543299\C,3.122268175,0.95356214,1.9466414388\C
 ,4.0564387238,2.0065684238,2.5258725469\O,4.1926330354,3.0794349445,1.
 6157516642\H,1.0968341907,0.3518227286,1.6866931059\H,1.3032391704,1.5
 139518721,2.9710817304\H,0.0478334438,2.3308024816,0.9758680399\H,1.50
 2747759,2.1950695515,0.0155191046\H,2.3914048313,3.7670438684,1.402338
 54\H,3.4498087474,0.7334994483,0.9336062592\H,3.2767761084,0.045864784
 3,2.5253520387\H,5.0316374415,1.5600643651,2.6992290683\H,3.6786738676
 ,2.36707858,3.4794262675\H,4.8132856245,3.7097712362,1.9547526164\\Ver
 sion=AM64L-G09RevD.01\State=1-A\HF=-306.9956024\RMSD=8.024e-09\RMSF=2.
 776e-05\Dipole=1.0043128,-0.5899645,0.4601571\Quadrupole=1.341636,-1.0
 795035,-0.2621326,4.6325093,2.1524788,0.8788223\PG=C01 [X(C4H10O2)]\\@


 PICNIC:  A SNACK IN THE GRASS.
 Job cpu time:       0 days  0 hours  0 minutes 44.7 seconds.
 File lengths (MBytes):  RWF=    132 Int=      0 D2E=      0 Chk=      3 Scr=      2
 Normal termination of Gaussian 09 at Sun Apr 17 23:26:09 2022.
