 Entering Gaussian System, Link 0=g09
 Input=/scratch/mverot/1-2-ethanediol-open-opt/1-2-ethanediol-open-opt.com
 Output=/scratch/mverot/1-2-ethanediol-open-opt/1-2-ethanediol-open-opt.log
 Initial command:
 /opt/g09/l1.exe "/scratch/mverot/1-2-ethanediol-open-opt/Gau-1477474.inp" -scrdir="/scratch/mverot/1-2-ethanediol-open-opt/"
 Entering Link 1 = /opt/g09/l1.exe PID=   1477476.
  
 Copyright (c) 1988,1990,1992,1993,1995,1998,2003,2009,2013,
            Gaussian, Inc.  All Rights Reserved.
  
 This is part of the Gaussian(R) 09 program.  It is based on
 the Gaussian(R) 03 system (copyright 2003, Gaussian, Inc.),
 the Gaussian(R) 98 system (copyright 1998, Gaussian, Inc.),
 the Gaussian(R) 94 system (copyright 1995, Gaussian, Inc.),
 the Gaussian 92(TM) system (copyright 1992, Gaussian, Inc.),
 the Gaussian 90(TM) system (copyright 1990, Gaussian, Inc.),
 the Gaussian 88(TM) system (copyright 1988, Gaussian, Inc.),
 the Gaussian 86(TM) system (copyright 1986, Carnegie Mellon
 University), and the Gaussian 82(TM) system (copyright 1983,
 Carnegie Mellon University). Gaussian is a federally registered
 trademark of Gaussian, Inc.
  
 This software contains proprietary and confidential information,
 including trade secrets, belonging to Gaussian, Inc.
  
 This software is provided under written license and may be
 used, copied, transmitted, or stored only in accord with that
 written license.
  
 The following legend is applicable only to US Government
 contracts under FAR:
  
                    RESTRICTED RIGHTS LEGEND
  
 Use, reproduction and disclosure by the US Government is
 subject to restrictions as set forth in subparagraphs (a)
 and (c) of the Commercial Computer Software - Restricted
 Rights clause in FAR 52.227-19.
  
 Gaussian, Inc.
 340 Quinnipiac St., Bldg. 40, Wallingford CT 06492
  
  
 ---------------------------------------------------------------
 Warning -- This program may not be used in any manner that
 competes with the business of Gaussian, Inc. or will provide
 assistance to any competitor of Gaussian, Inc.  The licensee
 of this program is prohibited from giving any competitor of
 Gaussian, Inc. access to this program.  By using this program,
 the user acknowledges that Gaussian, Inc. is engaged in the
 business of creating and licensing software in the field of
 computational chemistry and represents and warrants to the
 licensee that it is not a competitor of Gaussian, Inc. and that
 it will not use this program in any manner prohibited above.
 ---------------------------------------------------------------
  

 Cite this work as:
 Gaussian 09, Revision D.01,
 M. J. Frisch, G. W. Trucks, H. B. Schlegel, G. E. Scuseria, 
 M. A. Robb, J. R. Cheeseman, G. Scalmani, V. Barone, B. Mennucci, 
 G. A. Petersson, H. Nakatsuji, M. Caricato, X. Li, H. P. Hratchian, 
 A. F. Izmaylov, J. Bloino, G. Zheng, J. L. Sonnenberg, M. Hada, 
 M. Ehara, K. Toyota, R. Fukuda, J. Hasegawa, M. Ishida, T. Nakajima, 
 Y. Honda, O. Kitao, H. Nakai, T. Vreven, J. A. Montgomery, Jr., 
 J. E. Peralta, F. Ogliaro, M. Bearpark, J. J. Heyd, E. Brothers, 
 K. N. Kudin, V. N. Staroverov, T. Keith, R. Kobayashi, J. Normand, 
 K. Raghavachari, A. Rendell, J. C. Burant, S. S. Iyengar, J. Tomasi, 
 M. Cossi, N. Rega, J. M. Millam, M. Klene, J. E. Knox, J. B. Cross, 
 V. Bakken, C. Adamo, J. Jaramillo, R. Gomperts, R. E. Stratmann, 
 O. Yazyev, A. J. Austin, R. Cammi, C. Pomelli, J. W. Ochterski, 
 R. L. Martin, K. Morokuma, V. G. Zakrzewski, G. A. Voth, 
 P. Salvador, J. J. Dannenberg, S. Dapprich, A. D. Daniels, 
 O. Farkas, J. B. Foresman, J. V. Ortiz, J. Cioslowski, 
 and D. J. Fox, Gaussian, Inc., Wallingford CT, 2013.
 
 ******************************************
 Gaussian 09:  AM64L-G09RevD.01 24-Apr-2013
                17-Apr-2022 
 ******************************************
 %chk=1-2-ethanediol-open-opt
 ---------------
 # hf/6-31G* opt
 ---------------
 1/18=20,19=15,38=1/1,3;
 2/9=110,12=2,17=6,18=5,40=1/2;
 3/5=1,6=6,7=1,11=9,16=1,25=1,30=1,71=1/1,2,3;
 4//1;
 5/5=2,38=5/2;
 6/7=2,8=2,9=2,10=2,28=1/1;
 7//1,2,3,16;
 1/18=20,19=15/3(2);
 2/9=110/2;
 99//99;
 2/9=110/2;
 3/5=1,6=6,7=1,11=9,16=1,25=1,30=1,71=1/1,2,3;
 4/5=5,16=3,69=1/1;
 5/5=2,38=5/2;
 7//1,2,3,16;
 1/18=20,19=15/3(-5);
 2/9=110/2;
 6/7=2,8=2,9=2,10=2,19=2,28=1/1;
 99/9=1/99;
 -------------------------
 Optimisation de geometrie
 -------------------------
 Symbolic Z-matrix:
 Charge =  0 Multiplicity = 1
 C                     2.26235   2.30287   2.12682 
 O                     1.19477   2.753     2.94869 
 C                     1.86043   1.06071   1.33944 
 O                     2.93052   0.60593   0.52348 
 H                     3.12289   2.08284   2.7671 
 H                     2.56524   3.11234   1.45399 
 H                     0.48594   3.06486   2.35936 
 H                     1.00384   1.28284   0.6946 
 H                     1.55145   0.25316   2.0118 
 H                     3.63326   0.28804   1.11694 
 

 GradGradGradGradGradGradGradGradGradGradGradGradGradGradGradGradGradGrad
 Berny optimization.
 Initialization pass.
                           ----------------------------
                           !    Initial Parameters    !
                           ! (Angstroms and Degrees)  !
 --------------------------                            --------------------------
 ! Name  Definition              Value          Derivative Info.                !
 --------------------------------------------------------------------------------
 ! R1    R(1,2)                  1.4205         estimate D2E/DX2                !
 ! R2    R(1,3)                  1.5246         estimate D2E/DX2                !
 ! R3    R(1,5)                  1.0949         estimate D2E/DX2                !
 ! R4    R(1,6)                  1.0953         estimate D2E/DX2                !
 ! R5    R(2,7)                  0.9731         estimate D2E/DX2                !
 ! R6    R(3,4)                  1.4205         estimate D2E/DX2                !
 ! R7    R(3,8)                  1.0949         estimate D2E/DX2                !
 ! R8    R(3,9)                  1.0953         estimate D2E/DX2                !
 ! R9    R(4,10)                 0.9732         estimate D2E/DX2                !
 ! A1    A(2,1,3)              111.0298         estimate D2E/DX2                !
 ! A2    A(2,1,5)              108.4218         estimate D2E/DX2                !
 ! A3    A(2,1,6)              109.2116         estimate D2E/DX2                !
 ! A4    A(3,1,5)              110.2098         estimate D2E/DX2                !
 ! A5    A(3,1,6)              110.9636         estimate D2E/DX2                !
 ! A6    A(5,1,6)              106.8811         estimate D2E/DX2                !
 ! A7    A(1,2,7)              107.373          estimate D2E/DX2                !
 ! A8    A(1,3,4)              111.0336         estimate D2E/DX2                !
 ! A9    A(1,3,8)              110.1876         estimate D2E/DX2                !
 ! A10   A(1,3,9)              110.9796         estimate D2E/DX2                !
 ! A11   A(4,3,8)              108.4213         estimate D2E/DX2                !
 ! A12   A(4,3,9)              109.2132         estimate D2E/DX2                !
 ! A13   A(8,3,9)              106.882          estimate D2E/DX2                !
 ! A14   A(3,4,10)             107.3539         estimate D2E/DX2                !
 ! D1    D(3,1,2,7)            -66.807          estimate D2E/DX2                !
 ! D2    D(5,1,2,7)            171.9844         estimate D2E/DX2                !
 ! D3    D(6,1,2,7)             55.8686         estimate D2E/DX2                !
 ! D4    D(2,1,3,4)           -179.6574         estimate D2E/DX2                !
 ! D5    D(2,1,3,8)             60.2031         estimate D2E/DX2                !
 ! D6    D(2,1,3,9)            -57.985          estimate D2E/DX2                !
 ! D7    D(5,1,3,4)            -59.5052         estimate D2E/DX2                !
 ! D8    D(5,1,3,8)           -179.6446         estimate D2E/DX2                !
 ! D9    D(5,1,3,9)             62.1673         estimate D2E/DX2                !
 ! D10   D(6,1,3,4)             58.6859         estimate D2E/DX2                !
 ! D11   D(6,1,3,8)            -61.4536         estimate D2E/DX2                !
 ! D12   D(6,1,3,9)           -179.6417         estimate D2E/DX2                !
 ! D13   D(1,3,4,10)            67.1313         estimate D2E/DX2                !
 ! D14   D(8,3,4,10)          -171.6856         estimate D2E/DX2                !
 ! D15   D(9,3,4,10)           -55.5681         estimate D2E/DX2                !
 --------------------------------------------------------------------------------
 Trust Radius=3.00D-01 FncErr=1.00D-07 GrdErr=1.00D-07
 Number of steps in this run=     48 maximum allowed number of steps=    100.
 GradGradGradGradGradGradGradGradGradGradGradGradGradGradGradGradGradGrad

                          Input orientation:                          
 ---------------------------------------------------------------------
 Center     Atomic      Atomic             Coordinates (Angstroms)
 Number     Number       Type             X           Y           Z
 ---------------------------------------------------------------------
      1          6           0        2.262350    2.302870    2.126820
      2          8           0        1.194770    2.753000    2.948690
      3          6           0        1.860430    1.060710    1.339440
      4          8           0        2.930520    0.605930    0.523480
      5          1           0        3.122890    2.082840    2.767100
      6          1           0        2.565240    3.112340    1.453990
      7          1           0        0.485940    3.064860    2.359360
      8          1           0        1.003840    1.282840    0.694600
      9          1           0        1.551450    0.253160    2.011800
     10          1           0        3.633260    0.288040    1.116940
 ---------------------------------------------------------------------
                    Distance matrix (angstroms):
                    1          2          3          4          5
     1  C    0.000000
     2  O    1.420498   0.000000
     3  C    1.524621   2.428299   0.000000
     4  O    2.428324   3.674831   1.420461   0.000000
     5  H    1.094943   2.049326   2.162584   2.692972   0.000000
     6  H    1.095301   2.059476   2.172341   2.698401   1.759290
     7  H    1.946879   0.973143   2.635541   3.923361   2.843259
     8  H    2.162305   2.697915   1.094946   2.049289   3.070119
     9  H    2.172538   2.693359   1.095296   2.059460   2.527376
    10  H    2.637952   3.921424   1.946651   0.973187   2.490946
                    6          7          8          9         10
     6  H    0.000000
     7  H    2.268356   0.000000
     8  H    2.522244   2.493039   0.000000
     9  H    3.084450   3.026841   1.759299   0.000000
    10  H    3.038246   4.377209   2.842859   2.266258   0.000000
 Stoichiometry    C2H6O2
 Framework group  C1[X(C2H6O2)]
 Deg. of freedom    24
 Full point group                 C1      NOp   1
 Largest Abelian subgroup         C1      NOp   1
 Largest concise Abelian subgroup C1      NOp   1
                         Standard orientation:                         
 ---------------------------------------------------------------------
 Center     Atomic      Atomic             Coordinates (Angstroms)
 Number     Number       Type             X           Y           Z
 ---------------------------------------------------------------------
      1          6           0       -0.561529   -0.511441    0.066756
      2          8           0       -1.830826    0.098540   -0.119314
      3          6           0        0.561402    0.511665   -0.062662
      4          8           0        1.831129   -0.099664    0.115608
      5          1           0       -0.443201   -1.299920   -0.683711
      6          1           0       -0.536262   -0.999118    1.047173
      7          1           0       -1.974557    0.704281    0.628634
      8          1           0        0.446271    1.296577    0.692033
      9          1           0        0.532531    1.004031   -1.040627
     10          1           0        1.973553   -0.698205   -0.638419
 ---------------------------------------------------------------------
 Rotational constants (GHZ):     28.9954263      3.9450889      3.6953605
 Standard basis: 6-31G(d) (6D, 7F)
 There are    72 symmetry adapted cartesian basis functions of A   symmetry.
 There are    72 symmetry adapted basis functions of A   symmetry.
    72 basis functions,   136 primitive gaussians,    72 cartesian basis functions
    17 alpha electrons       17 beta electrons
       nuclear repulsion energy       130.0034933481 Hartrees.
 NAtoms=   10 NActive=   10 NUniq=   10 SFac= 1.00D+00 NAtFMM=   60 NAOKFM=F Big=F
 Integral buffers will be    131072 words long.
 Raffenetti 1 integral format.
 Two-electron integral symmetry is turned on.
 One-electron integrals computed using PRISM.
 NBasis=    72 RedAO= T EigKep=  4.56D-03  NBF=    72
 NBsUse=    72 1.00D-06 EigRej= -1.00D+00 NBFU=    72
 ExpMin= 1.61D-01 ExpMax= 5.48D+03 ExpMxC= 8.25D+02 IAcc=1 IRadAn=         1 AccDes= 0.00D+00
 Harris functional with IExCor=  205 and IRadAn=       1 diagonalized for initial guess.
 HarFok:  IExCor=  205 AccDes= 0.00D+00 IRadAn=         1 IDoV= 1 UseB2=F ITyADJ=14
 ICtDFT=  3500011 ScaDFX=  1.000000  1.000000  1.000000  1.000000
 FoFCou: FMM=F IPFlag=           0 FMFlag=      100000 FMFlg1=           0
         NFxFlg=           0 DoJE=T BraDBF=F KetDBF=T FulRan=T
         wScrn=  0.000000 ICntrl=     500 IOpCl=  0 I1Cent=   200000004 NGrid=           0
         NMat0=    1 NMatS0=      1 NMatT0=    0 NMatD0=    1 NMtDS0=    0 NMtDT0=    0
 Petite list used in FoFCou.
 Keep R1 ints in memory in canonical form, NReq=4344043.
 Requested convergence on RMS density matrix=1.00D-08 within 128 cycles.
 Requested convergence on MAX density matrix=1.00D-06.
 Requested convergence on             energy=1.00D-06.
 No special actions if energy rises.
 SCF Done:  E(RHF) =  -228.918452785     A.U. after   11 cycles
            NFock= 11  Conv=0.56D-08     -V/T= 2.0025

 **********************************************************************

            Population analysis using the SCF density.

 **********************************************************************

 Orbital symmetries:
       Occupied  (A) (A) (A) (A) (A) (A) (A) (A) (A) (A) (A) (A)
                 (A) (A) (A) (A) (A)
       Virtual   (A) (A) (A) (A) (A) (A) (A) (A) (A) (A) (A) (A)
                 (A) (A) (A) (A) (A) (A) (A) (A) (A) (A) (A) (A)
                 (A) (A) (A) (A) (A) (A) (A) (A) (A) (A) (A) (A)
                 (A) (A) (A) (A) (A) (A) (A) (A) (A) (A) (A) (A)
                 (A) (A) (A) (A) (A) (A) (A)
 The electronic state is 1-A.
 Alpha  occ. eigenvalues --  -20.56819 -20.56816 -11.28068 -11.28006  -1.36762
 Alpha  occ. eigenvalues --   -1.35399  -0.99412  -0.85363  -0.70566  -0.68432
 Alpha  occ. eigenvalues --   -0.63922  -0.60792  -0.56518  -0.54641  -0.48062
 Alpha  occ. eigenvalues --   -0.47715  -0.42794
 Alpha virt. eigenvalues --    0.20634   0.21556   0.28100   0.30029   0.30188
 Alpha virt. eigenvalues --    0.34731   0.39108   0.42500   0.45083   0.73290
 Alpha virt. eigenvalues --    0.76725   0.80486   0.82348   0.89730   0.93866
 Alpha virt. eigenvalues --    1.04734   1.04948   1.11649   1.13450   1.15337
 Alpha virt. eigenvalues --    1.16217   1.17233   1.20205   1.25119   1.30733
 Alpha virt. eigenvalues --    1.33847   1.36970   1.53290   1.57463   1.67223
 Alpha virt. eigenvalues --    1.76814   1.79742   1.88271   1.91527   2.03288
 Alpha virt. eigenvalues --    2.10099   2.10300   2.25314   2.35958   2.37189
 Alpha virt. eigenvalues --    2.39888   2.52223   2.56426   2.62551   2.73922
 Alpha virt. eigenvalues --    2.76756   2.79266   2.91402   2.97183   3.21545
 Alpha virt. eigenvalues --    3.23326   4.08014   4.23671   4.61527   4.84267
          Condensed to atoms (all electrons):
               1          2          3          4          5          6
     1  C    4.852873   0.192279   0.346939  -0.042261   0.395414   0.396437
     2  O    0.192279   8.387929  -0.042210   0.001681  -0.030549  -0.035324
     3  C    0.346939  -0.042210   4.852996   0.192298  -0.044628  -0.049065
     4  O   -0.042261   0.001681   0.192298   8.387855   0.002326   0.005054
     5  H    0.395414  -0.030549  -0.044628   0.002326   0.545721  -0.036947
     6  H    0.396437  -0.035324  -0.049065   0.005054  -0.036947   0.565477
     7  H   -0.027172   0.258409  -0.003948  -0.000009   0.005462  -0.005444
     8  H   -0.044664   0.002331   0.395338  -0.030540   0.004382  -0.004877
     9  H   -0.049223   0.005086   0.396549  -0.035237  -0.004809   0.004959
    10  H   -0.003928  -0.000010  -0.027159   0.258424   0.003454  -0.000356
               7          8          9         10
     1  C   -0.027172  -0.044664  -0.049223  -0.003928
     2  O    0.258409   0.002331   0.005086  -0.000010
     3  C   -0.003948   0.395338   0.396549  -0.027159
     4  O   -0.000009  -0.030540  -0.035237   0.258424
     5  H    0.005462   0.004382  -0.004809   0.003454
     6  H   -0.005444  -0.004877   0.004959  -0.000356
     7  H    0.333423   0.003427  -0.000358   0.000015
     8  H    0.003427   0.545973  -0.036956   0.005466
     9  H   -0.000358  -0.036956   0.565322  -0.005500
    10  H    0.000015   0.005466  -0.005500   0.333318
 Mulliken charges:
               1
     1  C   -0.016694
     2  O   -0.739621
     3  C   -0.017110
     4  O   -0.739592
     5  H    0.160173
     6  H    0.160087
     7  H    0.436195
     8  H    0.160121
     9  H    0.160167
    10  H    0.436275
 Sum of Mulliken charges =  -0.00000
 Mulliken charges with hydrogens summed into heavy atoms:
               1
     1  C    0.303566
     2  O   -0.303427
     3  C    0.303178
     4  O   -0.303317
 Electronic spatial extent (au):  <R**2>=            343.2317
 Charge=             -0.0000 electrons
 Dipole moment (field-independent basis, Debye):
    X=             -0.0018    Y=              0.0133    Z=             -0.0017  Tot=              0.0136
 Quadrupole moment (field-independent basis, Debye-Ang):
   XX=            -31.3952   YY=            -22.6343   ZZ=            -23.1761
   XY=             -3.2016   XZ=             -6.4048   YZ=              2.4417
 Traceless Quadrupole moment (field-independent basis, Debye-Ang):
   XX=             -5.6600   YY=              3.1009   ZZ=              2.5591
   XY=             -3.2016   XZ=             -6.4048   YZ=              2.4417
 Octapole moment (field-independent basis, Debye-Ang**2):
  XXX=             -0.0311  YYY=              0.0172  ZZZ=             -0.0316  XYY=             -0.0439
  XXY=              0.0679  XXZ=             -0.0331  XZZ=              0.0623  YZZ=             -0.0104
  YYZ=             -0.0089  XYZ=              0.0119
 Hexadecapole moment (field-independent basis, Debye-Ang**3):
 XXXX=           -318.0385 YYYY=            -63.8427 ZZZZ=            -37.0093 XXXY=            -23.4675
 XXXZ=            -27.0305 YYYX=             -6.2382 YYYZ=              3.3457 ZZZX=             -4.7356
 ZZZY=              1.8324 XXYY=            -52.7397 XXZZ=            -50.1953 YYZZ=            -15.0791
 XXYZ=              9.0317 YYXZ=             -3.3501 ZZXY=             -2.8557
 N-N= 1.300034933481D+02 E-N=-7.993819618856D+02  KE= 2.283398009698D+02
 Calling FoFJK, ICntrl=      2127 FMM=F ISym2X=0 I1Cent= 0 IOpClX= 0 NMat=1 NMatS=1 NMatT=0.
 ***** Axes restored to original set *****
 -------------------------------------------------------------------
 Center     Atomic                   Forces (Hartrees/Bohr)
 Number     Number              X              Y              Z
 -------------------------------------------------------------------
      1        6          -0.005619552    0.009111371    0.003275820
      2        8          -0.007994549    0.001324690   -0.021356462
      3        6           0.005598770   -0.009142046   -0.003247154
      4        8           0.007834849   -0.001452363    0.021397120
      5        1          -0.009413563    0.001851708   -0.000876524
      6        1           0.000242475   -0.008097888    0.000631464
      7        1           0.018619611   -0.007377003    0.018115624
      8        1           0.009356117   -0.001932625    0.000924024
      9        1          -0.000160104    0.008125765   -0.000590423
     10        1          -0.018464056    0.007588391   -0.018273491
 -------------------------------------------------------------------
 Cartesian Forces:  Max     0.021397120 RMS     0.010120897

 GradGradGradGradGradGradGradGradGradGradGradGradGradGradGradGradGradGrad
 Berny optimization.
 FormGI is forming the generalized inverse of G from B-inverse, IUseBI=4.
 Internal  Forces:  Max     0.026955045 RMS     0.007641304
 Search for a local minimum.
 Step number   1 out of a maximum of   48
 All quantities printed in internal units (Hartrees-Bohrs-Radians)
 Mixed Optimization -- RFO/linear search
 Second derivative matrix not updated -- first step.
 ITU=  0
     Eigenvalues ---    0.00440   0.01421   0.01421   0.04968   0.04968
     Eigenvalues ---    0.05779   0.05780   0.11590   0.11590   0.13891
     Eigenvalues ---    0.13891   0.16000   0.16000   0.21981   0.21981
     Eigenvalues ---    0.29926   0.34207   0.34208   0.34247   0.34248
     Eigenvalues ---    0.42385   0.42391   0.52731   0.52740
 RFO step:  Lambda=-6.47964071D-03 EMin= 4.40262180D-03
 Linear search not attempted -- first point.
 Iteration  1 RMS(Cart)=  0.03606383 RMS(Int)=  0.00092082
 Iteration  2 RMS(Cart)=  0.00095754 RMS(Int)=  0.00028235
 Iteration  3 RMS(Cart)=  0.00000047 RMS(Int)=  0.00028235
 Variable       Old X    -DE/DX   Delta X   Delta X   Delta X     New X
                                 (Linear)    (Quad)   (Total)
    R1        2.68435  -0.01178   0.00000  -0.02737  -0.02737   2.65698
    R2        2.88112  -0.00380   0.00000  -0.01244  -0.01244   2.86868
    R3        2.06914  -0.00828   0.00000  -0.02374  -0.02374   2.04541
    R4        2.06982  -0.00631   0.00000  -0.01809  -0.01809   2.05173
    R5        1.83897  -0.02690   0.00000  -0.05038  -0.05038   1.78859
    R6        2.68428  -0.01177   0.00000  -0.02734  -0.02734   2.65694
    R7        2.06915  -0.00826   0.00000  -0.02366  -0.02366   2.04549
    R8        2.06981  -0.00631   0.00000  -0.01810  -0.01810   2.05171
    R9        1.83906  -0.02696   0.00000  -0.05050  -0.05050   1.78856
    A1        1.93784   0.00307   0.00000   0.01286   0.01257   1.95041
    A2        1.89232  -0.00525   0.00000  -0.05251  -0.05240   1.83991
    A3        1.90610   0.00405   0.00000   0.05003   0.05010   1.95620
    A4        1.92352   0.00117   0.00000  -0.00390  -0.00412   1.91940
    A5        1.93668  -0.00469   0.00000  -0.01798  -0.01847   1.91821
    A6        1.86543   0.00158   0.00000   0.01091   0.01125   1.87668
    A7        1.87401   0.00420   0.00000   0.02525   0.02525   1.89926
    A8        1.93790   0.00305   0.00000   0.01273   0.01244   1.95034
    A9        1.92314   0.00126   0.00000  -0.00332  -0.00354   1.91959
   A10        1.93696  -0.00478   0.00000  -0.01864  -0.01913   1.91783
   A11        1.89231  -0.00529   0.00000  -0.05279  -0.05267   1.83964
   A12        1.90613   0.00412   0.00000   0.05045   0.05053   1.95666
   A13        1.86544   0.00158   0.00000   0.01098   0.01132   1.87676
   A14        1.87368   0.00423   0.00000   0.02543   0.02543   1.89911
    D1       -1.16600  -0.00010   0.00000  -0.03893  -0.03923  -1.20523
    D2        3.00169  -0.00005   0.00000  -0.00790  -0.00839   2.99330
    D3        0.97509  -0.00122   0.00000  -0.01903  -0.01823   0.95686
    D4       -3.13561  -0.00003   0.00000  -0.00208  -0.00207  -3.13769
    D5        1.05074   0.00379   0.00000   0.05796   0.05792   1.10867
    D6       -1.01203   0.00402   0.00000   0.05807   0.05793  -0.95410
    D7       -1.03856  -0.00384   0.00000  -0.06208  -0.06203  -1.10059
    D8       -3.13539  -0.00002   0.00000  -0.00204  -0.00204  -3.13743
    D9        1.08502   0.00021   0.00000  -0.00193  -0.00203   1.08299
   D10        1.02426  -0.00407   0.00000  -0.06222  -0.06208   0.96218
   D11       -1.07257  -0.00025   0.00000  -0.00218  -0.00208  -1.07465
   D12       -3.13534  -0.00002   0.00000  -0.00208  -0.00208  -3.13742
   D13        1.17166   0.00003   0.00000   0.03759   0.03789   1.20955
   D14       -2.99648   0.00004   0.00000   0.00702   0.00752  -2.98896
   D15       -0.96985   0.00123   0.00000   0.01830   0.01750  -0.95234
         Item               Value     Threshold  Converged?
 Maximum Force            0.026955     0.000450     NO 
 RMS     Force            0.007641     0.000300     NO 
 Maximum Displacement     0.096130     0.001800     NO 
 RMS     Displacement     0.035963     0.001200     NO 
 Predicted change in Energy=-3.366608D-03
 GradGradGradGradGradGradGradGradGradGradGradGradGradGradGradGradGradGrad

                          Input orientation:                          
 ---------------------------------------------------------------------
 Center     Atomic      Atomic             Coordinates (Angstroms)
 Number     Number       Type             X           Y           Z
 ---------------------------------------------------------------------
      1          6           0        2.248726    2.307873    2.118854
      2          8           0        1.197869    2.746239    2.943724
      3          6           0        1.873741    1.054930    1.348165
      4          8           0        2.926414    0.613759    0.527149
      5          1           0        3.072020    2.097120    2.789168
      6          1           0        2.577059    3.080781    1.430657
      7          1           0        0.495393    3.069034    2.397684
      8          1           0        1.053174    1.266543    0.674715
      9          1           0        1.541465    0.283688    2.036326
     10          1           0        3.624829    0.286622    1.075778
 ---------------------------------------------------------------------
                    Distance matrix (angstroms):
                    1          2          3          4          5
     1  C    0.000000
     2  O    1.406014   0.000000
     3  C    1.518038   2.421392   0.000000
     4  O    2.421323   3.657208   1.405994   0.000000
     5  H    1.082382   1.989393   2.144416   2.708928   0.000000
     6  H    1.085728   2.074477   2.146051   2.650391   1.748750
     7  H    1.931654   0.946482   2.656680   3.929012   2.781525
     8  H    2.144586   2.712718   1.082427   1.989204   3.039163
     9  H    2.145775   2.646807   1.085719   2.074763   2.489559
    10  H    2.658406   3.927986   1.931528   0.946465   2.553274
                    6          7          8          9         10
     6  H    0.000000
     7  H    2.295346   0.000000
     8  H    2.486993   2.555135   0.000000
     9  H    3.043521   2.997165   1.748833   0.000000
    10  H    3.005176   4.391198   2.781098   2.294138   0.000000
 Stoichiometry    C2H6O2
 Framework group  C1[X(C2H6O2)]
 Deg. of freedom    24
 Full point group                 C1      NOp   1
 Largest Abelian subgroup         C1      NOp   1
 Largest concise Abelian subgroup C1      NOp   1
                         Standard orientation:                         
 ---------------------------------------------------------------------
 Center     Atomic      Atomic             Coordinates (Angstroms)
 Number     Number       Type             X           Y           Z
 ---------------------------------------------------------------------
      1          6           0       -0.565177   -0.502633    0.064402
      2          8           0       -1.822319    0.101862   -0.111826
      3          6           0        0.565119    0.502827   -0.061767
      4          8           0        1.822455   -0.102652    0.109460
      5          1           0       -0.489803   -1.244080   -0.720536
      6          1           0       -0.492280   -1.023490    1.014244
      7          1           0       -1.995418    0.667454    0.627073
      8          1           0        0.492336    1.241984    0.725632
      9          1           0        0.489448    1.026440   -1.009865
     10          1           0        1.994979   -0.663156   -0.633418
 ---------------------------------------------------------------------
 Rotational constants (GHZ):     29.9674857      3.9708854      3.7288877
 Standard basis: 6-31G(d) (6D, 7F)
 There are    72 symmetry adapted cartesian basis functions of A   symmetry.
 There are    72 symmetry adapted basis functions of A   symmetry.
    72 basis functions,   136 primitive gaussians,    72 cartesian basis functions
    17 alpha electrons       17 beta electrons
       nuclear repulsion energy       131.1004394397 Hartrees.
 NAtoms=   10 NActive=   10 NUniq=   10 SFac= 1.00D+00 NAtFMM=   60 NAOKFM=F Big=F
 Integral buffers will be    131072 words long.
 Raffenetti 1 integral format.
 Two-electron integral symmetry is turned on.
 One-electron integrals computed using PRISM.
 NBasis=    72 RedAO= T EigKep=  4.36D-03  NBF=    72
 NBsUse=    72 1.00D-06 EigRej= -1.00D+00 NBFU=    72
 Initial guess from the checkpoint file:  "1-2-ethanediol-open-opt.chk"
 B after Tr=    -0.000000   -0.000000   -0.000000
         Rot=    0.999920   -0.012504   -0.001562    0.000489 Ang=  -1.45 deg.
 ExpMin= 1.61D-01 ExpMax= 5.48D+03 ExpMxC= 8.25D+02 IAcc=1 IRadAn=         1 AccDes= 0.00D+00
 Harris functional with IExCor=  205 and IRadAn=       1 diagonalized for initial guess.
 HarFok:  IExCor=  205 AccDes= 0.00D+00 IRadAn=         1 IDoV= 1 UseB2=F ITyADJ=14
 ICtDFT=  3500011 ScaDFX=  1.000000  1.000000  1.000000  1.000000
 FoFCou: FMM=F IPFlag=           0 FMFlag=      100000 FMFlg1=           0
         NFxFlg=           0 DoJE=T BraDBF=F KetDBF=T FulRan=T
         wScrn=  0.000000 ICntrl=     500 IOpCl=  0 I1Cent=   200000004 NGrid=           0
         NMat0=    1 NMatS0=      1 NMatT0=    0 NMatD0=    1 NMtDS0=    0 NMtDT0=    0
 Petite list used in FoFCou.
 Keep R1 ints in memory in canonical form, NReq=4344071.
 Requested convergence on RMS density matrix=1.00D-08 within 128 cycles.
 Requested convergence on MAX density matrix=1.00D-06.
 Requested convergence on             energy=1.00D-06.
 No special actions if energy rises.
 SCF Done:  E(RHF) =  -228.921517845     A.U. after   10 cycles
            NFock= 10  Conv=0.73D-08     -V/T= 2.0015
 Calling FoFJK, ICntrl=      2127 FMM=F ISym2X=0 I1Cent= 0 IOpClX= 0 NMat=1 NMatS=1 NMatT=0.
 ***** Axes restored to original set *****
 -------------------------------------------------------------------
 Center     Atomic                   Forces (Hartrees/Bohr)
 Number     Number              X              Y              Z
 -------------------------------------------------------------------
      1        6          -0.000308155    0.000755062    0.006079092
      2        8           0.001808691   -0.001021283   -0.004414683
      3        6           0.000297843   -0.000705613   -0.006121457
      4        8          -0.001849574    0.000998896    0.004413181
      5        1           0.001900965   -0.000385569   -0.000386123
      6        1          -0.000779961    0.000699185   -0.000462326
      7        1          -0.001622475    0.001186247    0.000659219
      8        1          -0.001925670    0.000378930    0.000431919
      9        1           0.000828650   -0.000737675    0.000457506
     10        1           0.001649687   -0.001168181   -0.000656329
 -------------------------------------------------------------------
 Cartesian Forces:  Max     0.006121457 RMS     0.002183803

 GradGradGradGradGradGradGradGradGradGradGradGradGradGradGradGradGradGrad
 Berny optimization.
 Using GEDIIS/GDIIS optimizer.
 FormGI is forming the generalized inverse of G from B-inverse, IUseBI=4.
 Internal  Forces:  Max     0.002994602 RMS     0.001186689
 Search for a local minimum.
 Step number   2 out of a maximum of   48
 All quantities printed in internal units (Hartrees-Bohrs-Radians)
 Mixed Optimization -- RFO/linear search
 Update second derivatives using D2CorX and points    1    2
 DE= -3.07D-03 DEPred=-3.37D-03 R= 9.10D-01
 TightC=F SS=  1.41D+00  RLast= 2.00D-01 DXNew= 5.0454D-01 5.9898D-01
 Trust test= 9.10D-01 RLast= 2.00D-01 DXMaxT set to 5.05D-01
 ITU=  1  0
 Use linear search instead of GDIIS.
     Eigenvalues ---    0.00440   0.01414   0.01421   0.04891   0.05496
     Eigenvalues ---    0.05876   0.06000   0.11494   0.11611   0.13934
     Eigenvalues ---    0.14165   0.15557   0.16000   0.22021   0.22203
     Eigenvalues ---    0.30094   0.34197   0.34207   0.34247   0.34954
     Eigenvalues ---    0.40408   0.42388   0.52736   0.53547
 RFO step:  Lambda=-3.13538345D-04 EMin= 4.40257266D-03
 Quartic linear search produced a step of -0.06604.
 Iteration  1 RMS(Cart)=  0.00908198 RMS(Int)=  0.00010086
 Iteration  2 RMS(Cart)=  0.00008646 RMS(Int)=  0.00001809
 Iteration  3 RMS(Cart)=  0.00000001 RMS(Int)=  0.00001809
 Variable       Old X    -DE/DX   Delta X   Delta X   Delta X     New X
                                 (Linear)    (Quad)   (Total)
    R1        2.65698  -0.00229   0.00181  -0.00833  -0.00652   2.65046
    R2        2.86868   0.00201   0.00082   0.00477   0.00559   2.87427
    R3        2.04541   0.00128   0.00157   0.00063   0.00219   2.04760
    R4        2.05173   0.00055   0.00119  -0.00067   0.00052   2.05225
    R5        1.78859   0.00123   0.00333  -0.00385  -0.00053   1.78806
    R6        2.65694  -0.00229   0.00181  -0.00833  -0.00652   2.65042
    R7        2.04549   0.00127   0.00156   0.00059   0.00215   2.04764
    R8        2.05171   0.00056   0.00120  -0.00066   0.00054   2.05225
    R9        1.78856   0.00124   0.00333  -0.00385  -0.00051   1.78805
    A1        1.95041  -0.00060  -0.00083  -0.00113  -0.00199   1.94841
    A2        1.83991   0.00155   0.00346   0.01152   0.01497   1.85489
    A3        1.95620  -0.00067  -0.00331  -0.00533  -0.00869   1.94752
    A4        1.91940  -0.00037   0.00027   0.00125   0.00152   1.92092
    A5        1.91821   0.00015   0.00122  -0.00715  -0.00595   1.91226
    A6        1.87668  -0.00000  -0.00074   0.00185   0.00111   1.87779
    A7        1.89926   0.00297  -0.00167   0.02045   0.01878   1.91804
    A8        1.95034  -0.00061  -0.00082  -0.00121  -0.00206   1.94828
    A9        1.91959  -0.00037   0.00023   0.00144   0.00167   1.92127
   A10        1.91783   0.00017   0.00126  -0.00722  -0.00597   1.91186
   A11        1.83964   0.00157   0.00348   0.01170   0.01516   1.85480
   A12        1.95666  -0.00069  -0.00334  -0.00555  -0.00894   1.94772
   A13        1.87676  -0.00000  -0.00075   0.00187   0.00112   1.87789
   A14        1.89911   0.00299  -0.00168   0.02060   0.01892   1.91803
    D1       -1.20523   0.00006   0.00259  -0.01310  -0.01049  -1.21572
    D2        2.99330  -0.00012   0.00055  -0.02107  -0.02051   2.97279
    D3        0.95686  -0.00070   0.00120  -0.02738  -0.02619   0.93067
    D4       -3.13769  -0.00000   0.00014  -0.00336  -0.00322  -3.14091
    D5        1.10867  -0.00134  -0.00382  -0.01800  -0.02182   1.08685
    D6       -0.95410  -0.00121  -0.00383  -0.01678  -0.02058  -0.97468
    D7       -1.10059   0.00132   0.00410   0.01098   0.01507  -1.08552
    D8       -3.13743  -0.00002   0.00013  -0.00365  -0.00352  -3.14095
    D9        1.08299   0.00011   0.00013  -0.00244  -0.00228   1.08071
   D10        0.96218   0.00118   0.00410   0.00968   0.01374   0.97593
   D11       -1.07465  -0.00015   0.00014  -0.00496  -0.00485  -1.07950
   D12       -3.13742  -0.00002   0.00014  -0.00375  -0.00361  -3.14103
   D13        1.20955  -0.00008  -0.00250   0.01148   0.00897   1.21852
   D14       -2.98896   0.00011  -0.00050   0.01975   0.01925  -2.96971
   D15       -0.95234   0.00068  -0.00116   0.02608   0.02494  -0.92741
         Item               Value     Threshold  Converged?
 Maximum Force            0.002995     0.000450     NO 
 RMS     Force            0.001187     0.000300     NO 
 Maximum Displacement     0.028987     0.001800     NO 
 RMS     Displacement     0.009047     0.001200     NO 
 Predicted change in Energy=-1.747161D-04
 GradGradGradGradGradGradGradGradGradGradGradGradGradGradGradGradGradGrad

                          Input orientation:                          
 ---------------------------------------------------------------------
 Center     Atomic      Atomic             Coordinates (Angstroms)
 Number     Number       Type             X           Y           Z
 ---------------------------------------------------------------------
      1          6           0        2.248428    2.306538    2.123825
      2          8           0        1.192740    2.744867    2.936578
      3          6           0        1.873857    1.055342    1.344313
      4          8           0        2.929937    0.616653    0.532294
      5          1           0        3.076874    2.095567    2.789584
      6          1           0        2.570422    3.081607    1.434625
      7          1           0        0.492013    3.084373    2.398974
      8          1           0        1.045825    1.266133    0.677946
      9          1           0        1.551386    0.280731    2.033803
     10          1           0        3.629207    0.274779    1.070278
 ---------------------------------------------------------------------
                    Distance matrix (angstroms):
                    1          2          3          4          5
     1  C    0.000000
     2  O    1.402562   0.000000
     3  C    1.520997   2.419447   0.000000
     4  O    2.419325   3.650717   1.402543   0.000000
     5  H    1.083544   1.998290   2.148983   2.702617   0.000000
     6  H    1.086005   2.065736   2.144553   2.649425   1.750623
     7  H    1.940549   0.946203   2.671848   3.939240   2.794963
     8  H    2.149246   2.703638   1.083566   1.998228   3.045018
     9  H    2.144263   2.648697   1.086004   2.065859   2.488362
    10  H    2.672930   3.939643   1.940522   0.946194   2.564441
                    6          7          8          9         10
     6  H    0.000000
     7  H    2.291235   0.000000
     8  H    2.488554   2.564106   0.000000
     9  H    3.040123   3.019276   1.750701   0.000000
    10  H    3.021929   4.416020   2.794739   2.290361   0.000000
 Stoichiometry    C2H6O2
 Framework group  C1[X(C2H6O2)]
 Deg. of freedom    24
 Full point group                 C1      NOp   1
 Largest Abelian subgroup         C1      NOp   1
 Largest concise Abelian subgroup C1      NOp   1
                         Standard orientation:                         
 ---------------------------------------------------------------------
 Center     Atomic      Atomic             Coordinates (Angstroms)
 Number     Number       Type             X           Y           Z
 ---------------------------------------------------------------------
      1          6           0       -0.566272   -0.503819    0.062304
      2          8           0       -1.819066    0.102131   -0.112371
      3          6           0        0.566262    0.503852   -0.061790
      4          8           0        1.819002   -0.102410    0.112037
      5          1           0       -0.481654   -1.255476   -0.713529
      6          1           0       -0.498063   -1.011472    1.019928
      7          1           0       -2.010910    0.663338    0.624883
      8          1           0        0.482319    1.255323    0.714328
      9          1           0        0.497366    1.011678   -1.019271
     10          1           0        2.011507   -0.661359   -0.626747
 ---------------------------------------------------------------------
 Rotational constants (GHZ):     29.9234662      3.9781829      3.7345937
 Standard basis: 6-31G(d) (6D, 7F)
 There are    72 symmetry adapted cartesian basis functions of A   symmetry.
 There are    72 symmetry adapted basis functions of A   symmetry.
    72 basis functions,   136 primitive gaussians,    72 cartesian basis functions
    17 alpha electrons       17 beta electrons
       nuclear repulsion energy       131.1548925633 Hartrees.
 NAtoms=   10 NActive=   10 NUniq=   10 SFac= 1.00D+00 NAtFMM=   60 NAOKFM=F Big=F
 Integral buffers will be    131072 words long.
 Raffenetti 1 integral format.
 Two-electron integral symmetry is turned on.
 One-electron integrals computed using PRISM.
 NBasis=    72 RedAO= T EigKep=  4.36D-03  NBF=    72
 NBsUse=    72 1.00D-06 EigRej= -1.00D+00 NBFU=    72
 Initial guess from the checkpoint file:  "1-2-ethanediol-open-opt.chk"
 B after Tr=    -0.000000   -0.000000   -0.000000
         Rot=    0.999995    0.003013    0.000770   -0.000236 Ang=   0.36 deg.
 ExpMin= 1.61D-01 ExpMax= 5.48D+03 ExpMxC= 8.25D+02 IAcc=1 IRadAn=         1 AccDes= 0.00D+00
 Harris functional with IExCor=  205 and IRadAn=       1 diagonalized for initial guess.
 HarFok:  IExCor=  205 AccDes= 0.00D+00 IRadAn=         1 IDoV= 1 UseB2=F ITyADJ=14
 ICtDFT=  3500011 ScaDFX=  1.000000  1.000000  1.000000  1.000000
 FoFCou: FMM=F IPFlag=           0 FMFlag=      100000 FMFlg1=           0
         NFxFlg=           0 DoJE=T BraDBF=F KetDBF=T FulRan=T
         wScrn=  0.000000 ICntrl=     500 IOpCl=  0 I1Cent=   200000004 NGrid=           0
         NMat0=    1 NMatS0=      1 NMatT0=    0 NMatD0=    1 NMtDS0=    0 NMtDT0=    0
 Petite list used in FoFCou.
 Keep R1 ints in memory in canonical form, NReq=4344043.
 Requested convergence on RMS density matrix=1.00D-08 within 128 cycles.
 Requested convergence on MAX density matrix=1.00D-06.
 Requested convergence on             energy=1.00D-06.
 No special actions if energy rises.
 SCF Done:  E(RHF) =  -228.921673282     A.U. after   10 cycles
            NFock= 10  Conv=0.27D-08     -V/T= 2.0015
 Calling FoFJK, ICntrl=      2127 FMM=F ISym2X=0 I1Cent= 0 IOpClX= 0 NMat=1 NMatS=1 NMatT=0.
 ***** Axes restored to original set *****
 -------------------------------------------------------------------
 Center     Atomic                   Forces (Hartrees/Bohr)
 Number     Number              X              Y              Z
 -------------------------------------------------------------------
      1        6          -0.001839382    0.001248901    0.000031413
      2        8           0.001132158   -0.001123645    0.001240693
      3        6           0.001834676   -0.001215070   -0.000028660
      4        8          -0.001133432    0.001090646   -0.001241432
      5        1           0.000071036   -0.000030083    0.000074352
      6        1           0.000486634    0.000359678   -0.000391569
      7        1          -0.000270923    0.000621030   -0.001018236
      8        1          -0.000074783    0.000044407   -0.000046801
      9        1          -0.000487040   -0.000387277    0.000362794
     10        1           0.000281056   -0.000608587    0.001017447
 -------------------------------------------------------------------
 Cartesian Forces:  Max     0.001839382 RMS     0.000854914

 GradGradGradGradGradGradGradGradGradGradGradGradGradGradGradGradGradGrad
 Berny optimization.
 Using GEDIIS/GDIIS optimizer.
 FormGI is forming the generalized inverse of G from B-inverse, IUseBI=4.
 Internal  Forces:  Max     0.001013585 RMS     0.000449322
 Search for a local minimum.
 Step number   3 out of a maximum of   48
 All quantities printed in internal units (Hartrees-Bohrs-Radians)
 Mixed Optimization -- En-DIIS/RFO-DIIS
 Update second derivatives using D2CorX and points    1    2    3
 DE= -1.55D-04 DEPred=-1.75D-04 R= 8.90D-01
 TightC=F SS=  1.41D+00  RLast= 7.21D-02 DXNew= 8.4853D-01 2.1641D-01
 Trust test= 8.90D-01 RLast= 7.21D-02 DXMaxT set to 5.05D-01
 ITU=  1  1  0
 Use linear search instead of GDIIS.
     Eigenvalues ---    0.00440   0.01193   0.01421   0.04933   0.05845
     Eigenvalues ---    0.05881   0.06472   0.11411   0.11579   0.13917
     Eigenvalues ---    0.14256   0.16000   0.18690   0.22025   0.22919
     Eigenvalues ---    0.29345   0.34207   0.34247   0.34415   0.34746
     Eigenvalues ---    0.38591   0.42388   0.52736   0.53876
 RFO step:  Lambda=-4.61686836D-05 EMin= 4.39863876D-03
 Quartic linear search produced a step of -0.09152.
 Iteration  1 RMS(Cart)=  0.00529579 RMS(Int)=  0.00004618
 Iteration  2 RMS(Cart)=  0.00003909 RMS(Int)=  0.00000122
 Iteration  3 RMS(Cart)=  0.00000000 RMS(Int)=  0.00000122
 Variable       Old X    -DE/DX   Delta X   Delta X   Delta X     New X
                                 (Linear)    (Quad)   (Total)
    R1        2.65046  -0.00068   0.00060  -0.00295  -0.00236   2.64810
    R2        2.87427   0.00075  -0.00051   0.00357   0.00306   2.87733
    R3        2.04760   0.00011  -0.00020   0.00081   0.00061   2.04821
    R4        2.05225   0.00065  -0.00005   0.00184   0.00179   2.05404
    R5        1.78806   0.00100   0.00005   0.00161   0.00166   1.78972
    R6        2.65042  -0.00066   0.00060  -0.00292  -0.00233   2.64810
    R7        2.04764   0.00009  -0.00020   0.00077   0.00057   2.04821
    R8        2.05225   0.00065  -0.00005   0.00185   0.00180   2.05405
    R9        1.78805   0.00101   0.00005   0.00162   0.00167   1.78972
    A1        1.94841   0.00029   0.00018   0.00113   0.00131   1.94973
    A2        1.85489  -0.00016  -0.00137   0.00114  -0.00023   1.85466
    A3        1.94752   0.00008   0.00080   0.00107   0.00186   1.94938
    A4        1.92092  -0.00027  -0.00014  -0.00278  -0.00292   1.91800
    A5        1.91226   0.00008   0.00054   0.00055   0.00110   1.91336
    A6        1.87779  -0.00005  -0.00010  -0.00128  -0.00139   1.87641
    A7        1.91804  -0.00101  -0.00172  -0.00129  -0.00301   1.91503
    A8        1.94828   0.00030   0.00019   0.00117   0.00136   1.94965
    A9        1.92127  -0.00030  -0.00015  -0.00294  -0.00309   1.91817
   A10        1.91186   0.00012   0.00055   0.00080   0.00135   1.91321
   A11        1.85480  -0.00014  -0.00139   0.00130  -0.00009   1.85471
   A12        1.94772   0.00005   0.00082   0.00085   0.00167   1.94939
   A13        1.87789  -0.00005  -0.00010  -0.00137  -0.00147   1.87641
   A14        1.91803  -0.00101  -0.00173  -0.00122  -0.00295   1.91508
    D1       -1.21572  -0.00045   0.00096  -0.02045  -0.01949  -1.23522
    D2        2.97279  -0.00018   0.00188  -0.01842  -0.01654   2.95624
    D3        0.93067  -0.00007   0.00240  -0.01813  -0.01573   0.91493
    D4       -3.14091   0.00000   0.00030  -0.00113  -0.00083   3.14144
    D5        1.08685   0.00019   0.00200  -0.00158   0.00041   1.08726
    D6       -0.97468   0.00036   0.00188   0.00136   0.00324  -0.97144
    D7       -1.08552  -0.00019  -0.00138  -0.00079  -0.00217  -1.08769
    D8       -3.14095  -0.00001   0.00032  -0.00125  -0.00092   3.14132
    D9        1.08071   0.00017   0.00021   0.00170   0.00191   1.08262
   D10        0.97593  -0.00036  -0.00126  -0.00368  -0.00494   0.97098
   D11       -1.07950  -0.00018   0.00044  -0.00414  -0.00370  -1.08319
   D12       -3.14103  -0.00000   0.00033  -0.00120  -0.00087   3.14129
   D13        1.21852   0.00045  -0.00082   0.01955   0.01873   1.23725
   D14       -2.96971   0.00016  -0.00176   0.01746   0.01569  -2.95401
   D15       -0.92741   0.00004  -0.00228   0.01703   0.01475  -0.91266
         Item               Value     Threshold  Converged?
 Maximum Force            0.001014     0.000450     NO 
 RMS     Force            0.000449     0.000300     NO 
 Maximum Displacement     0.017166     0.001800     NO 
 RMS     Displacement     0.005306     0.001200     NO 
 Predicted change in Energy=-2.476728D-05
 GradGradGradGradGradGradGradGradGradGradGradGradGradGradGradGradGradGrad

                          Input orientation:                          
 ---------------------------------------------------------------------
 Center     Atomic      Atomic             Coordinates (Angstroms)
 Number     Number       Type             X           Y           Z
 ---------------------------------------------------------------------
      1          6           0        2.245561    2.308017    2.124336
      2          8           0        1.190149    2.741632    2.937826
      3          6           0        1.876681    1.053592    1.344139
      4          8           0        2.932086    0.620174    0.530539
      5          1           0        3.075074    2.097989    2.789588
      6          1           0        2.567306    3.084931    1.435603
      7          1           0        0.495144    3.093457    2.399172
      8          1           0        1.046988    1.263370    0.679029
      9          1           0        1.555251    0.276673    2.033018
     10          1           0        3.626450    0.266755    1.068969
 ---------------------------------------------------------------------
                    Distance matrix (angstroms):
                    1          2          3          4          5
     1  C    0.000000
     2  O    1.401315   0.000000
     3  C    1.522617   2.420877   0.000000
     4  O    2.420809   3.651021   1.401312   0.000000
     5  H    1.083865   1.997296   2.148542   2.703273   0.000000
     6  H    1.086954   2.066661   2.147479   2.650893   1.750759
     7  H    1.938146   0.947081   2.680073   3.943045   2.792744
     8  H    2.148669   2.703316   1.083868   1.997334   3.043712
     9  H    2.147376   2.651037   1.086956   2.066666   2.489870
    10  H    2.680933   3.943755   1.938175   0.947076   2.572540
                    6          7          8          9         10
     6  H    0.000000
     7  H    2.285255   0.000000
     8  H    2.490352   2.571506   0.000000
     9  H    3.044252   3.031859   1.750768   0.000000
    10  H    3.032874   4.423207   2.792655   2.284590   0.000000
 Stoichiometry    C2H6O2
 Framework group  C1[X(C2H6O2)]
 Deg. of freedom    24
 Full point group                 C1      NOp   1
 Largest Abelian subgroup         C1      NOp   1
 Largest concise Abelian subgroup C1      NOp   1
                         Standard orientation:                         
 ---------------------------------------------------------------------
 Center     Atomic      Atomic             Coordinates (Angstroms)
 Number     Number       Type             X           Y           Z
 ---------------------------------------------------------------------
      1          6           0       -0.568204   -0.503043    0.060929
      2          8           0       -1.819045    0.104189   -0.113287
      3          6           0        0.568183    0.503002   -0.060974
      4          8           0        1.818960   -0.104292    0.113450
      5          1           0       -0.483097   -1.251757   -0.718138
      6          1           0       -0.500438   -1.016363    1.016637
      7          1           0       -2.015832    0.650966    0.634558
      8          1           0        0.483069    1.251962    0.717861
      9          1           0        0.500466    1.016024   -1.016848
     10          1           0        2.016638   -0.649764   -0.635106
 ---------------------------------------------------------------------
 Rotational constants (GHZ):     29.9425000      3.9742708      3.7328932
 Standard basis: 6-31G(d) (6D, 7F)
 There are    72 symmetry adapted cartesian basis functions of A   symmetry.
 There are    72 symmetry adapted basis functions of A   symmetry.
    72 basis functions,   136 primitive gaussians,    72 cartesian basis functions
    17 alpha electrons       17 beta electrons
       nuclear repulsion energy       131.1322843365 Hartrees.
 NAtoms=   10 NActive=   10 NUniq=   10 SFac= 1.00D+00 NAtFMM=   60 NAOKFM=F Big=F
 Integral buffers will be    131072 words long.
 Raffenetti 1 integral format.
 Two-electron integral symmetry is turned on.
 One-electron integrals computed using PRISM.
 NBasis=    72 RedAO= T EigKep=  4.37D-03  NBF=    72
 NBsUse=    72 1.00D-06 EigRej= -1.00D+00 NBFU=    72
 Initial guess from the checkpoint file:  "1-2-ethanediol-open-opt.chk"
 B after Tr=    -0.000000    0.000000   -0.000000
         Rot=    0.999997   -0.002425    0.000169    0.000178 Ang=  -0.28 deg.
 Keep R1 ints in memory in canonical form, NReq=4344043.
 Requested convergence on RMS density matrix=1.00D-08 within 128 cycles.
 Requested convergence on MAX density matrix=1.00D-06.
 Requested convergence on             energy=1.00D-06.
 No special actions if energy rises.
 SCF Done:  E(RHF) =  -228.921706005     A.U. after    9 cycles
            NFock=  9  Conv=0.73D-08     -V/T= 2.0015
 Calling FoFJK, ICntrl=      2127 FMM=F ISym2X=0 I1Cent= 0 IOpClX= 0 NMat=1 NMatS=1 NMatT=0.
 ***** Axes restored to original set *****
 -------------------------------------------------------------------
 Center     Atomic                   Forces (Hartrees/Bohr)
 Number     Number              X              Y              Z
 -------------------------------------------------------------------
      1        6          -0.000007583    0.000021255   -0.000208513
      2        8          -0.000340390   -0.000356429    0.000349652
      3        6           0.000018031   -0.000022517    0.000227564
      4        8           0.000336147    0.000338297   -0.000358145
      5        1           0.000072531    0.000129239   -0.000034091
      6        1           0.000048790   -0.000158928   -0.000097488
      7        1           0.000190709    0.000227333   -0.000128168
      8        1          -0.000070408   -0.000116805    0.000033776
      9        1          -0.000058309    0.000152705    0.000084684
     10        1          -0.000189517   -0.000214151    0.000130730
 -------------------------------------------------------------------
 Cartesian Forces:  Max     0.000358145 RMS     0.000194484

 GradGradGradGradGradGradGradGradGradGradGradGradGradGradGradGradGradGrad
 Berny optimization.
 Using GEDIIS/GDIIS optimizer.
 FormGI is forming the generalized inverse of G from B-inverse, IUseBI=4.
 Internal  Forces:  Max     0.000299572 RMS     0.000121335
 Search for a local minimum.
 Step number   4 out of a maximum of   48
 All quantities printed in internal units (Hartrees-Bohrs-Radians)
 Mixed Optimization -- En-DIIS/RFO-DIIS
 Swapping is turned off.
 Update second derivatives using D2CorX and points    1    2    3    4
 DE= -3.27D-05 DEPred=-2.48D-05 R= 1.32D+00
 TightC=F SS=  1.41D+00  RLast= 4.31D-02 DXNew= 8.4853D-01 1.2943D-01
 Trust test= 1.32D+00 RLast= 4.31D-02 DXMaxT set to 5.05D-01
 ITU=  1  1  1  0
     Eigenvalues ---    0.00439   0.00612   0.01421   0.04918   0.05766
     Eigenvalues ---    0.05892   0.06645   0.11379   0.11583   0.13924
     Eigenvalues ---    0.14698   0.16000   0.17750   0.22024   0.23221
     Eigenvalues ---    0.30876   0.34207   0.34247   0.34746   0.35445
     Eigenvalues ---    0.42085   0.42388   0.52736   0.57572
 En-DIIS/RFO-DIIS IScMMF=        0 using points:     4    3
 RFO step:  Lambda=-2.68674909D-06.
 DidBck=F Rises=F RFO-DIIS coefs:    1.47965   -0.47965
 Iteration  1 RMS(Cart)=  0.00679480 RMS(Int)=  0.00009084
 Iteration  2 RMS(Cart)=  0.00007754 RMS(Int)=  0.00000107
 Iteration  3 RMS(Cart)=  0.00000001 RMS(Int)=  0.00000107
 Variable       Old X    -DE/DX   Delta X   Delta X   Delta X     New X
                                 (Linear)    (Quad)   (Total)
    R1        2.64810   0.00020  -0.00113   0.00017  -0.00096   2.64714
    R2        2.87733  -0.00018   0.00147  -0.00073   0.00073   2.87806
    R3        2.04821   0.00001   0.00029   0.00012   0.00042   2.04862
    R4        2.05404  -0.00004   0.00086  -0.00041   0.00045   2.05450
    R5        1.78972   0.00002   0.00080  -0.00042   0.00037   1.79009
    R6        2.64810   0.00020  -0.00112   0.00017  -0.00094   2.64715
    R7        2.04821   0.00001   0.00027   0.00013   0.00040   2.04862
    R8        2.05405  -0.00004   0.00086  -0.00041   0.00045   2.05450
    R9        1.78972   0.00002   0.00080  -0.00043   0.00037   1.79009
    A1        1.94973  -0.00011   0.00063  -0.00088  -0.00025   1.94948
    A2        1.85466   0.00002  -0.00011   0.00186   0.00175   1.85641
    A3        1.94938   0.00016   0.00089   0.00105   0.00194   1.95132
    A4        1.91800   0.00007  -0.00140   0.00099  -0.00041   1.91759
    A5        1.91336  -0.00009   0.00053  -0.00217  -0.00165   1.91171
    A6        1.87641  -0.00004  -0.00066  -0.00069  -0.00136   1.87505
    A7        1.91503  -0.00029  -0.00144  -0.00016  -0.00160   1.91343
    A8        1.94965  -0.00010   0.00065  -0.00084  -0.00019   1.94946
    A9        1.91817   0.00006  -0.00148   0.00082  -0.00066   1.91752
   A10        1.91321  -0.00008   0.00065  -0.00200  -0.00135   1.91186
   A11        1.85471   0.00002  -0.00004   0.00181   0.00177   1.85648
   A12        1.94939   0.00015   0.00080   0.00106   0.00186   1.95125
   A13        1.87641  -0.00005  -0.00071  -0.00072  -0.00143   1.87498
   A14        1.91508  -0.00030  -0.00142  -0.00022  -0.00164   1.91345
    D1       -1.23522  -0.00011  -0.00935  -0.01544  -0.02479  -1.26001
    D2        2.95624  -0.00016  -0.00793  -0.01731  -0.02525   2.93100
    D3        0.91493  -0.00020  -0.00755  -0.01815  -0.02569   0.88924
    D4        3.14144  -0.00000  -0.00040  -0.00009  -0.00049   3.14095
    D5        1.08726  -0.00000   0.00020  -0.00235  -0.00215   1.08511
    D6       -0.97144   0.00007   0.00156  -0.00077   0.00079  -0.97065
    D7       -1.08769   0.00000  -0.00104   0.00230   0.00126  -1.08643
    D8        3.14132   0.00000  -0.00044   0.00005  -0.00040   3.14092
    D9        1.08262   0.00007   0.00091   0.00163   0.00254   1.08516
   D10        0.97098  -0.00006  -0.00237   0.00075  -0.00162   0.96937
   D11       -1.08319  -0.00006  -0.00177  -0.00151  -0.00328  -1.08647
   D12        3.14129   0.00000  -0.00042   0.00008  -0.00034   3.14095
   D13        1.23725   0.00012   0.00899   0.01477   0.02376   1.26101
   D14       -2.95401   0.00015   0.00753   0.01643   0.02396  -2.93005
   D15       -0.91266   0.00018   0.00708   0.01721   0.02429  -0.88837
         Item               Value     Threshold  Converged?
 Maximum Force            0.000300     0.000450     YES
 RMS     Force            0.000121     0.000300     YES
 Maximum Displacement     0.022322     0.001800     NO 
 RMS     Displacement     0.006801     0.001200     NO 
 Predicted change in Energy=-1.232782D-05
 GradGradGradGradGradGradGradGradGradGradGradGradGradGradGradGradGradGrad

                          Input orientation:                          
 ---------------------------------------------------------------------
 Center     Atomic      Atomic             Coordinates (Angstroms)
 Number     Number       Type             X           Y           Z
 ---------------------------------------------------------------------
      1          6           0        2.242783    2.308373    2.125332
      2          8           0        1.185482    2.736075    2.938622
      3          6           0        1.879426    1.052963    1.343372
      4          8           0        2.936458    0.625754    0.529460
      5          1           0        3.074333    2.101148    2.789275
      6          1           0        2.562265    3.086158    1.436152
      7          1           0        0.499054    3.105270    2.400247
      8          1           0        1.047434    1.260084    0.679954
      9          1           0        1.560538    0.274862    2.032474
     10          1           0        3.622918    0.255903    1.067333
 ---------------------------------------------------------------------
                    Distance matrix (angstroms):
                    1          2          3          4          5
     1  C    0.000000
     2  O    1.400805   0.000000
     3  C    1.523005   2.420589   0.000000
     4  O    2.420578   3.650128   1.400813   0.000000
     5  H    1.084084   1.998299   2.148752   2.702325   0.000000
     6  H    1.087193   2.067729   2.146802   2.648716   1.750257
     7  H    1.936804   0.947277   2.689679   3.948262   2.791355
     8  H    2.148694   2.701701   1.084081   1.998357   3.043837
     9  H    2.146916   2.649404   1.087195   2.067688   2.489909
    10  H    2.690124   3.948933   1.936819   0.947272   2.582820
                    6          7          8          9         10
     6  H    0.000000
     7  H    2.277429   0.000000
     8  H    2.490199   2.581635   0.000000
     9  H    3.043426   3.045195   1.750214   0.000000
    10  H    3.044890   4.433292   2.791336   2.277119   0.000000
 Stoichiometry    C2H6O2
 Framework group  C1[X(C2H6O2)]
 Deg. of freedom    24
 Full point group                 C1      NOp   1
 Largest Abelian subgroup         C1      NOp   1
 Largest concise Abelian subgroup C1      NOp   1
                         Standard orientation:                         
 ---------------------------------------------------------------------
 Center     Atomic      Atomic             Coordinates (Angstroms)
 Number     Number       Type             X           Y           Z
 ---------------------------------------------------------------------
      1          6           0       -0.568920   -0.502720    0.059312
      2          8           0       -1.818391    0.106279   -0.114462
      3          6           0        0.568899    0.502639   -0.059712
      4          8           0        1.818320   -0.106243    0.114891
      5          1           0       -0.482674   -1.250837   -0.720510
      6          1           0       -0.500215   -1.018100    1.014116
      7          1           0       -2.023516    0.634143    0.644891
      8          1           0        0.482197    1.251104    0.719720
      9          1           0        0.500708    1.017648   -1.014755
     10          1           0        2.024197   -0.633763   -0.644492
 ---------------------------------------------------------------------
 Rotational constants (GHZ):     29.9587194      3.9732555      3.7336585
 Standard basis: 6-31G(d) (6D, 7F)
 There are    72 symmetry adapted cartesian basis functions of A   symmetry.
 There are    72 symmetry adapted basis functions of A   symmetry.
    72 basis functions,   136 primitive gaussians,    72 cartesian basis functions
    17 alpha electrons       17 beta electrons
       nuclear repulsion energy       131.1323390371 Hartrees.
 NAtoms=   10 NActive=   10 NUniq=   10 SFac= 1.00D+00 NAtFMM=   60 NAOKFM=F Big=F
 Integral buffers will be    131072 words long.
 Raffenetti 1 integral format.
 Two-electron integral symmetry is turned on.
 One-electron integrals computed using PRISM.
 NBasis=    72 RedAO= T EigKep=  4.37D-03  NBF=    72
 NBsUse=    72 1.00D-06 EigRej= -1.00D+00 NBFU=    72
 Initial guess from the checkpoint file:  "1-2-ethanediol-open-opt.chk"
 B after Tr=    -0.000000   -0.000000    0.000000
         Rot=    0.999998   -0.002173    0.000177   -0.000080 Ang=  -0.25 deg.
 ExpMin= 1.61D-01 ExpMax= 5.48D+03 ExpMxC= 8.25D+02 IAcc=1 IRadAn=         1 AccDes= 0.00D+00
 Harris functional with IExCor=  205 and IRadAn=       1 diagonalized for initial guess.
 HarFok:  IExCor=  205 AccDes= 0.00D+00 IRadAn=         1 IDoV= 1 UseB2=F ITyADJ=14
 ICtDFT=  3500011 ScaDFX=  1.000000  1.000000  1.000000  1.000000
 FoFCou: FMM=F IPFlag=           0 FMFlag=      100000 FMFlg1=           0
         NFxFlg=           0 DoJE=T BraDBF=F KetDBF=T FulRan=T
         wScrn=  0.000000 ICntrl=     500 IOpCl=  0 I1Cent=   200000004 NGrid=           0
         NMat0=    1 NMatS0=      1 NMatT0=    0 NMatD0=    1 NMtDS0=    0 NMtDT0=    0
 Petite list used in FoFCou.
 Keep R1 ints in memory in canonical form, NReq=4344043.
 Requested convergence on RMS density matrix=1.00D-08 within 128 cycles.
 Requested convergence on MAX density matrix=1.00D-06.
 Requested convergence on             energy=1.00D-06.
 No special actions if energy rises.
 SCF Done:  E(RHF) =  -228.921722065     A.U. after   10 cycles
            NFock= 10  Conv=0.13D-08     -V/T= 2.0015
 Calling FoFJK, ICntrl=      2127 FMM=F ISym2X=0 I1Cent= 0 IOpClX= 0 NMat=1 NMatS=1 NMatT=0.
 ***** Axes restored to original set *****
 -------------------------------------------------------------------
 Center     Atomic                   Forces (Hartrees/Bohr)
 Number     Number              X              Y              Z
 -------------------------------------------------------------------
      1        6           0.000835542   -0.000423143   -0.000668196
      2        8          -0.000689733    0.000104674    0.000074876
      3        6          -0.000832266    0.000409928    0.000673450
      4        8           0.000684356   -0.000108022   -0.000075469
      5        1          -0.000106691    0.000111623   -0.000023187
      6        1          -0.000142030   -0.000077417    0.000144779
      7        1           0.000215887    0.000027303    0.000192063
      8        1           0.000110423   -0.000108339    0.000010536
      9        1           0.000137215    0.000086855   -0.000139355
     10        1          -0.000212702   -0.000023462   -0.000189497
 -------------------------------------------------------------------
 Cartesian Forces:  Max     0.000835542 RMS     0.000361626

 GradGradGradGradGradGradGradGradGradGradGradGradGradGradGradGradGradGrad
 Berny optimization.
 Using GEDIIS/GDIIS optimizer.
 FormGI is forming the generalized inverse of G from B-inverse, IUseBI=4.
 Internal  Forces:  Max     0.000552928 RMS     0.000169583
 Search for a local minimum.
 Step number   5 out of a maximum of   48
 All quantities printed in internal units (Hartrees-Bohrs-Radians)
 Mixed Optimization -- En-DIIS/RFO-DIIS
 Swapping is turned off.
 Update second derivatives using D2CorX and points    1    2    3    4    5
 DE= -1.61D-05 DEPred=-1.23D-05 R= 1.30D+00
 TightC=F SS=  1.41D+00  RLast= 6.08D-02 DXNew= 8.4853D-01 1.8246D-01
 Trust test= 1.30D+00 RLast= 6.08D-02 DXMaxT set to 5.05D-01
 ITU=  1  1  1  1  0
     Eigenvalues ---    0.00356   0.00441   0.01421   0.04919   0.05902
     Eigenvalues ---    0.06110   0.06683   0.11573   0.11879   0.13925
     Eigenvalues ---    0.14648   0.16000   0.18100   0.22022   0.23285
     Eigenvalues ---    0.31034   0.34207   0.34247   0.34815   0.35460
     Eigenvalues ---    0.42388   0.46237   0.52736   0.63713
 En-DIIS/RFO-DIIS IScMMF=        0 using points:     5    4    3
 RFO step:  Lambda=-1.90351241D-06.
 DidBck=F Rises=F RFO-DIIS coefs:    1.54945   -0.67063    0.12118
 Iteration  1 RMS(Cart)=  0.00550917 RMS(Int)=  0.00005318
 Iteration  2 RMS(Cart)=  0.00004451 RMS(Int)=  0.00000040
 Iteration  3 RMS(Cart)=  0.00000000 RMS(Int)=  0.00000040
 Variable       Old X    -DE/DX   Delta X   Delta X   Delta X     New X
                                 (Linear)    (Quad)   (Total)
    R1        2.64714   0.00055  -0.00024   0.00092   0.00068   2.64782
    R2        2.87806  -0.00033   0.00003  -0.00036  -0.00032   2.87774
    R3        2.04862  -0.00012   0.00015  -0.00035  -0.00020   2.04843
    R4        2.05450  -0.00019   0.00003  -0.00021  -0.00018   2.05432
    R5        1.79009  -0.00025   0.00000  -0.00025  -0.00025   1.78985
    R6        2.64715   0.00055  -0.00024   0.00092   0.00068   2.64783
    R7        2.04862  -0.00011   0.00015  -0.00034  -0.00019   2.04843
    R8        2.05450  -0.00019   0.00003  -0.00022  -0.00019   2.05431
    R9        1.79009  -0.00025   0.00000  -0.00024  -0.00024   1.78985
    A1        1.94948  -0.00013  -0.00029  -0.00052  -0.00081   1.94867
    A2        1.85641  -0.00001   0.00099  -0.00068   0.00031   1.85672
    A3        1.95132  -0.00003   0.00084  -0.00116  -0.00032   1.95100
    A4        1.91759   0.00010   0.00013   0.00018   0.00031   1.91790
    A5        1.91171   0.00010  -0.00104   0.00177   0.00073   1.91244
    A6        1.87505  -0.00003  -0.00058   0.00038  -0.00020   1.87485
    A7        1.91343   0.00008  -0.00052   0.00075   0.00024   1.91366
    A8        1.94946  -0.00013  -0.00027  -0.00052  -0.00079   1.94867
    A9        1.91752   0.00010   0.00001   0.00024   0.00026   1.91777
   A10        1.91186   0.00009  -0.00091   0.00166   0.00075   1.91261
   A11        1.85648  -0.00001   0.00098  -0.00067   0.00032   1.85680
   A12        1.95125  -0.00003   0.00082  -0.00116  -0.00034   1.95091
   A13        1.87498  -0.00002  -0.00061   0.00043  -0.00018   1.87480
   A14        1.91345   0.00008  -0.00054   0.00078   0.00024   1.91368
    D1       -1.26001  -0.00006  -0.01126  -0.00800  -0.01926  -1.27927
    D2        2.93100  -0.00010  -0.01187  -0.00750  -0.01937   2.91163
    D3        0.88924  -0.00005  -0.01221  -0.00693  -0.01914   0.87010
    D4        3.14095   0.00000  -0.00017   0.00036   0.00019   3.14114
    D5        1.08511   0.00003  -0.00123   0.00136   0.00012   1.08524
    D6       -0.97065  -0.00006   0.00004  -0.00029  -0.00025  -0.97090
    D7       -1.08643  -0.00003   0.00096  -0.00068   0.00027  -1.08616
    D8        3.14092   0.00000  -0.00011   0.00031   0.00020   3.14112
    D9        1.08516  -0.00009   0.00116  -0.00134  -0.00017   1.08498
   D10        0.96937   0.00006  -0.00029   0.00093   0.00064   0.97001
   D11       -1.08647   0.00009  -0.00135   0.00193   0.00057  -1.08590
   D12        3.14095   0.00000  -0.00008   0.00028   0.00020   3.14115
   D13        1.26101   0.00006   0.01078   0.00762   0.01841   1.27942
   D14       -2.93005   0.00010   0.01126   0.00721   0.01847  -2.91158
   D15       -0.88837   0.00005   0.01156   0.00670   0.01826  -0.87011
         Item               Value     Threshold  Converged?
 Maximum Force            0.000553     0.000450     NO 
 RMS     Force            0.000170     0.000300     YES
 Maximum Displacement     0.018332     0.001800     NO 
 RMS     Displacement     0.005510     0.001200     NO 
 Predicted change in Energy=-4.587207D-06
 GradGradGradGradGradGradGradGradGradGradGradGradGradGradGradGradGradGrad

                          Input orientation:                          
 ---------------------------------------------------------------------
 Center     Atomic      Atomic             Coordinates (Angstroms)
 Number     Number       Type             X           Y           Z
 ---------------------------------------------------------------------
      1          6           0        2.241075    2.308645    2.125392
      2          8           0        1.181907    2.732351    2.938963
      3          6           0        1.881075    1.052596    1.343238
      4          8           0        2.940047    0.629221    0.529222
      5          1           0        3.073364    2.103919    2.789016
      6          1           0        2.557815    3.088113    1.436997
      7          1           0        0.501603    3.114971    2.402423
      8          1           0        1.048475    1.257324    0.680003
      9          1           0        1.564738    0.272869    2.031523
     10          1           0        3.620590    0.246580    1.065443
 ---------------------------------------------------------------------
                    Distance matrix (angstroms):
                    1          2          3          4          5
     1  C    0.000000
     2  O    1.401164   0.000000
     3  C    1.522834   2.420072   0.000000
     4  O    2.420079   3.649803   1.401174   0.000000
     5  H    1.083981   1.998754   2.148745   2.701699   0.000000
     6  H    1.087097   2.067750   2.147113   2.648831   1.749967
     7  H    1.937181   0.947147   2.697814   3.953965   2.790274
     8  H    2.148655   2.701186   1.083982   1.998823   3.043819
     9  H    2.147237   2.649351   1.087097   2.067696   2.490480
    10  H    2.697900   3.954278   1.937200   0.947147   2.592271
                    6          7          8          9         10
     6  H    0.000000
     7  H    2.271734   0.000000
     8  H    2.490569   2.591649   0.000000
     9  H    3.043889   3.057018   1.749938   0.000000
    10  H    3.056444   4.443339   2.790331   2.271680   0.000000
 Stoichiometry    C2H6O2
 Framework group  C1[X(C2H6O2)]
 Deg. of freedom    24
 Full point group                 C1      NOp   1
 Largest Abelian subgroup         C1      NOp   1
 Largest concise Abelian subgroup C1      NOp   1
                         Standard orientation:                         
 ---------------------------------------------------------------------
 Center     Atomic      Atomic             Coordinates (Angstroms)
 Number     Number       Type             X           Y           Z
 ---------------------------------------------------------------------
      1          6           0       -0.568938   -0.502696    0.058059
      2          8           0       -1.818052    0.107931   -0.115469
      3          6           0        0.568930    0.502654   -0.058354
      4          8           0        1.818021   -0.107876    0.115754
      5          1           0       -0.482552   -1.249445   -0.722913
      6          1           0       -0.501768   -1.019973    1.011837
      7          1           0       -2.031069    0.620863    0.651740
      8          1           0        0.482161    1.249615    0.722376
      9          1           0        0.502173    1.019712   -1.012279
     10          1           0        2.031357   -0.620958   -0.651267
 ---------------------------------------------------------------------
 Rotational constants (GHZ):     29.9655808      3.9718387      3.7334688
 Standard basis: 6-31G(d) (6D, 7F)
 There are    72 symmetry adapted cartesian basis functions of A   symmetry.
 There are    72 symmetry adapted basis functions of A   symmetry.
    72 basis functions,   136 primitive gaussians,    72 cartesian basis functions
    17 alpha electrons       17 beta electrons
       nuclear repulsion energy       131.1186776653 Hartrees.
 NAtoms=   10 NActive=   10 NUniq=   10 SFac= 1.00D+00 NAtFMM=   60 NAOKFM=F Big=F
 Integral buffers will be    131072 words long.
 Raffenetti 1 integral format.
 Two-electron integral symmetry is turned on.
 One-electron integrals computed using PRISM.
 NBasis=    72 RedAO= T EigKep=  4.37D-03  NBF=    72
 NBsUse=    72 1.00D-06 EigRej= -1.00D+00 NBFU=    72
 Initial guess from the checkpoint file:  "1-2-ethanediol-open-opt.chk"
 B after Tr=     0.000000   -0.000000   -0.000000
         Rot=    0.999998   -0.001941    0.000190   -0.000075 Ang=  -0.22 deg.
 Keep R1 ints in memory in canonical form, NReq=4344043.
 Requested convergence on RMS density matrix=1.00D-08 within 128 cycles.
 Requested convergence on MAX density matrix=1.00D-06.
 Requested convergence on             energy=1.00D-06.
 No special actions if energy rises.
 SCF Done:  E(RHF) =  -228.921728307     A.U. after    9 cycles
            NFock=  9  Conv=0.78D-08     -V/T= 2.0015
 Calling FoFJK, ICntrl=      2127 FMM=F ISym2X=0 I1Cent= 0 IOpClX= 0 NMat=1 NMatS=1 NMatT=0.
 ***** Axes restored to original set *****
 -------------------------------------------------------------------
 Center     Atomic                   Forces (Hartrees/Bohr)
 Number     Number              X              Y              Z
 -------------------------------------------------------------------
      1        6           0.000613972   -0.000367242   -0.000401887
      2        8          -0.000494546    0.000160075    0.000085559
      3        6          -0.000609925    0.000355386    0.000404790
      4        8           0.000489771   -0.000154857   -0.000088481
      5        1          -0.000054840    0.000045816   -0.000010291
      6        1          -0.000120033   -0.000122483    0.000078582
      7        1           0.000119310   -0.000042769    0.000118120
      8        1           0.000062788   -0.000050426   -0.000000988
      9        1           0.000115427    0.000132943   -0.000068974
     10        1          -0.000121924    0.000043558   -0.000116429
 -------------------------------------------------------------------
 Cartesian Forces:  Max     0.000613972 RMS     0.000260005

 GradGradGradGradGradGradGradGradGradGradGradGradGradGradGradGradGradGrad
 Berny optimization.
 Using GEDIIS/GDIIS optimizer.
 FormGI is forming the generalized inverse of G from B-inverse, IUseBI=4.
 Internal  Forces:  Max     0.000437385 RMS     0.000131538
 Search for a local minimum.
 Step number   6 out of a maximum of   48
 All quantities printed in internal units (Hartrees-Bohrs-Radians)
 Mixed Optimization -- En-DIIS/RFO-DIIS
 Swapping is turned off.
 Update second derivatives using D2CorX and points    1    2    3    4    5
                                                      6
 DE= -6.24D-06 DEPred=-4.59D-06 R= 1.36D+00
 TightC=F SS=  1.41D+00  RLast= 4.62D-02 DXNew= 8.4853D-01 1.3850D-01
 Trust test= 1.36D+00 RLast= 4.62D-02 DXMaxT set to 5.05D-01
 ITU=  1  1  1  1  1  0
     Eigenvalues ---    0.00312   0.00440   0.01421   0.04923   0.05899
     Eigenvalues ---    0.06056   0.06743   0.11571   0.11634   0.13925
     Eigenvalues ---    0.14748   0.16001   0.18427   0.22020   0.23306
     Eigenvalues ---    0.30980   0.34207   0.34248   0.34731   0.35469
     Eigenvalues ---    0.42388   0.43619   0.52736   0.58444
 En-DIIS/RFO-DIIS IScMMF=        0 using points:     6    5    4    3
 RFO step:  Lambda=-1.01686469D-06.
 DidBck=F Rises=F RFO-DIIS coefs:    1.46322   -0.42422   -0.24929    0.21029
 Iteration  1 RMS(Cart)=  0.00171711 RMS(Int)=  0.00000534
 Iteration  2 RMS(Cart)=  0.00000441 RMS(Int)=  0.00000021
 Iteration  3 RMS(Cart)=  0.00000000 RMS(Int)=  0.00000021
 Variable       Old X    -DE/DX   Delta X   Delta X   Delta X     New X
                                 (Linear)    (Quad)   (Total)
    R1        2.64782   0.00044   0.00077   0.00055   0.00132   2.64914
    R2        2.87774  -0.00032  -0.00077  -0.00041  -0.00117   2.87657
    R3        2.04843  -0.00006  -0.00020  -0.00002  -0.00022   2.04821
    R4        2.05432  -0.00017  -0.00044  -0.00006  -0.00050   2.05382
    R5        1.78985  -0.00017  -0.00045   0.00018  -0.00027   1.78958
    R6        2.64783   0.00043   0.00077   0.00053   0.00130   2.64914
    R7        2.04843  -0.00006  -0.00019  -0.00003  -0.00022   2.04821
    R8        2.05431  -0.00017  -0.00045  -0.00005  -0.00050   2.05382
    R9        1.78985  -0.00017  -0.00045   0.00018  -0.00026   1.78958
    A1        1.94867  -0.00009  -0.00066  -0.00002  -0.00068   1.94799
    A2        1.85672   0.00001   0.00026  -0.00021   0.00004   1.85676
    A3        1.95100   0.00001  -0.00046   0.00001  -0.00045   1.95055
    A4        1.91790   0.00008   0.00074  -0.00007   0.00067   1.91856
    A5        1.91244  -0.00001   0.00004  -0.00002   0.00003   1.91247
    A6        1.87485   0.00001   0.00014   0.00032   0.00046   1.87531
    A7        1.91366   0.00004   0.00068  -0.00069  -0.00001   1.91365
    A8        1.94867  -0.00009  -0.00066  -0.00002  -0.00068   1.94799
    A9        1.91777   0.00009   0.00074   0.00002   0.00076   1.91853
   A10        1.91261  -0.00003   0.00001  -0.00011  -0.00010   1.91251
   A11        1.85680   0.00000   0.00023  -0.00028  -0.00005   1.85675
   A12        1.95091   0.00002  -0.00043   0.00007  -0.00037   1.95054
   A13        1.87480   0.00001   0.00017   0.00034   0.00051   1.87531
   A14        1.91368   0.00004   0.00067  -0.00071  -0.00004   1.91364
    D1       -1.27927   0.00003  -0.00579   0.00010  -0.00569  -1.28496
    D2        2.91163  -0.00002  -0.00648   0.00033  -0.00615   2.90548
    D3        0.87010  -0.00005  -0.00656   0.00007  -0.00649   0.86361
    D4        3.14114  -0.00000   0.00024   0.00011   0.00036   3.14150
    D5        1.08524  -0.00000  -0.00011   0.00046   0.00035   1.08558
    D6       -0.97090  -0.00005  -0.00077   0.00011  -0.00066  -0.97156
    D7       -1.08616   0.00000   0.00063  -0.00021   0.00042  -1.08574
    D8        3.14112   0.00000   0.00027   0.00014   0.00041   3.14153
[...]
         Rot=    1.000000   -0.000433    0.000039   -0.000097 Ang=  -0.05 deg.
 Keep R1 ints in memory in canonical form, NReq=4344043.
 Requested convergence on RMS density matrix=1.00D-08 within 128 cycles.
 Requested convergence on MAX density matrix=1.00D-06.
 Requested convergence on             energy=1.00D-06.
 No special actions if energy rises.
 SCF Done:  E(RHF) =  -228.921729809     A.U. after    8 cycles
            NFock=  8  Conv=0.90D-08     -V/T= 2.0015
 Calling FoFJK, ICntrl=      2127 FMM=F ISym2X=0 I1Cent= 0 IOpClX= 0 NMat=1 NMatS=1 NMatT=0.
 ***** Axes restored to original set *****
 -------------------------------------------------------------------
 Center     Atomic                   Forces (Hartrees/Bohr)
 Number     Number              X              Y              Z
 -------------------------------------------------------------------
      1        6           0.000086332   -0.000017603   -0.000043030
      2        8          -0.000045160    0.000018089   -0.000006473
      3        6          -0.000089386    0.000018909    0.000038705
      4        8           0.000047336   -0.000018447    0.000009770
      5        1          -0.000015681    0.000008748    0.000002655
      6        1          -0.000014557   -0.000006177    0.000017280
      7        1           0.000019219   -0.000013223    0.000019274
      8        1           0.000015032   -0.000009762   -0.000002561
      9        1           0.000014813    0.000007634   -0.000014880
     10        1          -0.000017947    0.000011831   -0.000020740
 -------------------------------------------------------------------
 Cartesian Forces:  Max     0.000089386 RMS     0.000030582

 GradGradGradGradGradGradGradGradGradGradGradGradGradGradGradGradGradGrad
 Berny optimization.
 Using GEDIIS/GDIIS optimizer.
 FormGI is forming the generalized inverse of G from B-inverse, IUseBI=4.
 Internal  Forces:  Max     0.000030589 RMS     0.000013434
 Search for a local minimum.
 Step number   7 out of a maximum of   48
 All quantities printed in internal units (Hartrees-Bohrs-Radians)
 Mixed Optimization -- En-DIIS/RFO-DIIS
 Swapping is turned off.
 Update second derivatives using D2CorX and points    1    2    3    4    5
                                                      6    7
 DE= -1.50D-06 DEPred=-1.06D-06 R= 1.42D+00
 TightC=F SS=  1.41D+00  RLast= 1.52D-02 DXNew= 8.4853D-01 4.5593D-02
 Trust test= 1.42D+00 RLast= 1.52D-02 DXMaxT set to 5.05D-01
 ITU=  1  1  1  1  1  1  0
     Eigenvalues ---    0.00327   0.00440   0.01421   0.04928   0.05595
     Eigenvalues ---    0.05896   0.06786   0.11483   0.11568   0.13915
     Eigenvalues ---    0.14813   0.16001   0.18774   0.22020   0.23030
     Eigenvalues ---    0.29994   0.33924   0.34207   0.34248   0.35043
     Eigenvalues ---    0.37082   0.42389   0.52736   0.54100
 En-DIIS/RFO-DIIS IScMMF=        0 using points:     7    6    5    4    3
 RFO step:  Lambda=-1.41895659D-08.
 DidBck=F Rises=F RFO-DIIS coefs:    1.04151   -0.00683   -0.06904    0.02917    0.00520
 Iteration  1 RMS(Cart)=  0.00007214 RMS(Int)=  0.00000004
 Iteration  2 RMS(Cart)=  0.00000001 RMS(Int)=  0.00000004
 Variable       Old X    -DE/DX   Delta X   Delta X   Delta X     New X
                                 (Linear)    (Quad)   (Total)
    R1        2.64914   0.00003   0.00012  -0.00002   0.00011   2.64925
    R2        2.87657  -0.00001  -0.00010   0.00005  -0.00005   2.87652
    R3        2.04821  -0.00001  -0.00003  -0.00001  -0.00004   2.04817
    R4        2.05382  -0.00002  -0.00005  -0.00001  -0.00006   2.05375
    R5        1.78958  -0.00003  -0.00004  -0.00001  -0.00005   1.78953
    R6        2.64914   0.00003   0.00012  -0.00001   0.00011   2.64925
    R7        2.04821  -0.00001  -0.00003  -0.00001  -0.00004   2.04817
    R8        2.05382  -0.00002  -0.00005  -0.00001  -0.00006   2.05375
    R9        1.78958  -0.00003  -0.00004  -0.00001  -0.00005   1.78953
    A1        1.94799  -0.00002  -0.00005  -0.00007  -0.00012   1.94787
    A2        1.85676  -0.00000  -0.00005  -0.00005  -0.00010   1.85666
    A3        1.95055  -0.00000  -0.00011   0.00002  -0.00009   1.95046
    A4        1.91856   0.00002   0.00007   0.00006   0.00013   1.91869
    A5        1.91247   0.00001   0.00008   0.00002   0.00010   1.91257
    A6        1.87531  -0.00000   0.00007   0.00002   0.00009   1.87540
    A7        1.91365   0.00001   0.00008  -0.00008  -0.00000   1.91365
    A8        1.94799  -0.00002  -0.00006  -0.00007  -0.00013   1.94787
    A9        1.91853   0.00002   0.00008   0.00007   0.00015   1.91869
   A10        1.91251   0.00001   0.00006  -0.00000   0.00006   1.91258
   A11        1.85675  -0.00000  -0.00005  -0.00003  -0.00008   1.85667
   A12        1.95054  -0.00000  -0.00010   0.00001  -0.00009   1.95045
   A13        1.87531  -0.00000   0.00007   0.00002   0.00009   1.87540
   A14        1.91364   0.00001   0.00008  -0.00005   0.00002   1.91366
    D1       -1.28496   0.00000   0.00005   0.00005   0.00010  -1.28486
    D2        2.90548  -0.00000   0.00003   0.00005   0.00007   2.90556
    D3        0.86361   0.00000   0.00003   0.00004   0.00007   0.86369
    D4        3.14150   0.00000   0.00004   0.00005   0.00010  -3.14159
    D5        1.08558   0.00001   0.00009   0.00008   0.00017   1.08576
    D6       -0.97156  -0.00001  -0.00008   0.00002  -0.00006  -0.97163
    D7       -1.08574  -0.00000  -0.00001  -0.00001  -0.00002  -1.08576
    D8        3.14153  -0.00000   0.00004   0.00001   0.00006   3.14159
    D9        1.08438  -0.00001  -0.00013  -0.00005  -0.00018   1.08420
   D10        0.97140   0.00001   0.00016   0.00006   0.00022   0.97163
   D11       -1.08451   0.00001   0.00021   0.00009   0.00030  -1.08421
   D12        3.14153   0.00000   0.00004   0.00002   0.00006   3.14159
   D13        1.28485  -0.00000  -0.00005  -0.00004  -0.00009   1.28476
   D14       -2.90564   0.00000  -0.00002  -0.00001  -0.00003  -2.90566
   D15       -0.86378  -0.00000  -0.00002   0.00000  -0.00001  -0.86379
         Item               Value     Threshold  Converged?
 Maximum Force            0.000031     0.000450     YES
 RMS     Force            0.000013     0.000300     YES
 Maximum Displacement     0.000189     0.001800     YES
 RMS     Displacement     0.000072     0.001200     YES
 Predicted change in Energy=-1.734312D-08
 Optimization completed.
    -- Stationary point found.
                           ----------------------------
                           !   Optimized Parameters   !
                           ! (Angstroms and Degrees)  !
 --------------------------                            --------------------------
 ! Name  Definition              Value          Derivative Info.                !
 --------------------------------------------------------------------------------
 ! R1    R(1,2)                  1.4019         -DE/DX =    0.0                 !
 ! R2    R(1,3)                  1.5222         -DE/DX =    0.0                 !
 ! R3    R(1,5)                  1.0839         -DE/DX =    0.0                 !
 ! R4    R(1,6)                  1.0868         -DE/DX =    0.0                 !
 ! R5    R(2,7)                  0.947          -DE/DX =    0.0                 !
 ! R6    R(3,4)                  1.4019         -DE/DX =    0.0                 !
 ! R7    R(3,8)                  1.0839         -DE/DX =    0.0                 !
 ! R8    R(3,9)                  1.0868         -DE/DX =    0.0                 !
 ! R9    R(4,10)                 0.947          -DE/DX =    0.0                 !
 ! A1    A(2,1,3)              111.6116         -DE/DX =    0.0                 !
 ! A2    A(2,1,5)              106.3845         -DE/DX =    0.0                 !
 ! A3    A(2,1,6)              111.7582         -DE/DX =    0.0                 !
 ! A4    A(3,1,5)              109.9256         -DE/DX =    0.0                 !
 ! A5    A(3,1,6)              109.5764         -DE/DX =    0.0                 !
 ! A6    A(5,1,6)              107.4473         -DE/DX =    0.0                 !
 ! A7    A(1,2,7)              109.6443         -DE/DX =    0.0                 !
 ! A8    A(1,3,4)              111.6118         -DE/DX =    0.0                 !
 ! A9    A(1,3,8)              109.9238         -DE/DX =    0.0                 !
 ! A10   A(1,3,9)              109.579          -DE/DX =    0.0                 !
 ! A11   A(4,3,8)              106.384          -DE/DX =    0.0                 !
 ! A12   A(4,3,9)              111.7578         -DE/DX =    0.0                 !
 ! A13   A(8,3,9)              107.4471         -DE/DX =    0.0                 !
 ! A14   A(3,4,10)             109.6433         -DE/DX =    0.0                 !
 ! D1    D(3,1,2,7)            -73.6229         -DE/DX =    0.0                 !
 ! D2    D(5,1,2,7)            166.4719         -DE/DX =    0.0                 !
 ! D3    D(6,1,2,7)             49.4813         -DE/DX =    0.0                 !
 ! D4    D(2,1,3,4)           -180.0053         -DE/DX =    0.0                 !
 ! D5    D(2,1,3,8)             62.1994         -DE/DX =    0.0                 !
 ! D6    D(2,1,3,9)            -55.6664         -DE/DX =    0.0                 !
 ! D7    D(5,1,3,4)            -62.2083         -DE/DX =    0.0                 !
 ! D8    D(5,1,3,8)            179.9964         -DE/DX =    0.0                 !
 ! D9    D(5,1,3,9)             62.1306         -DE/DX =    0.0                 !
 ! D10   D(6,1,3,4)             55.6573         -DE/DX =    0.0                 !
 ! D11   D(6,1,3,8)            -62.1379         -DE/DX =    0.0                 !
 ! D12   D(6,1,3,9)            179.9962         -DE/DX =    0.0                 !
 ! D13   D(1,3,4,10)            73.6167         -DE/DX =    0.0                 !
 ! D14   D(8,3,4,10)          -166.4807         -DE/DX =    0.0                 !
 ! D15   D(9,3,4,10)           -49.4908         -DE/DX =    0.0                 !
 --------------------------------------------------------------------------------
 GradGradGradGradGradGradGradGradGradGradGradGradGradGradGradGradGradGrad

                          Input orientation:                          
 ---------------------------------------------------------------------
 Center     Atomic      Atomic             Coordinates (Angstroms)
 Number     Number       Type             X           Y           Z
 ---------------------------------------------------------------------
      1          6           0        2.240834    2.308403    2.125240
      2          8           0        1.180611    2.731040    2.939197
      3          6           0        1.881300    1.052874    1.343244
      4          8           0        2.941479    0.630302    0.529195
      5          1           0        3.073261    2.104587    2.788782
      6          1           0        2.556069    3.088282    1.437038
      7          1           0        0.502367    3.117780    2.403250
      8          1           0        1.048831    1.256705    0.679759
      9          1           0        1.566122    0.272943    2.031413
     10          1           0        3.619816    0.243672    1.065103
 ---------------------------------------------------------------------
                    Distance matrix (angstroms):
                    1          2          3          4          5
     1  C    0.000000
     2  O    1.401864   0.000000
     3  C    1.522215   2.419561   0.000000
     4  O    2.419562   3.649913   1.401863   0.000000
     5  H    1.083865   1.999298   2.148594   2.701224   0.000000
     6  H    1.086833   2.067847   2.146392   2.648468   1.749959
     7  H    1.937692   0.947006   2.699798   3.955868   2.790106
     8  H    2.148570   2.701128   1.083865   1.999291   3.043879
     9  H    2.146425   2.648572   1.086833   2.067842   2.489980
    10  H    2.699739   3.955875   1.937681   0.947006   2.594763
                    6          7          8          9         10
     6  H    0.000000
     7  H    2.269831   0.000000
     8  H    2.489962   2.594734   0.000000
     9  H    3.042928   3.059892   1.749956   0.000000
    10  H    3.059689   4.446304   2.790105   2.269861   0.000000
 Stoichiometry    C2H6O2
 Framework group  C1[X(C2H6O2)]
 Deg. of freedom    24
 Full point group                 C1      NOp   1
 Largest Abelian subgroup         C1      NOp   1
 Largest concise Abelian subgroup C1      NOp   1
                         Standard orientation:                         
 ---------------------------------------------------------------------
 Center     Atomic      Atomic             Coordinates (Angstroms)
 Number     Number       Type             X           Y           Z
 ---------------------------------------------------------------------
      1          6           0       -0.568412   -0.502836    0.057836
      2          8           0       -1.818055    0.108269   -0.115841
      3          6           0        0.568414    0.502831   -0.057901
      4          8           0        1.818052   -0.108250    0.115895
      5          1           0       -0.482022   -1.249475   -0.723081
      6          1           0       -0.501744   -1.019638    1.011607
      7          1           0       -2.033478    0.616724    0.653501
      8          1           0        0.481960    1.249489    0.722989
      9          1           0        0.501825    1.019611   -1.011689
     10          1           0        2.033469   -0.616831   -0.653366
 ---------------------------------------------------------------------
 Rotational constants (GHZ):     29.9657397      3.9715012      3.7334544

 **********************************************************************

            Population analysis using the SCF density.

 **********************************************************************

 Orbital symmetries:
       Occupied  (A) (A) (A) (A) (A) (A) (A) (A) (A) (A) (A) (A)
                 (A) (A) (A) (A) (A)
       Virtual   (A) (A) (A) (A) (A) (A) (A) (A) (A) (A) (A) (A)
                 (A) (A) (A) (A) (A) (A) (A) (A) (A) (A) (A) (A)
                 (A) (A) (A) (A) (A) (A) (A) (A) (A) (A) (A) (A)
                 (A) (A) (A) (A) (A) (A) (A) (A) (A) (A) (A) (A)
                 (A) (A) (A) (A) (A) (A) (A)
 The electronic state is 1-A.
 Alpha  occ. eigenvalues --  -20.56396 -20.56396 -11.27340 -11.27277  -1.37723
 Alpha  occ. eigenvalues --   -1.36413  -0.99746  -0.85788  -0.71627  -0.69327
 Alpha  occ. eigenvalues --   -0.64350  -0.60969  -0.56815  -0.54058  -0.48566
 Alpha  occ. eigenvalues --   -0.47672  -0.42251
 Alpha virt. eigenvalues --    0.21505   0.22038   0.28805   0.30393   0.30501
 Alpha virt. eigenvalues --    0.35063   0.39743   0.43725   0.46036   0.73104
 Alpha virt. eigenvalues --    0.77077   0.81812   0.82583   0.90116   0.93451
 Alpha virt. eigenvalues --    1.05241   1.06713   1.12765   1.14245   1.16842
 Alpha virt. eigenvalues --    1.17014   1.18452   1.21299   1.25765   1.32448
 Alpha virt. eigenvalues --    1.34174   1.38513   1.54837   1.55416   1.67799
 Alpha virt. eigenvalues --    1.77185   1.83959   1.87572   1.91580   2.02286
 Alpha virt. eigenvalues --    2.08046   2.11596   2.26019   2.37883   2.38636
 Alpha virt. eigenvalues --    2.42228   2.54182   2.56529   2.66595   2.74032
 Alpha virt. eigenvalues --    2.78503   2.84898   2.94753   3.00944   3.23373
 Alpha virt. eigenvalues --    3.23889   4.09582   4.25886   4.62368   4.84844
          Condensed to atoms (all electrons):
               1          2          3          4          5          6
     1  C    4.848045   0.194407   0.353496  -0.045006   0.398578   0.395987
     2  O    0.194407   8.384308  -0.045007   0.001798  -0.035275  -0.032749
     3  C    0.353496  -0.045007   4.848045   0.194407  -0.047445  -0.052539
     4  O   -0.045006   0.001798   0.194407   8.384307   0.003118   0.005810
     5  H    0.398578  -0.035275  -0.047445   0.003118   0.549555  -0.035938
     6  H    0.395987  -0.032749  -0.052539   0.005810  -0.035938   0.568114
     7  H   -0.025878   0.262359  -0.003082  -0.000017   0.005881  -0.005804
     8  H   -0.047446   0.003119   0.398579  -0.035276   0.004781  -0.005031
     9  H   -0.052533   0.005809   0.395986  -0.032751  -0.005031   0.005557
    10  H   -0.003083  -0.000017  -0.025879   0.262359   0.002806  -0.000391
               7          8          9         10
     1  C   -0.025878  -0.047446  -0.052533  -0.003083
     2  O    0.262359   0.003119   0.005809  -0.000017
     3  C   -0.003082   0.398579   0.395986  -0.025879
     4  O   -0.000017  -0.035276  -0.032751   0.262359
     5  H    0.005881   0.004781  -0.005031   0.002806
     6  H   -0.005804  -0.005031   0.005557  -0.000391
     7  H    0.324752   0.002806  -0.000391   0.000012
     8  H    0.002806   0.549555  -0.035938   0.005881
     9  H   -0.000391  -0.035938   0.568112  -0.005803
    10  H    0.000012   0.005881  -0.005803   0.324757
 Mulliken charges:
               1
     1  C   -0.016567
     2  O   -0.738752
     3  C   -0.016560
     4  O   -0.738750
     5  H    0.158970
     6  H    0.156985
     7  H    0.439362
     8  H    0.158969
     9  H    0.156984
    10  H    0.439359
 Sum of Mulliken charges =   0.00000
 Mulliken charges with hydrogens summed into heavy atoms:
               1
     1  C    0.299387
     2  O   -0.299390
     3  C    0.299393
     4  O   -0.299391
 Electronic spatial extent (au):  <R**2>=            340.0433
 Charge=              0.0000 electrons
 Dipole moment (field-independent basis, Debye):
    X=             -0.0000    Y=             -0.0002    Z=              0.0000  Tot=              0.0002
 Quadrupole moment (field-independent basis, Debye-Ang):
   XX=            -29.9664   YY=            -23.2268   ZZ=            -22.8695
   XY=             -2.7713   XZ=             -6.7823   YZ=              2.2565
 Traceless Quadrupole moment (field-independent basis, Debye-Ang):
   XX=             -4.6122   YY=              2.1274   ZZ=              2.4848
   XY=             -2.7713   XZ=             -6.7823   YZ=              2.2565
 Octapole moment (field-independent basis, Debye-Ang**2):
  XXX=             -0.0002  YYY=             -0.0003  ZZZ=              0.0005  XYY=              0.0007
  XXY=             -0.0011  XXZ=              0.0007  XZZ=             -0.0009  YZZ=              0.0001
  YYZ=             -0.0000  XYZ=             -0.0001
 Hexadecapole moment (field-independent basis, Debye-Ang**3):
 XXXX=           -304.1815 YYYY=            -62.8923 ZZZZ=            -36.4699 XXXY=            -22.8390
 XXXZ=            -30.8948 YYYX=             -5.4428 YYYZ=              2.7733 ZZZX=             -5.2120
 ZZZY=              1.8998 XXYY=            -53.4412 XXZZ=            -48.4577 YYZZ=            -14.8963
 XXYZ=              8.8260 YYXZ=             -2.9711 ZZXY=             -2.8538
 N-N= 1.311105006069D+02 E-N=-8.017818944197D+02  KE= 2.285716981849D+02
 1\1\GINC-GTX1080DELTA\FOpt\RHF\6-31G(d)\C2H6O2\MVEROT\17-Apr-2022\0\\#
  hf/6-31G* opt\\Optimisation de geometrie\\0,1\C,2.2408344107,2.308403
 039,2.1252396335\O,1.1806108746,2.7310404511,2.9391967556\C,1.88129957
 46,1.0528735919,1.3432437321\O,2.9414786662,0.6303023025,0.5291953632\
 H,3.0732614389,2.1045872832,2.7887817633\H,2.5560691996,3.0882824294,1
 .4370375526\H,0.5023669187,3.1177802124,2.4032504829\H,1.0488313463,1.
 2567053066,0.6797587848\H,1.5661218231,0.2729429624,2.0314126084\H,3.6
 198157472,0.2436724213,1.0651033237\\Version=AM64L-G09RevD.01\State=1-
 A\HF=-228.9217298\RMSD=8.972e-09\RMSF=3.058e-05\Dipole=0.0000771,0.000
 0548,0.0000093\Quadrupole=3.5213679,1.5019027,-5.0232706,-2.0923608,2.
 7681632,-3.0557445\PG=C01 [X(C2H6O2)]\\@


 HOW IS IT THAT THE SKY FEEDS THE STARS?

                           -- LUCRETIUS
 Job cpu time:       0 days  0 hours  0 minutes 10.0 seconds.
 File lengths (MBytes):  RWF=    132 Int=      0 D2E=      0 Chk=      3 Scr=      2
 Normal termination of Gaussian 09 at Sun Apr 17 23:37:32 2022.
