 Entering Gaussian System, Link 0=g09
 Input=/scratch/mverot/anthracene-1-4-opt-zindo/anthracene-1-4-opt-zindo.com
 Output=/scratch/mverot/anthracene-1-4-opt-zindo/anthracene-1-4-opt-zindo.log
 Initial command:
 /opt/g09/l1.exe "/scratch/mverot/anthracene-1-4-opt-zindo/Gau-2824091.inp" -scrdir="/scratch/mverot/anthracene-1-4-opt-zindo/"
 Entering Link 1 = /opt/g09/l1.exe PID=   2824093.
  
 Copyright (c) 1988,1990,1992,1993,1995,1998,2003,2009,2013,
            Gaussian, Inc.  All Rights Reserved.
  
 This is part of the Gaussian(R) 09 program.  It is based on
 the Gaussian(R) 03 system (copyright 2003, Gaussian, Inc.),
 the Gaussian(R) 98 system (copyright 1998, Gaussian, Inc.),
 the Gaussian(R) 94 system (copyright 1995, Gaussian, Inc.),
 the Gaussian 92(TM) system (copyright 1992, Gaussian, Inc.),
 the Gaussian 90(TM) system (copyright 1990, Gaussian, Inc.),
 the Gaussian 88(TM) system (copyright 1988, Gaussian, Inc.),
 the Gaussian 86(TM) system (copyright 1986, Carnegie Mellon
 University), and the Gaussian 82(TM) system (copyright 1983,
 Carnegie Mellon University). Gaussian is a federally registered
 trademark of Gaussian, Inc.
  
 This software contains proprietary and confidential information,
 including trade secrets, belonging to Gaussian, Inc.
  
 This software is provided under written license and may be
 used, copied, transmitted, or stored only in accord with that
 written license.
  
 The following legend is applicable only to US Government
 contracts under FAR:
  
                    RESTRICTED RIGHTS LEGEND
  
 Use, reproduction and disclosure by the US Government is
 subject to restrictions as set forth in subparagraphs (a)
 and (c) of the Commercial Computer Software - Restricted
 Rights clause in FAR 52.227-19.
  
 Gaussian, Inc.
 340 Quinnipiac St., Bldg. 40, Wallingford CT 06492
  
  
 ---------------------------------------------------------------
 Warning -- This program may not be used in any manner that
 competes with the business of Gaussian, Inc. or will provide
 assistance to any competitor of Gaussian, Inc.  The licensee
 of this program is prohibited from giving any competitor of
 Gaussian, Inc. access to this program.  By using this program,
 the user acknowledges that Gaussian, Inc. is engaged in the
 business of creating and licensing software in the field of
 computational chemistry and represents and warrants to the
 licensee that it is not a competitor of Gaussian, Inc. and that
 it will not use this program in any manner prohibited above.
 ---------------------------------------------------------------
  

 Cite this work as:
 Gaussian 09, Revision D.01,
 M. J. Frisch, G. W. Trucks, H. B. Schlegel, G. E. Scuseria, 
 M. A. Robb, J. R. Cheeseman, G. Scalmani, V. Barone, B. Mennucci, 
 G. A. Petersson, H. Nakatsuji, M. Caricato, X. Li, H. P. Hratchian, 
 A. F. Izmaylov, J. Bloino, G. Zheng, J. L. Sonnenberg, M. Hada, 
 M. Ehara, K. Toyota, R. Fukuda, J. Hasegawa, M. Ishida, T. Nakajima, 
 Y. Honda, O. Kitao, H. Nakai, T. Vreven, J. A. Montgomery, Jr., 
 J. E. Peralta, F. Ogliaro, M. Bearpark, J. J. Heyd, E. Brothers, 
 K. N. Kudin, V. N. Staroverov, T. Keith, R. Kobayashi, J. Normand, 
 K. Raghavachari, A. Rendell, J. C. Burant, S. S. Iyengar, J. Tomasi, 
 M. Cossi, N. Rega, J. M. Millam, M. Klene, J. E. Knox, J. B. Cross, 
 V. Bakken, C. Adamo, J. Jaramillo, R. Gomperts, R. E. Stratmann, 
 O. Yazyev, A. J. Austin, R. Cammi, C. Pomelli, J. W. Ochterski, 
 R. L. Martin, K. Morokuma, V. G. Zakrzewski, G. A. Voth, 
 P. Salvador, J. J. Dannenberg, S. Dapprich, A. D. Daniels, 
 O. Farkas, J. B. Foresman, J. V. Ortiz, J. Cioslowski, 
 and D. J. Fox, Gaussian, Inc., Wallingford CT, 2013.
 
 ******************************************
 Gaussian 09:  AM64L-G09RevD.01 24-Apr-2013
                12-Apr-2022 
 ******************************************
 %chk=anthracene-1-4-opt-zindo
 ------------------------------------
 #n ZINDO(NSTATE=10) pop=full gfinput
 ------------------------------------
 1/38=1/1;
 2/12=2,17=6,18=5,40=1/2;
 3/5=2,16=1,24=10,25=1,41=400000/1,2,8,3;
 4/5=3,35=1/1;
 5/5=2,35=1,38=5/2;
 8/6=1,108=10/1;
 9/41=10,42=1,49=10/14;
 6/7=3/1;
 99/5=1,9=1/99;
 ----------
 UV-spectra
 ----------
 Symbolic Z-matrix:
 Charge =  0 Multiplicity = 1
 C                     0.02738   1.49466   0.35671 
 C                     1.27116   0.72096   0.14703 
 C                    -1.23507   0.74615   0.16542 
 O                     0.05173   2.69051   0.667 
 C                     0.00119  -1.41054   0.48562 
 C                    -1.24773  -0.65931   0.22763 
 O                     0.00411  -2.57457   0.90032 
 C                     1.25858  -0.68093   0.20962 
 C                     2.47108   1.39485  -0.10139 
 C                    -2.46217  -1.34552   0.04227 
 C                     2.44612  -1.39564   0.02358 
 C                    -2.43718   1.43501  -0.08057 
 C                     3.64988   0.67494  -0.29938 
 C                     3.63745  -0.71745  -0.2369 
 C                    -3.64714   0.73747  -0.25632 
 C                    -3.65956  -0.64461  -0.1953 
 H                     2.47226   2.49669  -0.13294 
 H                     2.42759  -2.49572   0.09062 
 H                     4.58992   1.21055  -0.50051 
 H                     4.56769  -1.28557  -0.38826 
 H                    -4.6003   -1.19887  -0.33123 
 H                    -4.5779    1.29438  -0.44125 
 O                    -2.37433   2.80406  -0.16106 
 H                    -3.27598   3.13837  -0.28338 
 O                    -2.42389  -2.71725   0.08255 
 H                    -3.33163  -3.04482  -0.00918 
 
                          Input orientation:                          
 ---------------------------------------------------------------------
 Center     Atomic      Atomic             Coordinates (Angstroms)
 Number     Number       Type             X           Y           Z
 ---------------------------------------------------------------------
      1          6           0        0.027375    1.494659    0.356709
      2          6           0        1.271157    0.720958    0.147031
      3          6           0       -1.235066    0.746147    0.165416
      4          8           0        0.051727    2.690515    0.666999
      5          6           0        0.001186   -1.410539    0.485622
      6          6           0       -1.247732   -0.659312    0.227628
      7          8           0        0.004109   -2.574572    0.900315
      8          6           0        1.258581   -0.680930    0.209625
      9          6           0        2.471078    1.394855   -0.101392
     10          6           0       -2.462167   -1.345521    0.042265
     11          6           0        2.446120   -1.395637    0.023580
     12          6           0       -2.437181    1.435012   -0.080566
     13          6           0        3.649876    0.674938   -0.299383
     14          6           0        3.637448   -0.717450   -0.236903
     15          6           0       -3.647140    0.737469   -0.256316
     16          6           0       -3.659560   -0.644605   -0.195296
     17          1           0        2.472255    2.496685   -0.132937
     18          1           0        2.427587   -2.495724    0.090621
     19          1           0        4.589921    1.210550   -0.500515
     20          1           0        4.567688   -1.285571   -0.388257
     21          1           0       -4.600296   -1.198868   -0.331234
     22          1           0       -4.577904    1.294385   -0.441247
     23          8           0       -2.374326    2.804058   -0.161064
     24          1           0       -3.275982    3.138373   -0.283379
     25          8           0       -2.423888   -2.717254    0.082548
     26          1           0       -3.331626   -3.044821   -0.009179
 ---------------------------------------------------------------------
                    Distance matrix (angstroms):
                    1          2          3          4          5
     1  C    0.000000
     2  C    1.479721   0.000000
     3  C    1.480075   2.506418   0.000000
     4  O    1.235695   2.374138   2.384950   0.000000
     5  C    2.908175   2.504146   2.506421   4.105373   0.000000
     6  C    2.506423   2.873403   1.406893   3.619804   1.480101
     7  O    4.105447   3.610175   3.619780   5.270468   1.235699
     8  C    2.504134   1.403340   2.873461   3.610031   1.479711
     9  C    2.488272   1.398449   3.771937   2.849985   3.783541
    10  C    3.789897   4.268374   2.428171   4.795783   2.503777
    11  C    3.783532   2.423995   4.261278   4.779512   2.488253
    12  C    2.503758   3.783312   1.407168   2.886140   3.789903
    13  C    3.771593   2.420683   4.907522   4.235932   4.275323
    14  C    4.275328   2.795667   5.103467   5.028783   3.771579
    15  C    3.801473   4.934836   2.448679   4.283516   4.298220
    16  C    4.298216   5.127761   2.818240   5.063619   3.801496
    17  H    2.687238   2.161996   4.110673   2.556643   4.664246
    18  H    4.664223   3.418706   4.891866   5.733585   2.687205
    19  H    4.651062   3.416608   5.881294   4.914122   5.375785
    20  H    5.375788   3.896127   6.173037   6.108742   4.651045
    21  H    5.398491   6.195840   3.918485   6.145331   4.678216
    22  H    4.678188   5.906471   3.441390   4.960934   5.398496
    23  O    2.784023   4.209962   2.374763   2.565991   4.880993
    24  H    3.744820   5.167749   3.176397   3.489619   5.658957
    25  O    4.880991   5.047655   3.662692   5.976137   2.784055
    26  H    5.658944   5.949042   4.335607   6.693158   3.744776
                    6          7          8          9         10
     6  C    0.000000
     7  O    2.384918   0.000000
     8  C    2.506471   2.374159   0.000000
     9  C    4.261151   4.779717   2.423997   0.000000
    10  C    1.407157   2.886059   3.783338   5.645104   0.000000
    11  C    3.772049   2.849907   1.398452   2.793400   4.908578
    12  C    2.428161   4.795705   4.268498   4.908467   2.783356
    13  C    5.103385   5.028937   2.795668   1.395366   6.446398
    14  C    4.907561   4.235955   2.420688   2.416736   6.138217
    15  C    2.818219   5.063500   5.127870   6.155383   2.414986
    16  C    2.448672   4.283411   4.934916   6.461652   1.407647
    17  H    4.891690   5.733847   3.418712   1.102283   6.256338
    18  H    4.110858   2.556378   2.161994   3.895557   5.023445
    19  H    6.172907   6.108940   3.896130   2.163970   7.520642
    20  H    5.881380   4.914081   3.416613   3.415077   7.043280
    21  H    3.441385   4.960829   5.906541   7.535553   2.175456
    22  H    3.918465   6.145198   6.195970   7.057885   3.417489
    23  O    3.662681   5.976047   5.047827   5.046519   4.155486
    24  H    4.335590   6.693122   5.949150   6.008467   4.568769
    25  O    2.374766   2.565984   4.209910   6.395621   1.372859
    26  H    3.176372   3.489333   5.167771   7.306887   1.909510
                   11         12         13         14         15
    11  C    0.000000
    12  C    5.645356   0.000000
    13  C    2.416736   6.138229   0.000000
    14  C    1.395367   6.446600   1.393845   0.000000
    15  C    6.461911   1.407641   7.297411   7.428484   0.000000
    16  C    6.155590   2.414991   7.428317   7.297490   1.383477
    17  H    3.895555   5.023192   2.175605   3.420402   6.368442
    18  H    1.102284   6.256673   3.420408   2.175613   6.890298
    19  H    3.415080   7.043217   1.100463   2.166537   8.254248
    20  H    2.163972   7.520933   2.166535   1.100462   8.461294
    21  H    7.058087   3.417488   8.460350   8.252339   2.159519
    22  H    7.535860   2.175445   8.252285   8.460570   1.100307
    23  O    6.395954   1.372851   6.390876   6.967654   2.428975
    24  H    7.307115   1.909492   7.350937   7.916126   2.429575
    25  O    5.046497   4.155490   6.967313   6.390701   3.680528
    26  H    6.008596   4.568811   7.915946   7.350952   3.803465
                   16         17         18         19         20
    16  C    0.000000
    17  H    6.889903   0.000000
    18  H    6.368811   4.997612   0.000000
    19  H    8.461011   2.504749   4.331466   0.000000
    20  H    8.254434   4.331454   2.504760   2.498743   0.000000
    21  H    1.100305   7.982319   7.158976   9.502319   9.168572
    22  H    2.159521   7.158584   7.982776   9.168400   9.502675
    23  O    3.680528   4.856400   7.156075   7.152289   8.060288
    24  H    3.803396   5.785899   8.025810   8.101610   9.005856
    25  O    2.428982   7.155684   4.856537   8.059847   7.152168
    26  H    2.429654   8.025500   5.786191   9.005582   8.101717
                   21         22         23         24         25
    21  H    0.000000
    22  H    2.495780   0.000000
    23  O    4.583375   2.685772   0.000000
    24  H    4.535170   2.262789   0.969387   0.000000
    25  O    2.685789   4.583382   5.526906   5.928604   0.000000
    26  H    2.262916   4.535262   5.928650   6.189522   0.969382
                   26
    26  H    0.000000
 Stoichiometry    C14H8O4
 Framework group  C1[X(C14H8O4)]
 Deg. of freedom    72
 Full point group                 C1      NOp   1
 Largest Abelian subgroup         C1      NOp   1
 Largest concise Abelian subgroup C1      NOp   1
                         Standard orientation:                         
 ---------------------------------------------------------------------
 Center     Atomic      Atomic             Coordinates (Angstroms)
 Number     Number       Type             X           Y           Z
 ---------------------------------------------------------------------
      1          6           0       -0.332157   -1.454119    0.316027
      2          6           0       -1.581553   -0.701721    0.066066
      3          6           0        0.924660   -0.703436    0.098064
      4          8           0       -0.347654   -2.635240    0.678873
      5          6           0       -0.332234    1.454055    0.316220
      6          6           0        0.924620    0.703457    0.098004
      7          8           0       -0.347637    2.635229    0.678911
      8          6           0       -1.581653    0.701619    0.066546
      9          6           0       -2.774139   -1.396764   -0.158243
     10          6           0        2.133949    1.391728   -0.111514
     11          6           0       -2.774417    1.396636   -0.156911
     12          6           0        2.134100   -1.391628   -0.111149
     13          6           0       -3.958144   -0.696992   -0.393821
     14          6           0       -3.958308    0.696853   -0.393035
     15          6           0        3.338801   -0.691648   -0.311589
     16          6           0        3.338728    0.691828   -0.311804
     17          1           0       -2.765448   -2.498876   -0.140943
     18          1           0       -2.765929    2.498735   -0.138587
     19          1           0       -4.892341   -1.249449   -0.575715
     20          1           0       -4.892684    1.249293   -0.574056
     21          1           0        4.275268    1.248005   -0.467468
     22          1           0        4.275414   -1.247775   -0.467012
     23          8           0        2.083731   -2.763408   -0.131221
     24          1           0        2.988941   -3.094652   -0.234099
     25          8           0        2.083382    2.763499   -0.132241
     26          1           0        2.988682    3.094870   -0.233858
 ---------------------------------------------------------------------
 Rotational constants (GHZ):      0.7002631      0.3863085      0.2555603
 Standard basis: VSTO-6G (5D, 7F)
 AO basis set in the form of general basis input (Overlap normalization):
      1 0
 S   6 1.00       0.000000000000
      0.7310560386D+02 -0.4151277819D-02
      0.1340682447D+02 -0.2067024148D-01
      0.3767606913D+01 -0.5150303337D-01
      0.5387761534D+00  0.3346271174D+00
      0.2445297546D+00  0.5621061301D+00
      0.1166148582D+00  0.1712994697D+00
 P   6 1.00       0.000000000000
      0.1549594249D+02  0.7924233646D-02
      0.4041026682D+01  0.5144104825D-01
      0.1445917850D+01  0.1898400060D+00
      0.6044212998D+00  0.4049863191D+00
      0.2763825918D+00  0.4012362861D+00
      0.1306639377D+00  0.1051855189D+00
 ****
      2 0
 S   6 1.00       0.000000000000
      0.7310560386D+02 -0.4151277819D-02
      0.1340682447D+02 -0.2067024148D-01
      0.3767606913D+01 -0.5150303337D-01
      0.5387761534D+00  0.3346271174D+00
      0.2445297546D+00  0.5621061301D+00
      0.1166148582D+00  0.1712994697D+00
 P   6 1.00       0.000000000000
      0.1549594249D+02  0.7924233646D-02
      0.4041026682D+01  0.5144104825D-01
      0.1445917850D+01  0.1898400060D+00
      0.6044212998D+00  0.4049863191D+00
      0.2763825918D+00  0.4012362861D+00
      0.1306639377D+00  0.1051855189D+00
 ****
      3 0
 S   6 1.00       0.000000000000
      0.7310560386D+02 -0.4151277819D-02
      0.1340682447D+02 -0.2067024148D-01
      0.3767606913D+01 -0.5150303337D-01
      0.5387761534D+00  0.3346271174D+00
      0.2445297546D+00  0.5621061301D+00
      0.1166148582D+00  0.1712994697D+00
 P   6 1.00       0.000000000000
      0.1549594249D+02  0.7924233646D-02
      0.4041026682D+01  0.5144104825D-01
      0.1445917850D+01  0.1898400060D+00
      0.6044212998D+00  0.4049863191D+00
      0.2763825918D+00  0.4012362861D+00
      0.1306639377D+00  0.1051855189D+00
 ****
      4 0
 S   6 1.00       0.000000000000
      0.1432869836D+03 -0.4151277819D-02
      0.2627737596D+02 -0.2067024148D-01
      0.7384509550D+01 -0.5150303337D-01
      0.1056001261D+01  0.3346271174D+00
      0.4792783190D+00  0.5621061301D+00
      0.2285651220D+00  0.1712994697D+00
 P   6 1.00       0.000000000000
      0.3037204728D+02  0.7924233646D-02
      0.7920412296D+01  0.5144104825D-01
      0.2833998986D+01  0.1898400060D+00
      0.1184665748D+01  0.4049863191D+00
      0.5417098800D+00  0.4012362861D+00
      0.2561013179D+00  0.1051855189D+00
 ****
      5 0
 S   6 1.00       0.000000000000
      0.7310560386D+02 -0.4151277819D-02
      0.1340682447D+02 -0.2067024148D-01
      0.3767606913D+01 -0.5150303337D-01
      0.5387761534D+00  0.3346271174D+00
      0.2445297546D+00  0.5621061301D+00
      0.1166148582D+00  0.1712994697D+00
 P   6 1.00       0.000000000000
      0.1549594249D+02  0.7924233646D-02
      0.4041026682D+01  0.5144104825D-01
      0.1445917850D+01  0.1898400060D+00
      0.6044212998D+00  0.4049863191D+00
      0.2763825918D+00  0.4012362861D+00
      0.1306639377D+00  0.1051855189D+00
 ****
      6 0
 S   6 1.00       0.000000000000
      0.7310560386D+02 -0.4151277819D-02
      0.1340682447D+02 -0.2067024148D-01
      0.3767606913D+01 -0.5150303337D-01
      0.5387761534D+00  0.3346271174D+00
      0.2445297546D+00  0.5621061301D+00
      0.1166148582D+00  0.1712994697D+00
 P   6 1.00       0.000000000000
      0.1549594249D+02  0.7924233646D-02
      0.4041026682D+01  0.5144104825D-01
      0.1445917850D+01  0.1898400060D+00
      0.6044212998D+00  0.4049863191D+00
      0.2763825918D+00  0.4012362861D+00
      0.1306639377D+00  0.1051855189D+00
 ****
      7 0
 S   6 1.00       0.000000000000
      0.1432869836D+03 -0.4151277819D-02
      0.2627737596D+02 -0.2067024148D-01
      0.7384509550D+01 -0.5150303337D-01
      0.1056001261D+01  0.3346271174D+00
      0.4792783190D+00  0.5621061301D+00
      0.2285651220D+00  0.1712994697D+00
 P   6 1.00       0.000000000000
      0.3037204728D+02  0.7924233646D-02
      0.7920412296D+01  0.5144104825D-01
      0.2833998986D+01  0.1898400060D+00
      0.1184665748D+01  0.4049863191D+00
      0.5417098800D+00  0.4012362861D+00
      0.2561013179D+00  0.1051855189D+00
 ****
      8 0
 S   6 1.00       0.000000000000
      0.7310560386D+02 -0.4151277819D-02
      0.1340682447D+02 -0.2067024148D-01
      0.3767606913D+01 -0.5150303337D-01
      0.5387761534D+00  0.3346271174D+00
      0.2445297546D+00  0.5621061301D+00
      0.1166148582D+00  0.1712994697D+00
 P   6 1.00       0.000000000000
      0.1549594249D+02  0.7924233646D-02
      0.4041026682D+01  0.5144104825D-01
      0.1445917850D+01  0.1898400060D+00
      0.6044212998D+00  0.4049863191D+00
      0.2763825918D+00  0.4012362861D+00
      0.1306639377D+00  0.1051855189D+00
 ****
      9 0
 S   6 1.00       0.000000000000
      0.7310560386D+02 -0.4151277819D-02
      0.1340682447D+02 -0.2067024148D-01
      0.3767606913D+01 -0.5150303337D-01
      0.5387761534D+00  0.3346271174D+00
      0.2445297546D+00  0.5621061301D+00
      0.1166148582D+00  0.1712994697D+00
 P   6 1.00       0.000000000000
      0.1549594249D+02  0.7924233646D-02
      0.4041026682D+01  0.5144104825D-01
      0.1445917850D+01  0.1898400060D+00
      0.6044212998D+00  0.4049863191D+00
      0.2763825918D+00  0.4012362861D+00
      0.1306639377D+00  0.1051855189D+00
 ****
     10 0
 S   6 1.00       0.000000000000
      0.7310560386D+02 -0.4151277819D-02
      0.1340682447D+02 -0.2067024148D-01
      0.3767606913D+01 -0.5150303337D-01
      0.5387761534D+00  0.3346271174D+00
      0.2445297546D+00  0.5621061301D+00
      0.1166148582D+00  0.1712994697D+00
 P   6 1.00       0.000000000000
      0.1549594249D+02  0.7924233646D-02
      0.4041026682D+01  0.5144104825D-01
      0.1445917850D+01  0.1898400060D+00
      0.6044212998D+00  0.4049863191D+00
      0.2763825918D+00  0.4012362861D+00
      0.1306639377D+00  0.1051855189D+00
 ****
     11 0
 S   6 1.00       0.000000000000
      0.7310560386D+02 -0.4151277819D-02
      0.1340682447D+02 -0.2067024148D-01
      0.3767606913D+01 -0.5150303337D-01
      0.5387761534D+00  0.3346271174D+00
      0.2445297546D+00  0.5621061301D+00
      0.1166148582D+00  0.1712994697D+00
 P   6 1.00       0.000000000000
      0.1549594249D+02  0.7924233646D-02
      0.4041026682D+01  0.5144104825D-01
      0.1445917850D+01  0.1898400060D+00
      0.6044212998D+00  0.4049863191D+00
      0.2763825918D+00  0.4012362861D+00
      0.1306639377D+00  0.1051855189D+00
 ****
     12 0
 S   6 1.00       0.000000000000
      0.7310560386D+02 -0.4151277819D-02
      0.1340682447D+02 -0.2067024148D-01
      0.3767606913D+01 -0.5150303337D-01
      0.5387761534D+00  0.3346271174D+00
      0.2445297546D+00  0.5621061301D+00
      0.1166148582D+00  0.1712994697D+00
 P   6 1.00       0.000000000000
      0.1549594249D+02  0.7924233646D-02
      0.4041026682D+01  0.5144104825D-01
      0.1445917850D+01  0.1898400060D+00
      0.6044212998D+00  0.4049863191D+00
      0.2763825918D+00  0.4012362861D+00
      0.1306639377D+00  0.1051855189D+00
 ****
     13 0
 S   6 1.00       0.000000000000
      0.7310560386D+02 -0.4151277819D-02
      0.1340682447D+02 -0.2067024148D-01
      0.3767606913D+01 -0.5150303337D-01
      0.5387761534D+00  0.3346271174D+00
      0.2445297546D+00  0.5621061301D+00
      0.1166148582D+00  0.1712994697D+00
 P   6 1.00       0.000000000000
      0.1549594249D+02  0.7924233646D-02
      0.4041026682D+01  0.5144104825D-01
      0.1445917850D+01  0.1898400060D+00
      0.6044212998D+00  0.4049863191D+00
      0.2763825918D+00  0.4012362861D+00
      0.1306639377D+00  0.1051855189D+00
 ****
     14 0
 S   6 1.00       0.000000000000
      0.7310560386D+02 -0.4151277819D-02
      0.1340682447D+02 -0.2067024148D-01
      0.3767606913D+01 -0.5150303337D-01
      0.5387761534D+00  0.3346271174D+00
      0.2445297546D+00  0.5621061301D+00
      0.1166148582D+00  0.1712994697D+00
 P   6 1.00       0.000000000000
      0.1549594249D+02  0.7924233646D-02
      0.4041026682D+01  0.5144104825D-01
      0.1445917850D+01  0.1898400060D+00
      0.6044212998D+00  0.4049863191D+00
      0.2763825918D+00  0.4012362861D+00
      0.1306639377D+00  0.1051855189D+00
 ****
     15 0
 S   6 1.00       0.000000000000
      0.7310560386D+02 -0.4151277819D-02
      0.1340682447D+02 -0.2067024148D-01
      0.3767606913D+01 -0.5150303337D-01
      0.5387761534D+00  0.3346271174D+00
      0.2445297546D+00  0.5621061301D+00
      0.1166148582D+00  0.1712994697D+00
 P   6 1.00       0.000000000000
      0.1549594249D+02  0.7924233646D-02
      0.4041026682D+01  0.5144104825D-01
      0.1445917850D+01  0.1898400060D+00
      0.6044212998D+00  0.4049863191D+00
      0.2763825918D+00  0.4012362861D+00
      0.1306639377D+00  0.1051855189D+00
 ****
     16 0
 S   6 1.00       0.000000000000
      0.7310560386D+02 -0.4151277819D-02
      0.1340682447D+02 -0.2067024148D-01
      0.3767606913D+01 -0.5150303337D-01
      0.5387761534D+00  0.3346271174D+00
      0.2445297546D+00  0.5621061301D+00
      0.1166148582D+00  0.1712994697D+00
 P   6 1.00       0.000000000000
      0.1549594249D+02  0.7924233646D-02
      0.4041026682D+01  0.5144104825D-01
      0.1445917850D+01  0.1898400060D+00
      0.6044212998D+00  0.4049863191D+00
      0.2763825918D+00  0.4012362861D+00
      0.1306639377D+00  0.1051855189D+00
 ****
     17 0
 S   6 1.00       0.000000000000
      0.3326836535D+02  0.9163596281D-02
      0.6099718369D+01  0.4936149294D-01
      0.1706481387D+01  0.1685383049D+00
      0.5862224134D+00  0.3705627997D+00
      0.2276473177D+00  0.4164915298D+00
      0.9375773694D-01  0.1303340841D+00
 ****
     18 0
 S   6 1.00       0.000000000000
      0.3326836535D+02  0.9163596281D-02
      0.6099718369D+01  0.4936149294D-01
      0.1706481387D+01  0.1685383049D+00
      0.5862224134D+00  0.3705627997D+00
      0.2276473177D+00  0.4164915298D+00
      0.9375773694D-01  0.1303340841D+00
 ****
     19 0
 S   6 1.00       0.000000000000
      0.3326836535D+02  0.9163596281D-02
      0.6099718369D+01  0.4936149294D-01
      0.1706481387D+01  0.1685383049D+00
      0.5862224134D+00  0.3705627997D+00
      0.2276473177D+00  0.4164915298D+00
      0.9375773694D-01  0.1303340841D+00
 ****
     20 0
 S   6 1.00       0.000000000000
      0.3326836535D+02  0.9163596281D-02
      0.6099718369D+01  0.4936149294D-01
      0.1706481387D+01  0.1685383049D+00
      0.5862224134D+00  0.3705627997D+00
      0.2276473177D+00  0.4164915298D+00
      0.9375773694D-01  0.1303340841D+00
 ****
     21 0
 S   6 1.00       0.000000000000
      0.3326836535D+02  0.9163596281D-02
      0.6099718369D+01  0.4936149294D-01
      0.1706481387D+01  0.1685383049D+00
      0.5862224134D+00  0.3705627997D+00
      0.2276473177D+00  0.4164915298D+00
      0.9375773694D-01  0.1303340841D+00
 ****
     22 0
 S   6 1.00       0.000000000000
      0.3326836535D+02  0.9163596281D-02
      0.6099718369D+01  0.4936149294D-01
      0.1706481387D+01  0.1685383049D+00
      0.5862224134D+00  0.3705627997D+00
      0.2276473177D+00  0.4164915298D+00
      0.9375773694D-01  0.1303340841D+00
 ****
     23 0
 S   6 1.00       0.000000000000
      0.1432869836D+03 -0.4151277819D-02
      0.2627737596D+02 -0.2067024148D-01
      0.7384509550D+01 -0.5150303337D-01
      0.1056001261D+01  0.3346271174D+00
      0.4792783190D+00  0.5621061301D+00
      0.2285651220D+00  0.1712994697D+00
 P   6 1.00       0.000000000000
      0.3037204728D+02  0.7924233646D-02
      0.7920412296D+01  0.5144104825D-01
      0.2833998986D+01  0.1898400060D+00
      0.1184665748D+01  0.4049863191D+00
      0.5417098800D+00  0.4012362861D+00
      0.2561013179D+00  0.1051855189D+00
 ****
     24 0
 S   6 1.00       0.000000000000
      0.3326836535D+02  0.9163596281D-02
      0.6099718369D+01  0.4936149294D-01
      0.1706481387D+01  0.1685383049D+00
      0.5862224134D+00  0.3705627997D+00
      0.2276473177D+00  0.4164915298D+00
      0.9375773694D-01  0.1303340841D+00
 ****
     25 0
 S   6 1.00       0.000000000000
      0.1432869836D+03 -0.4151277819D-02
      0.2627737596D+02 -0.2067024148D-01
      0.7384509550D+01 -0.5150303337D-01
      0.1056001261D+01  0.3346271174D+00
      0.4792783190D+00  0.5621061301D+00
      0.2285651220D+00  0.1712994697D+00
 P   6 1.00       0.000000000000
      0.3037204728D+02  0.7924233646D-02
      0.7920412296D+01  0.5144104825D-01
      0.2833998986D+01  0.1898400060D+00
      0.1184665748D+01  0.4049863191D+00
      0.5417098800D+00  0.4012362861D+00
      0.2561013179D+00  0.1051855189D+00
 ****
     26 0
 S   6 1.00       0.000000000000
      0.3326836535D+02  0.9163596281D-02
      0.6099718369D+01  0.4936149294D-01
      0.1706481387D+01  0.1685383049D+00
      0.5862224134D+00  0.3705627997D+00
      0.2276473177D+00  0.4164915298D+00
      0.9375773694D-01  0.1303340841D+00
 ****

 There are    80 symmetry adapted cartesian basis functions of A   symmetry.
 There are    80 symmetry adapted basis functions of A   symmetry.
    80 basis functions,   480 primitive gaussians,    80 cartesian basis functions
    44 alpha electrons       44 beta electrons
       nuclear repulsion energy       613.5559616196 Hartrees.
 Integral buffers will be    131072 words long.
 Regular integral format.
 Two-electron integral symmetry is turned off.
 Do NDO integrals.
 One-electron integrals computed using PRISM.
 Generate ZINDO/S integrals.
 NDO Nuclear repulsion=   474.086349581834 Hartrees.
 NBasis=    80 RedAO= F EigKep=  0.00D+00  NBF=    80
 NBsUse=    80 1.00D-04 EigRej=  0.00D+00 NBFU=    80
 DipDrv:  will hold  3 matrices at once.
 Simple Huckel Guess.
 Overlap will be assumed to be unity.
 Requested convergence on RMS density matrix=1.00D-08 within 128 cycles.
 Requested convergence on MAX density matrix=1.00D-06.
 Requested convergence on             energy=1.00D-06.
 No special actions if energy rises.
 SCF Done:  E(RZINDO/S) =  -132.235696551     A.U. after   16 cycles
            NFock= 16  Conv=0.28D-08     -V/T= 0.8843
 Range of M.O.s used for correlation:     1    80
 NBasis=    80 NAE=    44 NBE=    44 NFC=     0 NFV=     0
 NROrb=     80 NOA=    44 NOB=    44 NVA=    36 NVB=    36
 Orbital symmetries:
       Occupied  (A) (A) (A) (A) (A) (A) (A) (A) (A) (A) (A) (A)
                 (A) (A) (A) (A) (A) (A) (A) (A) (A) (A) (A) (A)
                 (A) (A) (A) (A) (A) (A) (A) (A) (A) (A) (A) (A)
                 (A) (A) (A) (A) (A) (A) (A) (A)
       Virtual   (A) (A) (A) (A) (A) (A) (A) (A) (A) (A) (A) (A)
                 (A) (A) (A) (A) (A) (A) (A) (A) (A) (A) (A) (A)
                 (A) (A) (A) (A) (A) (A) (A) (A) (A) (A) (A) (A)
    40 initial guesses have been made.
 Convergence on wavefunction:    0.001000000000000
 Iteration     1 Dimension    40 NMult     0 NNew     40
 CISAX will form    40 AO SS matrices at one time.
 New state      1 was old state      7
 New state      2 was old state      5
 New state      3 was old state      1
 New state      4 was old state      2
 New state      5 was old state      3
 New state      7 was old state      8
 New state      8 was old state     10
 New state      9 was old state      4
 New state     10 was old state     26
 Iteration     2 Dimension    80 NMult    40 NNew     40
 New state      8 was old state      9
 New state      9 was old state      8
 New state     10 was old state     12
 Iteration     3 Dimension    90 NMult    80 NNew     10
 New state      1 was old state      2
 New state      2 was old state      1
 Iteration     4 Dimension   100 NMult    90 NNew     10
 Iteration     5 Dimension   110 NMult   100 NNew     10
 Iteration     6 Dimension   114 NMult   110 NNew      4
 ***********************************************************************
 Excited states from <AA,BB:AA,BB> singles matrix:
 ***********************************************************************
 
 Ground to excited state transition densities written to RWF  633
 Ground to excited state transition electric dipole moments (Au):
       state          X           Y           Z        Dip. S.      Osc.
         1        -0.0826      0.0001     -0.0006      0.0068      0.0004
         2         0.0004     -0.0115     -0.0001      0.0001      0.0000
         3        -1.6923     -0.0002      0.2982      2.9527      0.2527
         4         0.0002     -0.3149     -0.0002      0.0992      0.0096
         5        -0.7502      0.0000     -0.2905      0.6472      0.0662
         6        -0.0007     -0.3241     -0.0004      0.1051      0.0115
         7         0.9888     -0.0001     -0.1489      0.9999      0.1193
         8         0.0009     -2.1226      0.0004      4.5055      0.5522
         9         2.1460      0.0009      0.3951      4.7616      0.5973
        10         0.0002     -1.4575     -0.0005      2.1244      0.2839
 Ground to excited state transition velocity dipole moments (Au):
       state          X           Y           Z        Dip. S.      Osc.
         1         0.0009     -0.0000     -0.0029      0.0000      0.0001
         2        -0.0000     -0.0001      0.0000      0.0000      0.0000
         3         0.1197      0.0000     -0.0142      0.0145      0.0755
         4        -0.0000      0.0133      0.0000      0.0002      0.0008
         5         0.0688     -0.0000      0.0194      0.0051      0.0222
         6         0.0001     -0.0002      0.0000      0.0000      0.0000
         7        -0.1178      0.0000      0.0080      0.0139      0.0519
         8        -0.0001      0.1468     -0.0000      0.0215      0.0781
         9        -0.2550     -0.0001     -0.0320      0.0660      0.2340
        10        -0.0001      0.1148      0.0001      0.0132      0.0438
 Ground to excited state transition magnetic dipole moments (Au):
       state          X           Y           Z
         1        -0.0002      0.9539      0.0005
         2        -0.0579     -0.0020      0.3319
         3        -0.0001      0.0478      0.0001
         4         0.0224      0.0002     -1.2532
         5         0.0000      0.0096     -0.0001
         6        -0.0808     -0.0001     -0.5645
         7        -0.0001     -0.0842      0.0001
         8        -0.0411     -0.0003      0.8955
         9        -0.0000     -0.1912     -0.0003
        10        -0.0181     -0.0004     -0.4942
 Ground to excited state transition velocity quadrupole moments (Au):
       state          XX          YY          ZZ          XY          XZ          YZ
         1        -0.0160     -0.0020      0.0014     -0.0000     -0.0364     -0.0002
         2        -0.0001      0.0003     -0.0000     -0.0214      0.0002     -0.0139
         3         0.1769     -0.0037     -0.0029     -0.0002     -0.0698     -0.0001
         4         0.0001     -0.0000     -0.0000     -0.0777     -0.0001     -0.0101
         5        -0.4605      0.0459     -0.0054      0.0001     -0.0559     -0.0001
         6        -0.0000      0.0003      0.0000     -0.5168     -0.0001      0.1335
         7         0.0048     -0.0544      0.0082      0.0001     -0.0061      0.0001
         8         0.0001      0.0000      0.0000      0.6862      0.0001      0.0485
         9         1.1589     -0.2046      0.0146     -0.0003      0.1675     -0.0000
        10        -0.0001      0.0001     -0.0000     -0.3109     -0.0002      0.0020
 <0|del|b> * <b|rxdel|0> + <0|del|b> * <b|delr+rdel|0>
 Rotatory Strengths (R) in cgs (10**-40 erg-esu-cm/Gauss)
       state          XX          YY          ZZ    R(velocity)    E-M Angle
         1        -0.1126     -0.0075     -0.0994     -0.0732       90.00
         2         0.0221      0.0294      0.0043      0.0186       90.00
         3         0.0100     -0.0872     -0.0093     -0.0288       90.00
         4        -0.0967     -0.0931      0.0024     -0.0625       90.00
         5        -0.0029     -0.0211      0.0255      0.0005       90.00
         6        -0.0690      0.0089     -0.0486     -0.0362       90.00
         7         0.0007      0.0210      0.0420      0.0212       90.00
         8        -0.1934     -0.0129     -0.0168     -0.0744       90.00
         9         0.1044      0.0185      0.0244      0.0491       90.00
        10        -0.1158     -0.0158     -0.1179     -0.0832       90.00
 1/2[<0|r|b>*<b|rxdel|0> + (<0|rxdel|b>*<b|r|0>)*]
 Rotatory Strengths (R) in cgs (10**-40 erg-esu-cm/Gauss)
       state          XX          YY          ZZ     R(length)
         1        -0.0116     -0.0493      0.0002     -0.0202
         2         0.0168     -0.0159      0.0224      0.0077
         3        -0.1556      0.0068     -0.0174     -0.0554
         4        -0.0037      0.0407     -0.1915     -0.0515
         5         0.0248     -0.0002     -0.0299     -0.0018
         6        -0.0418     -0.0196     -0.1430     -0.0681
         7         0.0971     -0.0069      0.0122      0.0341
         8         0.0267     -0.3927     -0.2394     -0.2018
         9         0.0657      0.1231      0.0815      0.0901
        10         0.0032     -0.4062     -0.1575     -0.1868
  1/2[<0|del|b>*<b|r|0> + (<0|r|b>*<b|del|0>)*] (Au)
       state          X           Y           Z        Dip. S.   Osc.(frdel)
         1        -0.0001     -0.0000      0.0000      0.0001      0.0000
         2        -0.0000      0.0000     -0.0000     -0.0000     -0.0000
         3        -0.2026     -0.0000     -0.0042      0.2068      0.1379
         4        -0.0000     -0.0042     -0.0000      0.0042      0.0028
         5        -0.0516     -0.0000     -0.0056      0.0573      0.0382
         6        -0.0000      0.0001     -0.0000     -0.0001     -0.0000
         7        -0.1164     -0.0000     -0.0012      0.1176      0.0784
         8        -0.0000     -0.3115     -0.0000      0.3115      0.2077
         9        -0.5472     -0.0000     -0.0126      0.5598      0.3732
        10        -0.0000     -0.1674     -0.0000      0.1674      0.1116

 Excitation energies and oscillator strengths:
 
 Excited State   1:      Singlet-A      2.6660 eV  465.06 nm  f=0.0004  <S**2>=0.000
      39 -> 46        -0.28790
      39 -> 49         0.23675
      40 -> 45         0.53978
      40 -> 50        -0.17131
      42 -> 45         0.12718
 This state for optimization and/or second-order correction.
 Total Energy, E(CIS) =  -132.137723757    
 Copying the excited state density for this state as the 1-particle RhoCI density.
 
 Excited State   2:      Singlet-A      2.6969 eV  459.73 nm  f=0.0000  <S**2>=0.000
      39 -> 45         0.54233
      39 -> 50        -0.18245
      40 -> 46        -0.29030
      40 -> 49         0.23304
 
 Excited State   3:      Singlet-A      3.4930 eV  354.95 nm  f=0.2527  <S**2>=0.000
      44 -> 45         0.65434
      44 -> 47         0.18155
 
 Excited State   4:      Singlet-A      3.9640 eV  312.77 nm  f=0.0096  <S**2>=0.000
      41 -> 45        -0.20712
      43 -> 45         0.62094
      44 -> 46        -0.16440
 
 Excited State   5:      Singlet-A      4.1724 eV  297.15 nm  f=0.0662  <S**2>=0.000
      40 -> 45        -0.11889
      42 -> 45         0.57039
      42 -> 47        -0.23105
      43 -> 46         0.17825
      43 -> 48         0.21494
 
 Excited State   6:      Singlet-A      4.4694 eV  277.41 nm  f=0.0115  <S**2>=0.000
      41 -> 45         0.34577
      42 -> 46        -0.11730
      43 -> 45         0.23789
      43 -> 47        -0.10353
      44 -> 46         0.45095
      44 -> 48        -0.26566
 
 Excited State   7:      Singlet-A      4.8705 eV  254.56 nm  f=0.1193  <S**2>=0.000
      41 -> 46        -0.27718
      41 -> 48         0.17553
      43 -> 46         0.21158
      44 -> 45        -0.22908
      44 -> 47         0.46722
      44 -> 50         0.24150
 
 Excited State   8:      Singlet-A      5.0022 eV  247.86 nm  f=0.5522  <S**2>=0.000
      41 -> 45         0.50790
      42 -> 46        -0.15177
      42 -> 48        -0.14761
      44 -> 46        -0.38788
      44 -> 48         0.13731
 
 Excited State   9:      Singlet-A      5.1200 eV  242.16 nm  f=0.5973  <S**2>=0.000
      40 -> 45         0.11131
      41 -> 48         0.10256
      42 -> 45        -0.32744
      42 -> 47        -0.14636
      42 -> 50         0.15689
      43 -> 46         0.45977
      43 -> 48         0.26788
      44 -> 47        -0.13235
 
 Excited State  10:      Singlet-A      5.4548 eV  227.29 nm  f=0.2839  <S**2>=0.000
      41 -> 45         0.22861
      42 -> 46         0.43792
      42 -> 48         0.30250
      43 -> 45         0.17129
      43 -> 47         0.27746
      43 -> 50        -0.10645
      44 -> 48         0.13444
 SavETr:  write IOETrn=   770 NScale= 10 NData=  16 NLR=1 NState=   10 LETran=     190.

 **********************************************************************

            Population analysis using the SCF density.

 **********************************************************************

 Orbital symmetries:
       Occupied  (A) (A) (A) (A) (A) (A) (A) (A) (A) (A) (A) (A)
                 (A) (A) (A) (A) (A) (A) (A) (A) (A) (A) (A) (A)
                 (A) (A) (A) (A) (A) (A) (A) (A) (A) (A) (A) (A)
                 (A) (A) (A) (A) (A) (A) (A) (A)
       Virtual   (A) (A) (A) (A) (A) (A) (A) (A) (A) (A) (A) (A)
                 (A) (A) (A) (A) (A) (A) (A) (A) (A) (A) (A) (A)
                 (A) (A) (A) (A) (A) (A) (A) (A) (A) (A) (A) (A)
 The electronic state is 1-A.
 Alpha  occ. eigenvalues --   -1.74386  -1.66113  -1.65680  -1.55204  -1.53808
 Alpha  occ. eigenvalues --   -1.50226  -1.35366  -1.22806  -1.21861  -1.08889
 Alpha  occ. eigenvalues --   -1.05543  -0.99938  -0.99297  -0.91394  -0.87478
 Alpha  occ. eigenvalues --   -0.85039  -0.79271  -0.72139  -0.69734  -0.67536
 Alpha  occ. eigenvalues --   -0.66467  -0.63660  -0.60782  -0.59452  -0.59433
 Alpha  occ. eigenvalues --   -0.57699  -0.56881  -0.55896  -0.53784  -0.52762
 Alpha  occ. eigenvalues --   -0.51887  -0.49534  -0.49357  -0.48163  -0.47277
 Alpha  occ. eigenvalues --   -0.46846  -0.46456  -0.43453  -0.36794  -0.36125
 Alpha  occ. eigenvalues --   -0.35885  -0.34725  -0.34392  -0.31849
 Alpha virt. eigenvalues --   -0.05603  -0.01258   0.00348   0.01089   0.04758
 Alpha virt. eigenvalues --    0.04991   0.05860   0.08506   0.08988   0.09492
 Alpha virt. eigenvalues --    0.10550   0.10892   0.11782   0.12157   0.13453
 Alpha virt. eigenvalues --    0.18027   0.18456   0.18496   0.20705   0.22897
 Alpha virt. eigenvalues --    0.23997   0.24548   0.26304   0.29981   0.31177
 Alpha virt. eigenvalues --    0.31459   0.36802   0.37870   0.40043   0.40649
 Alpha virt. eigenvalues --    0.42210   0.44366   0.45957   0.46407   0.47945
 Alpha virt. eigenvalues --    0.50423
     Molecular Orbital Coefficients:
                           1         2         3         4         5
                           O         O         O         O         O
     Eigenvalues --    -1.74386  -1.66113  -1.65680  -1.55204  -1.53808
   1 1   C  1S          0.25723   0.19425   0.16098   0.30852   0.26738
   2        2PX         0.02288   0.03421  -0.07277  -0.03577   0.02289
   3        2PY        -0.00151  -0.08102   0.00952  -0.15865  -0.10833
   4        2PZ         0.00107   0.01553   0.00252   0.04583   0.04006
   5 2   C  1S          0.21126   0.05102   0.33123   0.12046  -0.06943
   6        2PX         0.02449   0.01868  -0.05454   0.02817   0.15936
   7        2PY         0.01987  -0.04012   0.04831  -0.09621  -0.07028
   8        2PZ         0.00314   0.00517  -0.00824   0.01217   0.03506
   9 3   C  1S          0.30654   0.12644  -0.03403   0.04692   0.11018
  10        2PX         0.01804   0.01506  -0.10654  -0.05937  -0.08140
  11        2PY         0.01218  -0.10256   0.01008  -0.03711  -0.01075
  12        2PZ        -0.00426  -0.00032   0.01499   0.01516   0.02049
  13 4   O  1S          0.18610   0.22570   0.11498   0.42287   0.34329
  14        2PX         0.00844   0.01575  -0.01858  -0.01217   0.00388
  15        2PY         0.07318   0.08310   0.04523   0.14882   0.12176
  16        2PZ        -0.02409  -0.02947  -0.01272  -0.04613  -0.03587
  17 5   C  1S          0.25722  -0.19435   0.16085  -0.30847   0.26744
  18        2PX         0.02288  -0.03417  -0.07278   0.03577   0.02290
  19        2PY         0.00151  -0.08103  -0.00958  -0.15864   0.10837
  20        2PZ         0.00105  -0.01551   0.00251  -0.04582   0.04005
  21 6   C  1S          0.30654  -0.12644  -0.03411  -0.04687   0.11018
  22        2PX         0.01804  -0.01500  -0.10654   0.05936  -0.08141
  23        2PY        -0.01219  -0.10256  -0.01015  -0.03711   0.01075
  24        2PZ        -0.00426   0.00033   0.01500  -0.01517   0.02051
  25 7   O  1S          0.18609  -0.22579   0.11482  -0.42282   0.34338
  26        2PX         0.00843  -0.01574  -0.01859   0.01218   0.00387
  27        2PY        -0.07318   0.08314  -0.04517   0.14880  -0.12180
  28        2PZ        -0.02408   0.02947  -0.01268   0.04610  -0.03586
  29 8   C  1S          0.21125  -0.05121   0.33120  -0.12049  -0.06940
  30        2PX         0.02449  -0.01865  -0.05455  -0.02811   0.15936
  31        2PY        -0.01987  -0.04010  -0.04834  -0.09620   0.07031
  32        2PZ         0.00311  -0.00516  -0.00829  -0.01217   0.03507
  33 9   C  1S          0.11826   0.03364   0.27017   0.09558  -0.20328
  34        2PX         0.02781   0.01912   0.02463   0.04798   0.05708
  35        2PY         0.03925  -0.00338   0.10504  -0.00771  -0.11346
  36        2PZ         0.00529   0.00430   0.00493   0.01135   0.01308
  37 10  C  1S          0.29763  -0.27925  -0.21161   0.11933  -0.08377
  38        2PX        -0.02466   0.01594  -0.02884   0.05207  -0.06510
  39        2PY         0.00629  -0.14217  -0.03449   0.08722  -0.04422
  40        2PZ         0.00316  -0.00107   0.00593  -0.01219   0.01401
  41 11  C  1S          0.11826  -0.03380   0.27014  -0.09566  -0.20325
  42        2PX         0.02782  -0.01914   0.02464  -0.04798   0.05708
  43        2PY        -0.03925  -0.00332  -0.10505  -0.00768   0.11346
  44        2PZ         0.00524  -0.00430   0.00482  -0.01133   0.01317
  45 12  C  1S          0.29765   0.27935  -0.21146  -0.11933  -0.08373
  46        2PX        -0.02466  -0.01590  -0.02886  -0.05209  -0.06510
  47        2PY        -0.00630  -0.14220   0.03441   0.08724   0.04419
  48        2PZ         0.00316   0.00111   0.00591   0.01215   0.01398
  49 13  C  1S          0.08344   0.00568   0.24036   0.01954  -0.28619
  50        2PX         0.03584   0.00384   0.09224   0.01241  -0.08516
  51        2PY         0.01652  -0.00378   0.05015  -0.01316  -0.06522
  52        2PZ         0.00708   0.00082   0.01837   0.00271  -0.01667
  53 14  C  1S          0.08344  -0.00582   0.24035  -0.01963  -0.28618
  54        2PX         0.03584  -0.00389   0.09225  -0.01244  -0.08517
  55        2PY        -0.01652  -0.00375  -0.05015  -0.01314   0.06522
  56        2PZ         0.00706  -0.00084   0.01830  -0.00272  -0.01660
  57 15  C  1S          0.19309   0.08576  -0.16600  -0.05874  -0.10077
  58        2PX        -0.07541  -0.03771   0.05375   0.01999   0.01951
  59        2PY         0.01039  -0.07067  -0.00151   0.04978   0.00674
  60        2PZ         0.01242   0.00609  -0.00880  -0.00290  -0.00269
  61 16  C  1S          0.19308  -0.08568  -0.16604   0.05874  -0.10079
  62        2PX        -0.07541   0.03770   0.05377  -0.02000   0.01952
  63        2PY        -0.01040  -0.07067   0.00147   0.04977  -0.00675
  64        2PZ         0.01242  -0.00606  -0.00880   0.00288  -0.00269
  65 17  H  1S          0.03852   0.02037   0.07694   0.05482  -0.03453
  66 18  H  1S          0.03852  -0.02042   0.07692  -0.05484  -0.03451
  67 19  H  1S          0.01983   0.00194   0.06111   0.00705  -0.08165
  68 20  H  1S          0.01983  -0.00198   0.06111  -0.00707  -0.08165
  69 21  H  1S          0.05730  -0.04425  -0.05621   0.03362  -0.04215
  70 22  H  1S          0.05730   0.04428  -0.05618  -0.03362  -0.04214
  71 23  O  1S          0.26781   0.44636  -0.25110  -0.26567  -0.16969
  72        2PX         0.02712   0.05366  -0.04374  -0.06712  -0.05264
  73        2PY         0.07285   0.10743  -0.05825  -0.04536  -0.02564
  74        2PZ        -0.00077  -0.00251   0.00417   0.00894   0.00773
  75 24  H  1S          0.11085   0.18472  -0.11255  -0.12740  -0.08771
  76 25  O  1S          0.26779  -0.44622  -0.25134   0.26563  -0.16977
  77        2PX         0.02713  -0.05366  -0.04378   0.06712  -0.05266
  78        2PY        -0.07283   0.10739   0.05830  -0.04534   0.02565
  79        2PZ        -0.00069   0.00236   0.00409  -0.00886   0.00768
  80 26  H  1S          0.11083  -0.18465  -0.11264   0.12738  -0.08774
                           6         7         8         9        10
                           O         O         O         O         O
     Eigenvalues --    -1.50226  -1.35366  -1.22806  -1.21861  -1.08889
   1 1   C  1S          0.03022  -0.07815   0.00932  -0.01476  -0.10215
   2        2PX        -0.02540  -0.01105   0.13663   0.18571  -0.16164
   3        2PY        -0.14270  -0.28662  -0.07963  -0.01895  -0.13861
   4        2PZ         0.03223   0.07123   0.03865   0.00459   0.06240
   5 2   C  1S         -0.02320  -0.20373  -0.22754  -0.27648  -0.01759
   6        2PX        -0.03753  -0.13979   0.09187  -0.00795  -0.00888
   7        2PY        -0.04221  -0.11112   0.16116  -0.03236   0.00188
   8        2PZ         0.00165  -0.00870   0.01819  -0.01148   0.01198
   9 3   C  1S         -0.26771  -0.17753   0.06466   0.27020  -0.31854
  10        2PX        -0.07088   0.16017   0.00300   0.04016  -0.04652
  11        2PY        -0.14984  -0.06980  -0.05333   0.02067   0.22091
  12        2PZ         0.01772  -0.00897   0.00766   0.00423   0.01253
  13 4   O  1S          0.18736   0.29758   0.14277   0.00852   0.19427
  14        2PX         0.00393  -0.00612   0.05534   0.05632  -0.06027
  15        2PY         0.05825   0.07210   0.03031  -0.00014   0.00878
  16        2PZ        -0.02209  -0.02517  -0.00331  -0.00062   0.00362
  17 5   C  1S          0.03020  -0.07816  -0.00931  -0.01478   0.10215
  18        2PX        -0.02539  -0.01104  -0.13677   0.18561   0.16163
  19        2PY         0.14269   0.28660  -0.07967   0.01891  -0.13862
  20        2PZ         0.03222   0.07122  -0.03858   0.00453  -0.06242
  21 6   C  1S         -0.26771  -0.17752  -0.06483   0.27014   0.31855
  22        2PX        -0.07089   0.16017  -0.00302   0.04016   0.04648
  23        2PY         0.14984   0.06982  -0.05333  -0.02071   0.22090
  24        2PZ         0.01770  -0.00898  -0.00765   0.00422  -0.01256
  25 7   O  1S          0.18733   0.29755  -0.14279   0.00843  -0.19427
  26        2PX         0.00392  -0.00614  -0.05538   0.05628   0.06028
  27        2PY        -0.05824  -0.07210   0.03032   0.00015   0.00878
  28        2PZ        -0.02208  -0.02515   0.00333  -0.00064  -0.00364
  29 8   C  1S         -0.02320  -0.20372   0.22774  -0.27634   0.01759
  30        2PX        -0.03753  -0.13981  -0.09188  -0.00802   0.00890
  31        2PY         0.04221   0.11111   0.16112   0.03247   0.00185
  32        2PZ         0.00167  -0.00862  -0.01803  -0.01146  -0.01196
  33 9   C  1S          0.03387   0.08390  -0.45307  -0.02775  -0.05702
  34        2PX         0.00192  -0.06578  -0.00604  -0.16874   0.04023
  35        2PY        -0.00128   0.00502   0.00070   0.00602  -0.00765
  36        2PZ         0.00224  -0.00857  -0.00057  -0.03493   0.01212
  37 10  C  1S         -0.08227   0.05845  -0.02772   0.05413   0.28281
  38        2PX         0.00133   0.07952   0.05255  -0.18479  -0.14812
  39        2PY         0.28480  -0.10683   0.01804  -0.01022  -0.10614
  40        2PZ        -0.00151  -0.00820  -0.01170   0.03377   0.02431
  41 11  C  1S          0.03388   0.08392   0.45308  -0.02745   0.05697
  42        2PX         0.00193  -0.06577   0.00615  -0.16874  -0.04026
  43        2PY         0.00128  -0.00502   0.00070  -0.00602  -0.00767
  44        2PZ         0.00224  -0.00858   0.00058  -0.03491  -0.01212
  45 12  C  1S         -0.08227   0.05845   0.02769   0.05416  -0.28281
  46        2PX         0.00137   0.07951  -0.05243  -0.18484   0.14813
  47        2PY        -0.28480   0.10683   0.01803   0.01022  -0.10613
  48        2PZ        -0.00142  -0.00824   0.01167   0.03377  -0.02428
  49 13  C  1S          0.02866   0.18039  -0.22479   0.29729  -0.05960
  50        2PX         0.00724   0.01425  -0.08760  -0.04958  -0.01314
  51        2PY         0.00319   0.03157   0.15700   0.07253   0.04130
  52        2PZ         0.00181   0.00389  -0.01740  -0.00987  -0.00192
  53 14  C  1S          0.02866   0.18040   0.22459   0.29745   0.05964
  54        2PX         0.00724   0.01426   0.08760  -0.04951   0.01312
  55        2PY        -0.00319  -0.03157   0.15705  -0.07242   0.04127
  56        2PZ         0.00181   0.00385   0.01755  -0.00994   0.00196
  57 15  C  1S         -0.24868   0.26113  -0.01194  -0.28818  -0.07863
  58        2PX         0.08313  -0.02739  -0.00365  -0.06462   0.06119
  59        2PY        -0.12612   0.08662   0.01131  -0.06159   0.04365
  60        2PZ        -0.01415   0.00559   0.00106   0.01152  -0.01013
  61 16  C  1S         -0.24867   0.26113   0.01212  -0.28817   0.07862
  62        2PX         0.08312  -0.02738   0.00369  -0.06463  -0.06119
  63        2PY         0.12613  -0.08662   0.01127   0.06160   0.04365
  64        2PZ        -0.01419   0.00562  -0.00107   0.01150   0.01011
  65 17  H  1S          0.01930   0.04176  -0.21253  -0.01788  -0.01809
  66 18  H  1S          0.01931   0.04177   0.21253  -0.01774   0.01805
  67 19  H  1S          0.00948   0.07069  -0.10803   0.14567  -0.03399
  68 20  H  1S          0.00948   0.07069   0.10793   0.14574   0.03401
  69 21  H  1S         -0.04699   0.08778   0.01172  -0.15242   0.01400
  70 22  H  1S         -0.04699   0.08778  -0.01163  -0.15243  -0.01400
  71 23  O  1S          0.35990  -0.12855  -0.04567  -0.00475   0.20492
  72        2PX         0.05267  -0.01829  -0.04035  -0.06459   0.13369
  73        2PY         0.05535  -0.01088   0.01620   0.03327  -0.13630
  74        2PZ        -0.00321   0.00309   0.00761   0.01140  -0.01876
  75 24  H  1S          0.14839  -0.04688  -0.04047  -0.05074   0.17046
  76 25  O  1S          0.35991  -0.12856   0.04568  -0.00471  -0.20492
  77        2PX         0.05269  -0.01829   0.04039  -0.06455  -0.13368
  78        2PY        -0.05534   0.01088   0.01622  -0.03326  -0.13631
  79        2PZ        -0.00309   0.00305  -0.00760   0.01138   0.01868
  80 26  H  1S          0.14840  -0.04688   0.04050  -0.05070  -0.17045
                          11        12        13        14        15
                           O         O         O         O         O
     Eigenvalues --    -1.05543  -0.99938  -0.99297  -0.91394  -0.87478
   1 1   C  1S          0.14391   0.03353  -0.19041   0.04638   0.04257
   2        2PX         0.01722   0.13576   0.13811  -0.10618   0.22969
   3        2PY         0.11898   0.03614  -0.17399   0.04723   0.02380
   4        2PZ        -0.00518  -0.01894   0.07815  -0.03331  -0.03095
   5 2   C  1S         -0.06767  -0.05578  -0.26178  -0.10360  -0.11163
   6        2PX         0.23028  -0.00140  -0.07965   0.09561  -0.09885
   7        2PY         0.02931   0.04536   0.18347  -0.28433  -0.02923
   8        2PZ         0.03651  -0.00830  -0.00886   0.01516  -0.04690
   9 3   C  1S         -0.04408   0.08994  -0.04894   0.03779   0.07605
  10        2PX        -0.24393  -0.06090   0.07195  -0.01455  -0.14366
  11        2PY         0.01895  -0.07681   0.02595   0.10448  -0.17030
  12        2PZ         0.03670   0.01132   0.00444  -0.00974   0.03411
  13 4   O  1S         -0.01778  -0.05392   0.21531  -0.08852  -0.08728
  14        2PX         0.00767   0.06647   0.05803  -0.09066   0.10668
  15        2PY         0.01278  -0.00174  -0.01967   0.00877   0.01678
  16        2PZ         0.00783  -0.00536   0.01490  -0.01486  -0.01884
  17 5   C  1S          0.14391  -0.03351   0.19041   0.04639   0.04259
  18        2PX         0.01722  -0.13576  -0.13813  -0.10620   0.22967
  19        2PY        -0.11896   0.03612  -0.17401  -0.04727  -0.02382
  20        2PZ        -0.00519   0.01897  -0.07808  -0.03322  -0.03101
  21 6   C  1S         -0.04411  -0.08995   0.04894   0.03782   0.07608
  22        2PX        -0.24393   0.06088  -0.07193  -0.01452  -0.14369
  23        2PY        -0.01898  -0.07679   0.02593  -0.10447   0.17030
  24        2PZ         0.03673  -0.01131  -0.00441  -0.00971   0.03410
  25 7   O  1S         -0.01775   0.05390  -0.21531  -0.08857  -0.08732
  26        2PX         0.00768  -0.06648  -0.05803  -0.09068   0.10667
  27        2PY        -0.01277  -0.00174  -0.01968  -0.00878  -0.01680
  28        2PZ         0.00782   0.00538  -0.01487  -0.01481  -0.01886
  29 8   C  1S         -0.06767   0.05577   0.26179  -0.10357  -0.11161
  30        2PX         0.23028   0.00141   0.07965   0.09557  -0.09885
  31        2PY        -0.02930   0.04539   0.18344   0.28435   0.02926
  32        2PZ         0.03645   0.00832   0.00891   0.01535  -0.04683
  33 9   C  1S         -0.16894   0.02974   0.07095   0.25767   0.16189
  34        2PX        -0.11988  -0.09120  -0.27910  -0.02518  -0.07025
  35        2PY        -0.03240   0.00468  -0.00483  -0.30440  -0.01523
  36        2PZ        -0.02505  -0.02039  -0.05197  -0.00358  -0.02259
  37 10  C  1S         -0.15047   0.18455  -0.05682  -0.04443  -0.02657
  38        2PX         0.11256   0.27050  -0.03969   0.03325  -0.12024
  39        2PY         0.06482  -0.12490   0.02373  -0.04020   0.16942
  40        2PZ        -0.01991  -0.04459   0.00070  -0.00974   0.02103
  41 11  C  1S         -0.16894  -0.02972  -0.07098   0.25768   0.16189
  42        2PX        -0.11989   0.09120   0.27911  -0.02522  -0.07027
  43        2PY         0.03240   0.00471  -0.00485   0.30440   0.01522
  44        2PZ        -0.02500   0.02036   0.05189  -0.00330  -0.02255
  45 12  C  1S         -0.15044  -0.18455   0.05683  -0.04445  -0.02657
  46        2PX         0.11257  -0.27048   0.03969   0.03328  -0.12020
  47        2PY        -0.06479  -0.12494   0.02374   0.04021  -0.16943
  48        2PZ        -0.01990   0.04461  -0.00069  -0.00977   0.02111
  49 13  C  1S          0.25344   0.09020   0.26371  -0.01409  -0.08523
  50        2PX        -0.17497   0.00638   0.01386  -0.06636   0.17199
  51        2PY         0.09305  -0.06206  -0.18217  -0.23336  -0.12275
  52        2PZ        -0.03455   0.00089   0.00352  -0.01228   0.03084
  53 14  C  1S          0.25344  -0.09019  -0.26370  -0.01410  -0.08522
  54        2PX        -0.17495  -0.00638  -0.01383  -0.06640   0.17196
  55        2PY        -0.09305  -0.06205  -0.18219   0.23335   0.12276
  56        2PZ        -0.03463  -0.00096  -0.00374  -0.01203   0.03096
  57 15  C  1S          0.20278  -0.36654   0.07427  -0.02235   0.11425
  58        2PX         0.17090   0.04780  -0.01424  -0.02331   0.26690
  59        2PY         0.05128   0.24904  -0.04951  -0.00607   0.04997
  60        2PZ        -0.02878  -0.00795   0.00346   0.00256  -0.04397
  61 16  C  1S          0.20275   0.36656  -0.07428  -0.02238   0.11423
  62        2PX         0.17092  -0.04780   0.01423  -0.02332   0.26690
  63        2PY        -0.05129   0.24903  -0.04951   0.00605  -0.04997
  64        2PZ        -0.02876   0.00787  -0.00344   0.00257  -0.04397
  65 17  H  1S         -0.06507   0.00883   0.03830   0.31608   0.08671
  66 18  H  1S         -0.06507  -0.00881  -0.03833   0.31608   0.08670
  67 19  H  1S          0.18492   0.05966   0.17796   0.10188  -0.10137
  68 20  H  1S          0.18493  -0.05965  -0.17795   0.10187  -0.10136
  69 21  H  1S          0.17188   0.22977  -0.04332  -0.01925   0.18808
  70 22  H  1S          0.17189  -0.22976   0.04331  -0.01922   0.18809
  71 23  O  1S          0.01983   0.19503  -0.05012   0.03421  -0.04121
  72        2PX         0.05802  -0.08592  -0.01301   0.07101  -0.15282
  73        2PY        -0.05507  -0.03215   0.02502  -0.08126   0.16542
  74        2PZ        -0.00900   0.01586   0.00520  -0.01415   0.02579
  75 24  H  1S          0.05863   0.00481  -0.02430   0.06940  -0.13554
  76 25  O  1S          0.01986  -0.19502   0.05012   0.03422  -0.04120
  77        2PX         0.05802   0.08591   0.01300   0.07097  -0.15282
  78        2PY         0.05509  -0.03216   0.02502   0.08123  -0.16543
  79        2PZ        -0.00897  -0.01588  -0.00518  -0.01412   0.02574
  80 26  H  1S          0.05864  -0.00483   0.02429   0.06937  -0.13554
                          16        17        18        19        20
                           O         O         O         O         O
     Eigenvalues --    -0.85039  -0.79271  -0.72139  -0.69734  -0.67536
   1 1   C  1S         -0.06544  -0.24139   0.01262   0.13223   0.15819
   2        2PX         0.12382  -0.08409   0.06455  -0.14313  -0.01953
   3        2PY        -0.03008  -0.12399   0.05839   0.03616  -0.06333
   4        2PZ         0.04340   0.02066   0.05040  -0.00436  -0.02124
   5 2   C  1S         -0.09887   0.02051  -0.08344   0.05046  -0.09473
   6        2PX        -0.12790  -0.15837   0.04450   0.17517  -0.08176
   7        2PY         0.04442  -0.02169   0.08520  -0.03174  -0.34392
   8        2PZ        -0.02919  -0.02121   0.01461   0.03937  -0.02261
   9 3   C  1S          0.14984  -0.09737  -0.01465  -0.14412   0.04253
  10        2PX        -0.06575   0.19550  -0.15347  -0.09672  -0.04041
  11        2PY         0.21981   0.04951   0.09218   0.07865  -0.01581
  12        2PZ         0.04080  -0.03354   0.05419   0.00455   0.01397
  13 4   O  1S          0.11258   0.12051   0.08860  -0.08158  -0.23838
  14        2PX         0.03505  -0.03684   0.01222  -0.05984  -0.05968
  15        2PY        -0.03536  -0.07713  -0.03979   0.08015   0.23308
  16        2PZ         0.02773   0.00737   0.05764  -0.01920  -0.09127
  17 5   C  1S         -0.06541   0.24141   0.01261  -0.13224   0.15817
  18        2PX         0.12385   0.08406   0.06460   0.14313  -0.01953
  19        2PY         0.03007  -0.12399  -0.05837   0.03614   0.06333
  20        2PZ         0.04337  -0.02067   0.05036   0.00446  -0.02113
  21 6   C  1S          0.14985   0.09734  -0.01465   0.14410   0.04257
  22        2PX        -0.06575  -0.19546  -0.15347   0.09677  -0.04036
  23        2PY        -0.21980   0.04951  -0.09219   0.07873   0.01583
  24        2PZ         0.04086   0.03370   0.05422  -0.00440   0.01402
  25 7   O  1S          0.11256  -0.12054   0.08862   0.08154  -0.23841
  26        2PX         0.03507   0.03684   0.01226   0.05987  -0.05970
  27        2PY         0.03535  -0.07714   0.03982   0.08011  -0.23314
  28        2PZ         0.02772  -0.00737   0.05762   0.01925  -0.09118
  29 8   C  1S         -0.09887  -0.02048  -0.08344  -0.05043  -0.09473
  30        2PX        -0.12789   0.15843   0.04449  -0.17519  -0.08184
  31        2PY        -0.04442  -0.02166  -0.08521  -0.03183   0.34392
  32        2PZ        -0.02918   0.02108   0.01454  -0.03910  -0.02241
  33 9   C  1S          0.05291   0.10274   0.04246  -0.15476  -0.00379
  34        2PX        -0.05729   0.14010  -0.18337  -0.07313   0.16484
  35        2PY         0.09646  -0.03114   0.02932   0.06611   0.09616
  36        2PZ        -0.01226   0.03147  -0.03253  -0.01322   0.02749
  37 10  C  1S         -0.23587  -0.15449   0.10692   0.00393   0.00766
  38        2PX        -0.01151   0.08383   0.28374  -0.08964   0.04642
  39        2PY        -0.12091  -0.13501   0.04349  -0.26460  -0.01461
  40        2PZ         0.01762  -0.00771  -0.03441   0.03281  -0.00512
  41 11  C  1S          0.05290  -0.10274   0.04248   0.15477  -0.00376
  42        2PX        -0.05728  -0.14008  -0.18336   0.07307   0.16489
  43        2PY        -0.09646  -0.03109  -0.02931   0.06616  -0.09615
  44        2PZ        -0.01234  -0.03149  -0.03252   0.01335   0.02730
  45 12  C  1S         -0.23586   0.15452   0.10693  -0.00392   0.00763
  46        2PX        -0.01157  -0.08377   0.28374   0.08966   0.04643
  47        2PY         0.12089  -0.13502  -0.04347  -0.26460   0.01454
  48        2PZ         0.01750   0.00792  -0.03439  -0.03242  -0.00521
  49 13  C  1S         -0.05652  -0.14148  -0.00919   0.15206   0.02625
  50        2PX         0.18569   0.06000   0.17927  -0.12363   0.05790
  51        2PY        -0.00849   0.08836  -0.09762  -0.08609   0.30802
  52        2PZ         0.03609   0.01257   0.03743  -0.02390   0.00811
  53 14  C  1S         -0.05652   0.14148  -0.00921  -0.15207   0.02623
  54        2PX         0.18569  -0.06008   0.17927   0.12362   0.05800
  55        2PY         0.00850   0.08838   0.09760  -0.08599  -0.30803
  56        2PZ         0.03608  -0.01246   0.03752   0.02378   0.00775
  57 15  C  1S          0.00937  -0.10396  -0.01912  -0.00608  -0.01137
  58        2PX         0.09271  -0.06635  -0.14926   0.04073   0.00975
  59        2PY         0.10059   0.06552  -0.34772  -0.00166  -0.13032
  60        2PZ        -0.00955   0.00995   0.03084  -0.01074  -0.00018
  61 16  C  1S          0.00940   0.10396  -0.01910   0.00608  -0.01137
  62        2PX         0.09273   0.06632  -0.14929  -0.04069   0.00971
  63        2PY        -0.10056   0.06554   0.34772  -0.00175   0.13032
  64        2PZ        -0.00950  -0.00989   0.03074   0.01090  -0.00020
  65 17  H  1S         -0.03442   0.07522   0.00079  -0.12556  -0.07446
  66 18  H  1S         -0.03442  -0.07519   0.00082   0.12559  -0.07445
  67 19  H  1S         -0.13374  -0.13936  -0.08678   0.19361  -0.14808
  68 20  H  1S         -0.13373   0.13941  -0.08681  -0.19355  -0.14812
  69 21  H  1S          0.03415   0.12247   0.02232  -0.02179   0.05437
  70 22  H  1S          0.03412  -0.12249   0.02230   0.02177   0.05440
  71 23  O  1S          0.13153  -0.00645  -0.18710  -0.02357  -0.07018
  72        2PX         0.14548  -0.18297   0.19482  -0.10708   0.11602
  73        2PY        -0.33011   0.27406   0.14991   0.34068  -0.00608
  74        2PZ        -0.01520   0.02556  -0.02117   0.00364  -0.01922
  75 24  H  1S          0.20945  -0.19340   0.03560  -0.16904   0.06057
  76 25  O  1S          0.13152   0.00643  -0.18709   0.02359  -0.07017
  77        2PX         0.14550   0.18296   0.19484   0.10704   0.11606
  78        2PY         0.33017   0.27405  -0.14987   0.34070   0.00618
  79        2PZ        -0.01508  -0.02538  -0.02110  -0.00332  -0.01909
  80 26  H  1S          0.20949   0.19338   0.03561   0.16903   0.06061
                          21        22        23        24        25
                           O         O         O         O         O
     Eigenvalues --    -0.66467  -0.63660  -0.60782  -0.59452  -0.59433
   1 1   C  1S         -0.17984   0.04686  -0.00497  -0.07548   0.00650
   2        2PX        -0.07869   0.20958   0.12773   0.04459  -0.15798
   3        2PY         0.00004  -0.00503  -0.07018   0.07277   0.06209
   4        2PZ        -0.00845  -0.00421   0.15485  -0.03283   0.22171
   5 2   C  1S          0.03094  -0.07951   0.07955   0.16024  -0.03520
   6        2PX        -0.09659  -0.07506  -0.15429  -0.15644   0.06945
   7        2PY        -0.06158   0.05174   0.13277  -0.07400  -0.06363
   8        2PZ        -0.02130  -0.02975   0.08015  -0.04530   0.24522
   9 3   C  1S          0.14308  -0.02235   0.02766   0.01863  -0.00439
  10        2PX         0.06921  -0.21712   0.06901  -0.00834   0.08069
  11        2PY         0.27685  -0.00505  -0.12190  -0.01435   0.16986
  12        2PZ        -0.02553   0.04802   0.20846  -0.00193   0.22085
  13 4   O  1S          0.17387  -0.05065  -0.11269   0.14023  -0.01820
  14        2PX        -0.10064   0.15161   0.11718   0.10801  -0.12226
  15        2PY        -0.18249   0.04248   0.17758  -0.18905   0.07123
  16        2PZ         0.04895  -0.02572   0.04182   0.05983   0.15078
  17 5   C  1S         -0.17983  -0.04690  -0.00497   0.07542   0.00714
  18        2PX        -0.07864  -0.20953   0.12782  -0.04315  -0.15823
  19        2PY        -0.00005  -0.00505   0.07016   0.07325  -0.06161
  20        2PZ        -0.00839   0.00421   0.15487   0.03098   0.22189
  21 6   C  1S          0.14310   0.02237   0.02756  -0.01861  -0.00460
  22        2PX         0.06919   0.21709   0.06893   0.00760   0.08063
  23        2PY        -0.27684  -0.00505   0.12188  -0.01286  -0.16997
  24        2PZ        -0.02554  -0.04804   0.20855   0.00022   0.22075
  25 7   O  1S          0.17385   0.05074  -0.11267  -0.14006  -0.01918
  26        2PX        -0.10062  -0.15155   0.11729  -0.10694  -0.12309
  27        2PY         0.18248   0.04259  -0.17757  -0.18842  -0.07249
  28        2PZ         0.04897   0.02575   0.04188  -0.06098   0.15034
  29 8   C  1S          0.03090   0.07953   0.07963  -0.15993  -0.03648
  30        2PX        -0.09663   0.07505  -0.15432   0.15583   0.07088
  31        2PY         0.06155   0.05171  -0.13281  -0.07452   0.06288
  32        2PZ        -0.02122   0.02957   0.08014   0.04296   0.24555
  33 9   C  1S         -0.01097   0.12466  -0.00170  -0.00464  -0.00308
  34        2PX         0.18094  -0.01765   0.09505   0.06774  -0.12318
  35        2PY        -0.02877  -0.09324  -0.03310   0.40441   0.02199
  36        2PZ         0.03644  -0.00982   0.07512  -0.00060   0.10843
  37 10  C  1S         -0.01063   0.17733   0.02188   0.05146  -0.01860
  38        2PX        -0.06269  -0.02781  -0.00975   0.04444   0.01224
  39        2PY         0.11619  -0.18548  -0.07313   0.00503   0.09835
  40        2PZ        -0.00076   0.00214   0.19426  -0.01066   0.19329
  41 11  C  1S         -0.01094  -0.12467  -0.00171   0.00468  -0.00313
  42        2PX         0.18094   0.01775   0.09509  -0.06668  -0.12362
  43        2PY         0.02883  -0.09322   0.03286   0.40459  -0.01871
  44        2PZ         0.03643   0.00966   0.07522  -0.00000   0.10838
  45 12  C  1S         -0.01060  -0.17732   0.02185  -0.05130  -0.01908
  46        2PX        -0.06266   0.02789  -0.00989  -0.04445   0.01182
  47        2PY        -0.11622  -0.18547   0.07352   0.00585  -0.09794
  48        2PZ        -0.00063  -0.00195   0.19400   0.00919   0.19378
  49 13  C  1S         -0.00690  -0.11446  -0.04335   0.08943   0.02988
  50        2PX        -0.13998   0.12870  -0.19787   0.08856   0.11101
  51        2PY         0.10749   0.05825  -0.14158  -0.04040   0.05432
  52        2PZ        -0.02800   0.02353  -0.00224   0.01322   0.11375
  53 14  C  1S         -0.00694   0.11445  -0.04330  -0.08970   0.02918
  54        2PX        -0.13992  -0.12878  -0.19790  -0.08955   0.11012
  55        2PY        -0.10751   0.05823   0.14156  -0.03996  -0.05474
  56        2PZ        -0.02809  -0.02346  -0.00203  -0.01428   0.11350
  57 15  C  1S         -0.03333   0.11238  -0.02391   0.05062   0.00704
  58        2PX         0.23591   0.25450   0.07691   0.10335   0.04356
  59        2PY        -0.20601  -0.05888  -0.15590  -0.02083   0.13740
  60        2PZ        -0.04500  -0.04136   0.11422  -0.01701   0.13018
  61 16  C  1S         -0.03330  -0.11238  -0.02397  -0.05066   0.00652
  62        2PX         0.23592  -0.25448   0.07693  -0.10377   0.04264
  63        2PY         0.20604  -0.05883   0.15592  -0.01972  -0.13756
  64        2PZ        -0.04510   0.04150   0.11423   0.01607   0.13027
  65 17  H  1S          0.02320   0.13131   0.01934  -0.34682  -0.01845
  66 18  H  1S          0.02327  -0.13129   0.01918   0.34697  -0.01556
  67 19  H  1S          0.05247  -0.17420   0.18191  -0.00770  -0.10652
  68 20  H  1S          0.05241   0.17423   0.18195   0.00864  -0.10627
  69 21  H  1S          0.23272  -0.26525   0.10064  -0.11207  -0.04398
  70 22  H  1S          0.23268   0.26527   0.10067   0.11236  -0.04293
  71 23  O  1S         -0.05245   0.02682  -0.07964   0.05422   0.06960
  72        2PX         0.01967  -0.11403   0.15299  -0.10983  -0.09214
  73        2PY         0.14407   0.11777  -0.08458  -0.05497   0.10859
  74        2PZ        -0.00965   0.02349   0.14649   0.02275   0.18471
  75 24  H  1S         -0.03259  -0.08242   0.10287  -0.03464  -0.09944
  76 25  O  1S         -0.05242  -0.02685  -0.07988  -0.05480   0.06888
  77        2PX         0.01967   0.11408   0.15311   0.11065  -0.09112
  78        2PY        -0.14402   0.11778   0.08420  -0.05403  -0.10946
  79        2PZ        -0.00972  -0.02330   0.14694  -0.02404   0.18389
  80 26  H  1S         -0.03259   0.08244   0.10290   0.03547  -0.09907
                          26        27        28        29        30
                           O         O         O         O         O
     Eigenvalues --    -0.57699  -0.56881  -0.55896  -0.53784  -0.52762
   1 1   C  1S          0.04194  -0.02588  -0.03190   0.01548  -0.01577
   2        2PX         0.04258   0.16340  -0.10724  -0.12134  -0.02272
   3        2PY        -0.23670   0.11360  -0.14557   0.01633   0.03442
   4        2PZ         0.14224  -0.05215  -0.01335  -0.17065   0.08191
   5 2   C  1S         -0.00780  -0.02581   0.00308   0.00816   0.01880
   6        2PX        -0.15105  -0.11540   0.00933   0.18829   0.00175
   7        2PY         0.00361  -0.09832  -0.01245  -0.01745  -0.01082
   8        2PZ         0.00399  -0.13229   0.00854  -0.18312   0.02577
   9 3   C  1S         -0.05277  -0.01290  -0.02291  -0.02811   0.00441
  10        2PX         0.04741  -0.18798   0.15958   0.13141   0.04341
  11        2PY         0.02083  -0.01350   0.00509  -0.11818  -0.00215
  12        2PZ         0.04023   0.14665  -0.04586  -0.01191   0.10426
  13 4   O  1S         -0.25013   0.11057  -0.10900   0.03830   0.00378
  14        2PX         0.06741   0.11390  -0.05246  -0.05458   0.00956
  15        2PY         0.43680  -0.20256   0.14808  -0.11902   0.00272
  16        2PZ        -0.06938   0.04199  -0.12103  -0.11535   0.09007
  17 5   C  1S         -0.04188  -0.02594   0.03196   0.01534   0.01584
  18        2PX        -0.04268   0.16356   0.10678  -0.12165   0.02254
  19        2PY        -0.23646  -0.11426  -0.14535  -0.01617   0.03591
  20        2PZ        -0.14218  -0.05231   0.01295  -0.17075  -0.08240
  21 6   C  1S          0.05281  -0.01279   0.02289  -0.02816  -0.00428
  22        2PX        -0.04721  -0.18834  -0.15915   0.13176  -0.04361
  23        2PY         0.02087   0.01355   0.00520   0.11818  -0.00402
  24        2PZ        -0.04044   0.14669   0.04528  -0.01189  -0.10421
  25 7   O  1S          0.24988   0.11118   0.10891   0.03822  -0.00463
  26        2PX        -0.06746   0.11396   0.05220  -0.05470  -0.00955
  27        2PY         0.43642   0.20355   0.14802   0.11898   0.00112
  28        2PZ         0.06919   0.04232   0.12061  -0.11559  -0.09145
  29 8   C  1S          0.00785  -0.02574  -0.00304   0.00819  -0.01866
  30        2PX         0.15110  -0.11538  -0.00883   0.18830  -0.00184
  31        2PY         0.00344   0.09839  -0.01257   0.01763  -0.01112
  32        2PZ        -0.00402  -0.13215  -0.00871  -0.18321  -0.02771
  33 9   C  1S          0.05092   0.04469  -0.05153  -0.02503  -0.01728
  34        2PX        -0.01275   0.21387   0.06461  -0.09285   0.03982
  35        2PY         0.20304  -0.06521  -0.06237   0.00465  -0.04033
  36        2PZ         0.01008  -0.02828   0.01670  -0.18735   0.02340
  37 10  C  1S         -0.03401  -0.02072   0.03016   0.04567   0.00213
  38        2PX        -0.04039   0.18049   0.12596  -0.08163  -0.01489
  39        2PY         0.00862   0.05296   0.13204  -0.07812  -0.00514
  40        2PZ        -0.03451   0.12572   0.01152   0.21548  -0.30167
  41 11  C  1S         -0.05097   0.04477   0.05141  -0.02511   0.01712
  42        2PX         0.01255   0.21373  -0.06510  -0.09279  -0.03966
  43        2PY         0.20299   0.06523  -0.06251  -0.00440  -0.04109
  44        2PZ        -0.00990  -0.02826  -0.01703  -0.18739  -0.02505
  45 12  C  1S          0.03403  -0.02069  -0.03006   0.04572  -0.00254
  46        2PX         0.04017   0.18043  -0.12645  -0.08133   0.01583
  47        2PY         0.00879  -0.05248   0.13220   0.07823  -0.00516
  48        2PZ         0.03424   0.12586  -0.01185   0.21491   0.30206
  49 13  C  1S          0.01310  -0.02213   0.02159   0.03336   0.00120
  50        2PX         0.14090  -0.10027  -0.13434   0.13663  -0.07398
  51        2PY        -0.00689   0.17770  -0.00735   0.01162   0.00101
  52        2PZ         0.03182  -0.07473  -0.02529  -0.11968  -0.00980
  53 14  C  1S         -0.01310  -0.02218  -0.02150   0.03339  -0.00131
  54        2PX        -0.14090  -0.10004   0.13476   0.13644   0.07404
  55        2PY        -0.00661  -0.17765  -0.00707  -0.01144   0.00264
  56        2PZ        -0.03174  -0.07487   0.02514  -0.11977   0.00827
  57 15  C  1S         -0.02779   0.05216   0.09383  -0.03319   0.00830
  58        2PX        -0.07580  -0.14855   0.12354   0.11263   0.05466
  59        2PY         0.00973   0.13795  -0.02860  -0.10410  -0.00111
  60        2PZ         0.02419   0.14516  -0.02943   0.15800   0.08056
  61 16  C  1S          0.02772   0.05205  -0.09396  -0.03305  -0.00823
  62        2PX         0.07597  -0.14846  -0.12319   0.11314  -0.05477
  63        2PY         0.01005  -0.13796  -0.02824   0.10419  -0.00054
  64        2PZ        -0.02446   0.14517   0.02910   0.15802  -0.08002
  65 17  H  1S         -0.15772   0.07892   0.03206  -0.01627   0.02744
  66 18  H  1S          0.15764   0.07891  -0.03223  -0.01622  -0.02825
  67 19  H  1S         -0.10131  -0.00406   0.12092  -0.07840   0.06022
  68 20  H  1S          0.10142  -0.00426  -0.12104  -0.07824  -0.05931
  69 21  H  1S          0.07760  -0.17123  -0.15462   0.10289  -0.03727
  70 22  H  1S         -0.07732  -0.17122   0.15504   0.10242   0.03744
  71 23  O  1S         -0.03715   0.01574   0.20022  -0.02024   0.00890
  72        2PX         0.07958  -0.00966  -0.38044   0.05709   0.04561
  73        2PY         0.01697   0.04266  -0.23824  -0.08636  -0.01453
  74        2PZ         0.03467   0.18527  -0.00974   0.32003   0.59222
  75 24  H  1S          0.03155  -0.03582  -0.12233   0.04311  -0.00737
  76 25  O  1S          0.03711   0.01533  -0.20031  -0.02019  -0.00804
  77        2PX        -0.07951  -0.00926   0.38053   0.05652  -0.04626
  78        2PY         0.01710  -0.04320  -0.23804   0.08654  -0.01456
  79        2PZ        -0.03511   0.18502   0.00980   0.32112  -0.59125
  80 26  H  1S         -0.03145  -0.03563   0.12247   0.04305   0.00651
                          31        32        33        34        35
                           O         O         O         O         O
     Eigenvalues --    -0.51887  -0.49534  -0.49357  -0.48163  -0.47277
   1 1   C  1S         -0.00610  -0.01072   0.09624   0.02098   0.03012
   2        2PX        -0.02867  -0.00691  -0.06593   0.05540  -0.00005
   3        2PY        -0.18700   0.01725   0.11492  -0.11440   0.02426
   4        2PZ        -0.01942  -0.01011   0.04678  -0.34631  -0.17632
   5 2   C  1S          0.01346   0.00220  -0.02959  -0.00802  -0.01177
   6        2PX        -0.03542   0.00392   0.17002  -0.00612  -0.07860
   7        2PY         0.02273   0.00001   0.02120   0.00565  -0.18279
   8        2PZ        -0.21089  -0.00691   0.05132  -0.12654   0.11392
   9 3   C  1S          0.03032   0.02876  -0.06795  -0.05195   0.01114
  10        2PX        -0.04207   0.04330  -0.07330  -0.08978  -0.06872
  11        2PY         0.30809  -0.07860   0.03650   0.02073  -0.00959
  12        2PZ         0.01495  -0.03642   0.02626  -0.06237  -0.12722
  13 4   O  1S         -0.10094   0.02580   0.01711  -0.00922   0.03314
  14        2PX        -0.02865  -0.08669  -0.01121   0.11850  -0.01928
  15        2PY         0.21445  -0.02612  -0.03853  -0.11515  -0.14668
  16        2PZ        -0.14075   0.03243   0.10359  -0.47246  -0.18102
  17 5   C  1S         -0.00621  -0.01027  -0.09628  -0.02092   0.03033
  18        2PX        -0.02895  -0.00711   0.06601  -0.05540   0.00048
  19        2PY         0.18677  -0.01748   0.11508  -0.11448  -0.02465
  20        2PZ        -0.01890  -0.01062  -0.04733   0.34631  -0.17587
  21 6   C  1S          0.03033   0.02842   0.06813   0.05196   0.01073
  22        2PX        -0.04165   0.04281   0.07316   0.08991  -0.06963
  23        2PY        -0.30808   0.07842   0.03659   0.02098   0.00942
[...]
  76 25  O  1S          1.70173
  77        2PX         0.00000   1.42843
  78        2PY         0.00000   0.00000   1.26077
  79        2PZ         0.00000   0.00000   0.00000   1.92748
  80 26  H  1S          0.00000   0.00000   0.00000   0.00000   0.78136
     Gross orbital populations:
                           1
   1 1   C  1S          1.07745
   2        2PX         0.98366
   3        2PY         0.89822
   4        2PZ         0.71140
   5 2   C  1S          1.05891
   6        2PX         0.95467
   7        2PY         0.96483
   8        2PZ         1.00831
   9 3   C  1S          1.05880
  10        2PX         0.94158
  11        2PY         0.95589
  12        2PZ         1.03625
  13 4   O  1S          1.82102
  14        2PX         1.97669
  15        2PY         1.27248
  16        2PZ         1.42517
  17 5   C  1S          1.07746
  18        2PX         0.98366
  19        2PY         0.89824
  20        2PZ         0.71139
  21 6   C  1S          1.05881
  22        2PX         0.94160
  23        2PY         0.95589
  24        2PZ         1.03622
  25 7   O  1S          1.82102
  26        2PX         1.97670
  27        2PY         1.27247
  28        2PZ         1.42518
  29 8   C  1S          1.05889
  30        2PX         0.95464
  31        2PY         0.96481
  32        2PZ         1.00838
  33 9   C  1S          1.09711
  34        2PX         0.98068
  35        2PY         0.96140
  36        2PZ         0.96258
  37 10  C  1S          1.05540
  38        2PX         0.98554
  39        2PY         0.84386
  40        2PZ         0.95745
  41 11  C  1S          1.09711
  42        2PX         0.98071
  43        2PY         0.96142
  44        2PZ         0.96250
  45 12  C  1S          1.05540
  46        2PX         0.98555
  47        2PY         0.84386
  48        2PZ         0.95744
  49 13  C  1S          1.09321
  50        2PX         0.96445
  51        2PY         0.98436
  52        2PZ         0.97508
  53 14  C  1S          1.09321
  54        2PX         0.96443
  55        2PY         0.98436
  56        2PZ         0.97512
  57 15  C  1S          1.09064
  58        2PX         0.95177
  59        2PY         0.97431
  60        2PZ         1.01291
  61 16  C  1S          1.09065
  62        2PX         0.95178
  63        2PY         0.97431
  64        2PZ         1.01289
  65 17  H  1S          0.94575
  66 18  H  1S          0.94574
  67 19  H  1S          0.96128
  68 20  H  1S          0.96128
  69 21  H  1S          0.95713
  70 22  H  1S          0.95714
  71 23  O  1S          1.70173
  72        2PX         1.42855
  73        2PY         1.26079
  74        2PZ         1.92731
  75 24  H  1S          0.78136
  76 25  O  1S          1.70173
  77        2PX         1.42843
  78        2PY         1.26077
  79        2PZ         1.92748
  80 26  H  1S          0.78136
          Condensed to atoms (all electrons):
               1          2          3          4          5          6
     1  C    3.670731   0.000000   0.000000   0.000000   0.000000   0.000000
     2  C    0.000000   3.986709   0.000000   0.000000   0.000000   0.000000
     3  C    0.000000   0.000000   3.992526   0.000000   0.000000   0.000000
     4  O    0.000000   0.000000   0.000000   6.495359   0.000000   0.000000
     5  C    0.000000   0.000000   0.000000   0.000000   3.670743   0.000000
     6  C    0.000000   0.000000   0.000000   0.000000   0.000000   3.992519
     7  O    0.000000   0.000000   0.000000   0.000000   0.000000   0.000000
     8  C    0.000000   0.000000   0.000000   0.000000   0.000000   0.000000
     9  C    0.000000   0.000000   0.000000   0.000000   0.000000   0.000000
    10  C    0.000000   0.000000   0.000000   0.000000   0.000000   0.000000
    11  C    0.000000   0.000000   0.000000   0.000000   0.000000   0.000000
    12  C    0.000000   0.000000   0.000000   0.000000   0.000000   0.000000
    13  C    0.000000   0.000000   0.000000   0.000000   0.000000   0.000000
    14  C    0.000000   0.000000   0.000000   0.000000   0.000000   0.000000
    15  C    0.000000   0.000000   0.000000   0.000000   0.000000   0.000000
    16  C    0.000000   0.000000   0.000000   0.000000   0.000000   0.000000
    17  H    0.000000   0.000000   0.000000   0.000000   0.000000   0.000000
    18  H    0.000000   0.000000   0.000000   0.000000   0.000000   0.000000
    19  H    0.000000   0.000000   0.000000   0.000000   0.000000   0.000000
    20  H    0.000000   0.000000   0.000000   0.000000   0.000000   0.000000
    21  H    0.000000   0.000000   0.000000   0.000000   0.000000   0.000000
    22  H    0.000000   0.000000   0.000000   0.000000   0.000000   0.000000
    23  O    0.000000   0.000000   0.000000   0.000000   0.000000   0.000000
    24  H    0.000000   0.000000   0.000000   0.000000   0.000000   0.000000
    25  O    0.000000   0.000000   0.000000   0.000000   0.000000   0.000000
    26  H    0.000000   0.000000   0.000000   0.000000   0.000000   0.000000
               7          8          9         10         11         12
     1  C    0.000000   0.000000   0.000000   0.000000   0.000000   0.000000
     2  C    0.000000   0.000000   0.000000   0.000000   0.000000   0.000000
     3  C    0.000000   0.000000   0.000000   0.000000   0.000000   0.000000
     4  O    0.000000   0.000000   0.000000   0.000000   0.000000   0.000000
     5  C    0.000000   0.000000   0.000000   0.000000   0.000000   0.000000
     6  C    0.000000   0.000000   0.000000   0.000000   0.000000   0.000000
     7  O    6.495369   0.000000   0.000000   0.000000   0.000000   0.000000
     8  C    0.000000   3.986726   0.000000   0.000000   0.000000   0.000000
     9  C    0.000000   0.000000   4.001766   0.000000   0.000000   0.000000
    10  C    0.000000   0.000000   0.000000   3.842253   0.000000   0.000000
    11  C    0.000000   0.000000   0.000000   0.000000   4.001744   0.000000
    12  C    0.000000   0.000000   0.000000   0.000000   0.000000   3.842254
    13  C    0.000000   0.000000   0.000000   0.000000   0.000000   0.000000
    14  C    0.000000   0.000000   0.000000   0.000000   0.000000   0.000000
    15  C    0.000000   0.000000   0.000000   0.000000   0.000000   0.000000
    16  C    0.000000   0.000000   0.000000   0.000000   0.000000   0.000000
    17  H    0.000000   0.000000   0.000000   0.000000   0.000000   0.000000
    18  H    0.000000   0.000000   0.000000   0.000000   0.000000   0.000000
    19  H    0.000000   0.000000   0.000000   0.000000   0.000000   0.000000
    20  H    0.000000   0.000000   0.000000   0.000000   0.000000   0.000000
    21  H    0.000000   0.000000   0.000000   0.000000   0.000000   0.000000
    22  H    0.000000   0.000000   0.000000   0.000000   0.000000   0.000000
    23  O    0.000000   0.000000   0.000000   0.000000   0.000000   0.000000
    24  H    0.000000   0.000000   0.000000   0.000000   0.000000   0.000000
    25  O    0.000000   0.000000   0.000000   0.000000   0.000000   0.000000
    26  H    0.000000   0.000000   0.000000   0.000000   0.000000   0.000000
              13         14         15         16         17         18
     1  C    0.000000   0.000000   0.000000   0.000000   0.000000   0.000000
     2  C    0.000000   0.000000   0.000000   0.000000   0.000000   0.000000
     3  C    0.000000   0.000000   0.000000   0.000000   0.000000   0.000000
     4  O    0.000000   0.000000   0.000000   0.000000   0.000000   0.000000
     5  C    0.000000   0.000000   0.000000   0.000000   0.000000   0.000000
     6  C    0.000000   0.000000   0.000000   0.000000   0.000000   0.000000
     7  O    0.000000   0.000000   0.000000   0.000000   0.000000   0.000000
     8  C    0.000000   0.000000   0.000000   0.000000   0.000000   0.000000
     9  C    0.000000   0.000000   0.000000   0.000000   0.000000   0.000000
    10  C    0.000000   0.000000   0.000000   0.000000   0.000000   0.000000
    11  C    0.000000   0.000000   0.000000   0.000000   0.000000   0.000000
    12  C    0.000000   0.000000   0.000000   0.000000   0.000000   0.000000
    13  C    4.017100   0.000000   0.000000   0.000000   0.000000   0.000000
    14  C    0.000000   4.017115   0.000000   0.000000   0.000000   0.000000
    15  C    0.000000   0.000000   4.029626   0.000000   0.000000   0.000000
    16  C    0.000000   0.000000   0.000000   4.029621   0.000000   0.000000
    17  H    0.000000   0.000000   0.000000   0.000000   0.945753   0.000000
    18  H    0.000000   0.000000   0.000000   0.000000   0.000000   0.945743
    19  H    0.000000   0.000000   0.000000   0.000000   0.000000   0.000000
    20  H    0.000000   0.000000   0.000000   0.000000   0.000000   0.000000
    21  H    0.000000   0.000000   0.000000   0.000000   0.000000   0.000000
    22  H    0.000000   0.000000   0.000000   0.000000   0.000000   0.000000
    23  O    0.000000   0.000000   0.000000   0.000000   0.000000   0.000000
    24  H    0.000000   0.000000   0.000000   0.000000   0.000000   0.000000
    25  O    0.000000   0.000000   0.000000   0.000000   0.000000   0.000000
    26  H    0.000000   0.000000   0.000000   0.000000   0.000000   0.000000
              19         20         21         22         23         24
     1  C    0.000000   0.000000   0.000000   0.000000   0.000000   0.000000
     2  C    0.000000   0.000000   0.000000   0.000000   0.000000   0.000000
     3  C    0.000000   0.000000   0.000000   0.000000   0.000000   0.000000
     4  O    0.000000   0.000000   0.000000   0.000000   0.000000   0.000000
     5  C    0.000000   0.000000   0.000000   0.000000   0.000000   0.000000
     6  C    0.000000   0.000000   0.000000   0.000000   0.000000   0.000000
     7  O    0.000000   0.000000   0.000000   0.000000   0.000000   0.000000
     8  C    0.000000   0.000000   0.000000   0.000000   0.000000   0.000000
     9  C    0.000000   0.000000   0.000000   0.000000   0.000000   0.000000
    10  C    0.000000   0.000000   0.000000   0.000000   0.000000   0.000000
    11  C    0.000000   0.000000   0.000000   0.000000   0.000000   0.000000
    12  C    0.000000   0.000000   0.000000   0.000000   0.000000   0.000000
    13  C    0.000000   0.000000   0.000000   0.000000   0.000000   0.000000
    14  C    0.000000   0.000000   0.000000   0.000000   0.000000   0.000000
    15  C    0.000000   0.000000   0.000000   0.000000   0.000000   0.000000
    16  C    0.000000   0.000000   0.000000   0.000000   0.000000   0.000000
    17  H    0.000000   0.000000   0.000000   0.000000   0.000000   0.000000
    18  H    0.000000   0.000000   0.000000   0.000000   0.000000   0.000000
    19  H    0.961281   0.000000   0.000000   0.000000   0.000000   0.000000
    20  H    0.000000   0.961281   0.000000   0.000000   0.000000   0.000000
    21  H    0.000000   0.000000   0.957134   0.000000   0.000000   0.000000
    22  H    0.000000   0.000000   0.000000   0.957137   0.000000   0.000000
    23  O    0.000000   0.000000   0.000000   0.000000   6.318389   0.000000
    24  H    0.000000   0.000000   0.000000   0.000000   0.000000   0.781362
    25  O    0.000000   0.000000   0.000000   0.000000   0.000000   0.000000
    26  H    0.000000   0.000000   0.000000   0.000000   0.000000   0.000000
              25         26
     1  C    0.000000   0.000000
     2  C    0.000000   0.000000
     3  C    0.000000   0.000000
     4  O    0.000000   0.000000
     5  C    0.000000   0.000000
     6  C    0.000000   0.000000
     7  O    0.000000   0.000000
     8  C    0.000000   0.000000
     9  C    0.000000   0.000000
    10  C    0.000000   0.000000
    11  C    0.000000   0.000000
    12  C    0.000000   0.000000
    13  C    0.000000   0.000000
    14  C    0.000000   0.000000
    15  C    0.000000   0.000000
    16  C    0.000000   0.000000
    17  H    0.000000   0.000000
    18  H    0.000000   0.000000
    19  H    0.000000   0.000000
    20  H    0.000000   0.000000
    21  H    0.000000   0.000000
    22  H    0.000000   0.000000
    23  O    0.000000   0.000000
    24  H    0.000000   0.000000
    25  O    6.318401   0.000000
    26  H    0.000000   0.781356
 Mulliken charges:
               1
     1  C    0.329269
     2  C    0.013291
     3  C    0.007474
     4  O   -0.495359
     5  C    0.329257
     6  C    0.007481
     7  O   -0.495369
     8  C    0.013274
     9  C   -0.001766
    10  C    0.157747
    11  C   -0.001744
    12  C    0.157746
    13  C   -0.017100
    14  C   -0.017115
    15  C   -0.029626
    16  C   -0.029621
    17  H    0.054247
    18  H    0.054257
    19  H    0.038719
    20  H    0.038719
    21  H    0.042866
    22  H    0.042863
    23  O   -0.318389
    24  H    0.218638
    25  O   -0.318401
    26  H    0.218644
 Sum of Mulliken charges =  -0.00000
 Mulliken charges with hydrogens summed into heavy atoms:
               1
     1  C    0.329269
     2  C    0.013291
     3  C    0.007474
     4  O   -0.495359
     5  C    0.329257
     6  C    0.007481
     7  O   -0.495369
     8  C    0.013274
     9  C    0.052482
    10  C    0.157747
    11  C    0.052512
    12  C    0.157746
    13  C    0.021619
    14  C    0.021604
    15  C    0.013237
    16  C    0.013244
    23  O   -0.099752
    25  O   -0.099757
 Charge=             -0.0000 electrons
 Dipole moment (field-independent basis, Debye):
    X=              3.9622    Y=              0.0000    Z=             -3.3966  Tot=              5.2188
 N-N= 4.740863495818D+02 E-N= 0.000000000000D+00  KE=-1.142818754264D+03
 Orbital energies and kinetic energies (alpha):
                                 1                 2
   1         O                -1.743860        -14.307830
   2         O                -1.661125        -13.915602
   3         O                -1.656802        -13.768606
   4         O                -1.552036        -14.088203
   5         O                -1.538076        -13.716053
   6         O                -1.502259        -13.874102
   7         O                -1.353657        -13.840863
   8         O                -1.228062        -13.028449
   9         O                -1.218614        -13.222883
  10         O                -1.088894        -13.759248
  11         O                -1.055433        -12.874609
  12         O                -0.999383        -12.887703
  13         O                -0.992971        -13.069022
  14         O                -0.913941        -12.663933
  15         O                -0.874776        -12.864214
  16         O                -0.850391        -12.995142
  17         O                -0.792712        -12.918050
  18         O                -0.721386        -12.813029
  19         O                -0.697345        -12.684175
  20         O                -0.675361        -12.821717
  21         O                -0.664671        -12.846366
  22         O                -0.636604        -12.404461
  23         O                -0.607825        -12.760790
  24         O                -0.594516        -12.331889
  25         O                -0.594331        -13.129136
  26         O                -0.576991        -12.996841
  27         O                -0.568812        -12.806156
  28         O                -0.558961        -12.640799
  29         O                -0.537839        -12.847601
  30         O                -0.527618        -12.786995
  31         O                -0.518870        -12.788898
  32         O                -0.495338        -12.492946
  33         O                -0.493570        -12.202385
  34         O                -0.481629        -13.222879
  35         O                -0.472769        -12.296211
  36         O                -0.468458        -12.495205
  37         O                -0.464556        -12.625489
  38         O                -0.434534        -12.619561
  39         O                -0.367942        -13.120825
  40         O                -0.361245        -13.089211
  41         O                -0.358853        -12.988047
  42         O                -0.347249        -12.325466
  43         O                -0.343917        -12.575856
  44         O                -0.318489        -12.901930
  45         V                -0.056034        -12.947597
  46         V                -0.012585        -12.602651
  47         V                 0.003484        -12.543626
  48         V                 0.010894        -12.420509
  49         V                 0.047581        -13.076449
  50         V                 0.049910        -12.275236
  51         V                 0.058603        -12.881506
  52         V                 0.085056        -12.200961
  53         V                 0.089877        -12.516145
  54         V                 0.094915        -12.864193
  55         V                 0.105498        -11.958034
  56         V                 0.108921        -12.573997
  57         V                 0.117820        -11.846099
  58         V                 0.121571        -12.455890
  59         V                 0.134529        -11.902236
  60         V                 0.180270        -11.199661
  61         V                 0.184563        -10.421164
  62         V                 0.184962        -11.755181
  63         V                 0.207051        -11.827562
  64         V                 0.228972        -12.242640
  65         V                 0.239968        -11.435705
  66         V                 0.245482        -11.607913
  67         V                 0.263036        -12.431187
  68         V                 0.299812        -10.785217
  69         V                 0.311769        -11.704575
  70         V                 0.314588        -11.571049
  71         V                 0.368018        -11.829891
  72         V                 0.378702        -12.037036
  73         V                 0.400426        -12.024423
  74         V                 0.406494        -12.681122
  75         V                 0.422105        -12.485717
  76         V                 0.443664        -11.504276
  77         V                 0.459568        -12.110886
  78         V                 0.464066        -12.703612
  79         V                 0.479453        -12.374579
  80         V                 0.504234        -12.724653
 Total kinetic energy from orbitals=-1.142818754264D+03
 1\1\GINC-GTX1080DELTA\SP\RZINDO\STO-3G\C14H8O4\MVEROT\12-Apr-2022\0\\#
 n ZINDO(NSTATE=10) pop=full gfinput\\UV-spectra\\0,1\C,0,0.0273753787,
 1.4946593503,0.3567088407\C,0,1.2711573319,0.7209576414,0.1470305337\C
 ,0,-1.235066398,0.7461473874,0.1654161441\O,0,0.0517269232,2.690514521
 6,0.6669988345\C,0,0.001186366,-1.4105386161,0.4856215565\C,0,-1.24773
 24013,-0.6593124828,0.2276279189\O,0,0.0041093714,-2.5745717911,0.9003
 153883\C,0,1.2585805403,-0.6809296514,0.2096248721\C,0,2.4710776978,1.
 3948548673,-0.1013922278\C,0,-2.4621666457,-1.3455206163,0.0422652156\
 C,0,2.4461198621,-1.3956368764,0.0235795857\C,0,-2.4371812175,1.435011
 6457,-0.0805660086\C,0,3.6498762251,0.6749382117,-0.2993827185\C,0,3.6
 374477778,-0.7174501701,-0.236902704\C,0,-3.6471396739,0.737468935,-0.
 2563163491\C,0,-3.659560469,-0.6446054557,-0.1952963512\H,0,2.47225507
 6,2.4966852962,-0.1329370796\H,0,2.4275871056,-2.4957238765,0.09062084
 91\H,0,4.5899213634,1.2105501239,-0.5005145786\H,0,4.5676878038,-1.285
 5713615,-0.3882569094\H,0,-4.6002964895,-1.1988684077,-0.3312342217\H,
 0,-4.5779036873,1.2943848796,-0.4412472219\O,0,-2.3743258608,2.8040584
 703,-0.1610635839\H,0,-3.2759820288,3.1383734538,-0.2833791681\O,0,-2.
 4238882026,-2.7172540793,0.0825479484\H,0,-3.3316257485,-3.0448213994,
 -0.0091785652\\Version=AM64L-G09RevD.01\State=1-A\HF=-132.2356966\RMSD
 =2.776e-09\PG=C01 [X(C14H8O4)]\\@


 MUD THROWN IS GROUND LOST -- FROM A TEA BAG
 Job cpu time:       0 days  0 hours  0 minutes  1.2 seconds.
 File lengths (MBytes):  RWF=    127 Int=      0 D2E=      0 Chk=      5 Scr=      2
 Normal termination of Gaussian 09 at Tue Apr 12 00:35:50 2022.
