 Entering Gaussian System, Link 0=g09
 Input=/scratch/mverot/1-3-propanediol-redundant-opt/1-3-propanediol-redundant-opt.com
 Output=/scratch/mverot/1-3-propanediol-redundant-opt/1-3-propanediol-redundant-opt.log
 Initial command:
 /opt/g09/l1.exe "/scratch/mverot/1-3-propanediol-redundant-opt/Gau-1496172.inp" -scrdir="/scratch/mverot/1-3-propanediol-redundant-opt/"
 Entering Link 1 = /opt/g09/l1.exe PID=   1496174.
  
 Copyright (c) 1988,1990,1992,1993,1995,1998,2003,2009,2013,
            Gaussian, Inc.  All Rights Reserved.
  
 This is part of the Gaussian(R) 09 program.  It is based on
 the Gaussian(R) 03 system (copyright 2003, Gaussian, Inc.),
 the Gaussian(R) 98 system (copyright 1998, Gaussian, Inc.),
 the Gaussian(R) 94 system (copyright 1995, Gaussian, Inc.),
 the Gaussian 92(TM) system (copyright 1992, Gaussian, Inc.),
 the Gaussian 90(TM) system (copyright 1990, Gaussian, Inc.),
 the Gaussian 88(TM) system (copyright 1988, Gaussian, Inc.),
 the Gaussian 86(TM) system (copyright 1986, Carnegie Mellon
 University), and the Gaussian 82(TM) system (copyright 1983,
 Carnegie Mellon University). Gaussian is a federally registered
 trademark of Gaussian, Inc.
  
 This software contains proprietary and confidential information,
 including trade secrets, belonging to Gaussian, Inc.
  
 This software is provided under written license and may be
 used, copied, transmitted, or stored only in accord with that
 written license.
  
 The following legend is applicable only to US Government
 contracts under FAR:
  
                    RESTRICTED RIGHTS LEGEND
  
 Use, reproduction and disclosure by the US Government is
 subject to restrictions as set forth in subparagraphs (a)
 and (c) of the Commercial Computer Software - Restricted
 Rights clause in FAR 52.227-19.
  
 Gaussian, Inc.
 340 Quinnipiac St., Bldg. 40, Wallingford CT 06492
  
  
 ---------------------------------------------------------------
 Warning -- This program may not be used in any manner that
 competes with the business of Gaussian, Inc. or will provide
 assistance to any competitor of Gaussian, Inc.  The licensee
 of this program is prohibited from giving any competitor of
 Gaussian, Inc. access to this program.  By using this program,
 the user acknowledges that Gaussian, Inc. is engaged in the
 business of creating and licensing software in the field of
 computational chemistry and represents and warrants to the
 licensee that it is not a competitor of Gaussian, Inc. and that
 it will not use this program in any manner prohibited above.
 ---------------------------------------------------------------
  

 Cite this work as:
 Gaussian 09, Revision D.01,
 M. J. Frisch, G. W. Trucks, H. B. Schlegel, G. E. Scuseria, 
 M. A. Robb, J. R. Cheeseman, G. Scalmani, V. Barone, B. Mennucci, 
 G. A. Petersson, H. Nakatsuji, M. Caricato, X. Li, H. P. Hratchian, 
 A. F. Izmaylov, J. Bloino, G. Zheng, J. L. Sonnenberg, M. Hada, 
 M. Ehara, K. Toyota, R. Fukuda, J. Hasegawa, M. Ishida, T. Nakajima, 
 Y. Honda, O. Kitao, H. Nakai, T. Vreven, J. A. Montgomery, Jr., 
 J. E. Peralta, F. Ogliaro, M. Bearpark, J. J. Heyd, E. Brothers, 
 K. N. Kudin, V. N. Staroverov, T. Keith, R. Kobayashi, J. Normand, 
 K. Raghavachari, A. Rendell, J. C. Burant, S. S. Iyengar, J. Tomasi, 
 M. Cossi, N. Rega, J. M. Millam, M. Klene, J. E. Knox, J. B. Cross, 
 V. Bakken, C. Adamo, J. Jaramillo, R. Gomperts, R. E. Stratmann, 
 O. Yazyev, A. J. Austin, R. Cammi, C. Pomelli, J. W. Ochterski, 
 R. L. Martin, K. Morokuma, V. G. Zakrzewski, G. A. Voth, 
 P. Salvador, J. J. Dannenberg, S. Dapprich, A. D. Daniels, 
 O. Farkas, J. B. Foresman, J. V. Ortiz, J. Cioslowski, 
 and D. J. Fox, Gaussian, Inc., Wallingford CT, 2013.
 
 ******************************************
 Gaussian 09:  AM64L-G09RevD.01 24-Apr-2013
                18-Apr-2022 
 ******************************************
 %chk=1-3-propanediol-opt
 ----------------------------
 # hf/6-31G* Opt=modredundant
 ----------------------------
 1/18=120,19=15,38=1/1,3;
 2/9=110,12=2,17=6,18=5,40=1/2;
 3/5=1,6=6,7=1,11=9,16=1,25=1,30=1,71=1/1,2,3;
 4//1;
 5/5=2,38=5/2;
 6/7=2,8=2,9=2,10=2,28=1/1;
 7//1,2,3,16;
 1/18=20,19=15/3(2);
 2/9=110/2;
 99//99;
 2/9=110/2;
 3/5=1,6=6,7=1,11=9,16=1,25=1,30=1,71=1/1,2,3;
 4/5=5,16=3,69=1/1;
 5/5=2,38=5/2;
 7//1,2,3,16;
 1/18=20,19=15/3(-5);
 2/9=110/2;
 6/7=2,8=2,9=2,10=2,19=2,28=1/1;
 99/9=1/99;
 -------------------------
 Optimisation de geometrie
 -------------------------
 Symbolic Z-matrix:
 Charge =  0 Multiplicity = 1
 C                     1.0003    2.0505    1.2298 
 O                     1.6167    3.2158    0.6619 
 C                     1.9842    0.8895    1.1354 
 C                     3.2981    1.1469    1.8851 
 O                     4.1136    2.1208    1.2591 
 H                     0.0703    1.8109    0.6924 
 H                     0.7421    2.2317    2.2855 
 H                     1.0489    3.9812    0.8361 
 H                     2.2102    0.6867    0.0812 
 H                     1.4929   -0.0037    1.5453 
 H                     3.8898    0.225     1.9226 
 H                     3.0683    1.4232    2.9315 
 H                     3.5208    2.8609    1.0374 
 
 The following ModRedundant input section has been read:
 D       2       1       3       4 S  36 10.000                                
 

 GradGradGradGradGradGradGradGradGradGradGradGradGradGradGradGradGradGrad
 Berny optimization.
 Initialization pass.
                           ----------------------------
                           !    Initial Parameters    !
                           ! (Angstroms and Degrees)  !
 --------------------------                            --------------------------
 ! Name  Definition              Value          Derivative Info.                !
 --------------------------------------------------------------------------------
 ! R1    R(1,2)                  1.4354         estimate D2E/DX2                !
 ! R2    R(1,3)                  1.5248         estimate D2E/DX2                !
 ! R3    R(1,6)                  1.1005         estimate D2E/DX2                !
 ! R4    R(1,7)                  1.1018         estimate D2E/DX2                !
 ! R5    R(2,8)                  0.9688         estimate D2E/DX2                !
 ! R6    R(3,4)                  1.5345         estimate D2E/DX2                !
 ! R7    R(3,9)                  1.0971         estimate D2E/DX2                !
 ! R8    R(3,10)                 1.0987         estimate D2E/DX2                !
 ! R9    R(4,5)                  1.4161         estimate D2E/DX2                !
 ! R10   R(4,11)                 1.0961         estimate D2E/DX2                !
 ! R11   R(4,12)                 1.1064         estimate D2E/DX2                !
 ! R12   R(5,13)                 0.9738         estimate D2E/DX2                !
 ! A1    A(2,1,3)              108.4547         estimate D2E/DX2                !
 ! A2    A(2,1,6)              110.2701         estimate D2E/DX2                !
 ! A3    A(2,1,7)              110.2551         estimate D2E/DX2                !
 ! A4    A(3,1,6)              110.4443         estimate D2E/DX2                !
 ! A5    A(3,1,7)              109.6186         estimate D2E/DX2                !
 ! A6    A(6,1,7)              107.7975         estimate D2E/DX2                !
 ! A7    A(1,2,8)              108.576          estimate D2E/DX2                !
 ! A8    A(1,3,4)              113.2378         estimate D2E/DX2                !
 ! A9    A(1,3,9)              109.4619         estimate D2E/DX2                !
 ! A10   A(1,3,10)             107.9003         estimate D2E/DX2                !
 ! A11   A(4,3,9)              108.9109         estimate D2E/DX2                !
 ! A12   A(4,3,10)             109.6925         estimate D2E/DX2                !
 ! A13   A(9,3,10)             107.4775         estimate D2E/DX2                !
 ! A14   A(3,4,5)              113.1086         estimate D2E/DX2                !
 ! A15   A(3,4,11)             109.7463         estimate D2E/DX2                !
 ! A16   A(3,4,12)             109.0336         estimate D2E/DX2                !
 ! A17   A(5,4,11)             106.4205         estimate D2E/DX2                !
 ! A18   A(5,4,12)             111.4659         estimate D2E/DX2                !
 ! A19   A(11,4,12)            106.8466         estimate D2E/DX2                !
 ! A20   A(4,5,13)             105.8283         estimate D2E/DX2                !
 ! D1    D(3,1,2,8)           -171.8373         estimate D2E/DX2                !
 ! D2    D(6,1,2,8)             67.1123         estimate D2E/DX2                !
 ! D3    D(7,1,2,8)            -51.8083         estimate D2E/DX2                !
 ! D4    D(2,1,3,4)             60.0254         Scan                            !
 ! D5    D(2,1,3,9)            -61.6978         estimate D2E/DX2                !
 ! D6    D(2,1,3,10)          -178.3692         estimate D2E/DX2                !
 ! D7    D(6,1,3,4)           -179.0318         estimate D2E/DX2                !
 ! D8    D(6,1,3,9)             59.2449         estimate D2E/DX2                !
 ! D9    D(6,1,3,10)           -57.4264         estimate D2E/DX2                !
 ! D10   D(7,1,3,4)            -60.3999         estimate D2E/DX2                !
 ! D11   D(7,1,3,9)            177.8768         estimate D2E/DX2                !
 ! D12   D(7,1,3,10)            61.2055         estimate D2E/DX2                !
 ! D13   D(1,3,4,5)            -70.6852         estimate D2E/DX2                !
 ! D14   D(1,3,4,11)           170.6476         estimate D2E/DX2                !
 ! D15   D(1,3,4,12)            53.9321         estimate D2E/DX2                !
 ! D16   D(9,3,4,5)             51.3464         estimate D2E/DX2                !
 ! D17   D(9,3,4,11)           -67.3209         estimate D2E/DX2                !
 ! D18   D(9,3,4,12)           175.9636         estimate D2E/DX2                !
 ! D19   D(10,3,4,5)           168.7207         estimate D2E/DX2                !
 ! D20   D(10,3,4,11)           50.0534         estimate D2E/DX2                !
 ! D21   D(10,3,4,12)          -66.6621         estimate D2E/DX2                !
 ! D22   D(3,4,5,13)            46.2397         estimate D2E/DX2                !
 ! D23   D(11,4,5,13)          166.8172         estimate D2E/DX2                !
 ! D24   D(12,4,5,13)          -77.0447         estimate D2E/DX2                !
 --------------------------------------------------------------------------------
 Trust Radius=3.00D-01 FncErr=1.00D-07 GrdErr=1.00D-07
 Number of optimizations in scan=  37
 Number of steps in this run=     66 maximum allowed number of steps=    100.
 GradGradGradGradGradGradGradGradGradGradGradGradGradGradGradGradGradGrad

                          Input orientation:                          
 ---------------------------------------------------------------------
 Center     Atomic      Atomic             Coordinates (Angstroms)
 Number     Number       Type             X           Y           Z
 ---------------------------------------------------------------------
      1          6           0        1.000300    2.050500    1.229800
      2          8           0        1.616700    3.215800    0.661900
      3          6           0        1.984200    0.889500    1.135400
      4          6           0        3.298100    1.146900    1.885100
      5          8           0        4.113600    2.120800    1.259100
      6          1           0        0.070300    1.810900    0.692400
      7          1           0        0.742100    2.231700    2.285500
      8          1           0        1.048900    3.981200    0.836100
      9          1           0        2.210200    0.686700    0.081200
     10          1           0        1.492900   -0.003700    1.545300
     11          1           0        3.889800    0.225000    1.922600
     12          1           0        3.068300    1.423200    2.931500
     13          1           0        3.520800    2.860900    1.037400
 ---------------------------------------------------------------------
                    Distance matrix (angstroms):
                    1          2          3          4          5
     1  C    0.000000
     2  O    1.435404   0.000000
     3  C    1.524760   2.402276   0.000000
     4  C    2.554564   2.933202   1.534483   0.000000
     5  O    3.114231   2.791090   2.462873   1.416121   0.000000
     6  H    1.100503   2.089504   2.169848   3.504586   4.094565
     7  H    1.101818   2.090324   2.160334   2.805396   3.526019
     8  H    1.971031   0.968803   3.243914   3.767301   3.610042
     9  H    2.154783   2.661917   1.097060   2.156239   2.658387
    10  H    2.135868   3.340794   1.098727   2.167508   3.385776
    11  H    3.487353   3.962478   2.166231   1.096091   2.020984
    12  H    2.750620   3.235992   2.164736   1.106392   2.091942
    13  H    2.654560   1.972955   2.501432   1.925094   0.973812
                    6          7          8          9         10
     6  H    0.000000
     7  H    1.779426   0.000000
     8  H    2.385060   2.292518   0.000000
     9  H    2.493304   3.066151   3.573825   0.000000
    10  H    2.458455   2.471560   4.071797   1.770525   0.000000
    11  H    4.314748   3.750541   4.833243   2.534754   2.437168
    12  H    3.761899   2.546015   3.874538   3.066428   2.537613
    13  H    3.623186   3.110437   2.721375   2.712773   3.546304
                   11         12         13
    11  H    0.000000
    12  H    1.768735   0.000000
    13  H    2.804944   2.420610   0.000000
 Stoichiometry    C3H8O2
 Framework group  C1[X(C3H8O2)]
 Deg. of freedom    33
 Full point group                 C1      NOp   1
 Largest Abelian subgroup         C1      NOp   1
 Largest concise Abelian subgroup C1      NOp   1
                         Standard orientation:                         
 ---------------------------------------------------------------------
 Center     Atomic      Atomic             Coordinates (Angstroms)
 Number     Number       Type             X           Y           Z
 ---------------------------------------------------------------------
      1          6           0        1.279122    0.476932    0.183540
      2          8           0        1.313242   -0.929184   -0.102915
      3          6           0       -0.033396    1.045416   -0.344677
      4          6           0       -1.272035    0.399497    0.290304
      5          8           0       -1.477722   -0.937696   -0.128032
      6          1           0        2.134825    0.983046   -0.288400
      7          1           0        1.345017    0.646545    1.270229
      8          1           0        2.081408   -1.316380    0.342709
      9          1           0       -0.079373    0.909092   -1.432263
     10          1           0       -0.037080    2.126234   -0.147141
     11          1           0       -2.170198    0.956633   -0.000073
     12          1           0       -1.192079    0.471487    1.391452
     13          1           0       -0.608824   -1.372689   -0.063945
 ---------------------------------------------------------------------
 Rotational constants (GHZ):      7.6403067      3.9465992      2.8720686
 Standard basis: 6-31G(d) (6D, 7F)
 There are    91 symmetry adapted cartesian basis functions of A   symmetry.
 There are    91 symmetry adapted basis functions of A   symmetry.
    91 basis functions,   172 primitive gaussians,    91 cartesian basis functions
    21 alpha electrons       21 beta electrons
       nuclear repulsion energy       194.4496110723 Hartrees.
 NAtoms=   13 NActive=   13 NUniq=   13 SFac= 1.00D+00 NAtFMM=   60 NAOKFM=F Big=F
 Integral buffers will be    131072 words long.
 Raffenetti 1 integral format.
 Two-electron integral symmetry is turned on.
 One-electron integrals computed using PRISM.
 NBasis=    91 RedAO= T EigKep=  5.15D-03  NBF=    91
 NBsUse=    91 1.00D-06 EigRej= -1.00D+00 NBFU=    91
 ExpMin= 1.61D-01 ExpMax= 5.48D+03 ExpMxC= 8.25D+02 IAcc=1 IRadAn=         1 AccDes= 0.00D+00
 Harris functional with IExCor=  205 and IRadAn=       1 diagonalized for initial guess.
 HarFok:  IExCor=  205 AccDes= 0.00D+00 IRadAn=         1 IDoV= 1 UseB2=F ITyADJ=14
 ICtDFT=  3500011 ScaDFX=  1.000000  1.000000  1.000000  1.000000
 FoFCou: FMM=F IPFlag=           0 FMFlag=      100000 FMFlg1=           0
         NFxFlg=           0 DoJE=T BraDBF=F KetDBF=T FulRan=T
         wScrn=  0.000000 ICntrl=     500 IOpCl=  0 I1Cent=   200000004 NGrid=           0
         NMat0=    1 NMatS0=      1 NMatT0=    0 NMatD0=    1 NMtDS0=    0 NMtDT0=    0
 Petite list used in FoFCou.
 Keep R1 ints in memory in canonical form, NReq=9680935.
 Requested convergence on RMS density matrix=1.00D-08 within 128 cycles.
 Requested convergence on MAX density matrix=1.00D-06.
 Requested convergence on             energy=1.00D-06.
 No special actions if energy rises.
 SCF Done:  E(RHF) =  -267.958198111     A.U. after   12 cycles
            NFock= 12  Conv=0.57D-08     -V/T= 2.0025

 **********************************************************************

            Population analysis using the SCF density.

 **********************************************************************

 Orbital symmetries:
       Occupied  (A) (A) (A) (A) (A) (A) (A) (A) (A) (A) (A) (A)
                 (A) (A) (A) (A) (A) (A) (A) (A) (A)
       Virtual   (A) (A) (A) (A) (A) (A) (A) (A) (A) (A) (A) (A)
                 (A) (A) (A) (A) (A) (A) (A) (A) (A) (A) (A) (A)
                 (A) (A) (A) (A) (A) (A) (A) (A) (A) (A) (A) (A)
                 (A) (A) (A) (A) (A) (A) (A) (A) (A) (A) (A) (A)
                 (A) (A) (A) (A) (A) (A) (A) (A) (A) (A) (A) (A)
                 (A) (A) (A) (A) (A) (A) (A) (A) (A) (A)
 The electronic state is 1-A.
 Alpha  occ. eigenvalues --  -20.58270 -20.53352 -11.29189 -11.26746 -11.22780
 Alpha  occ. eigenvalues --   -1.37329  -1.33023  -1.04577  -0.90897  -0.80723
 Alpha  occ. eigenvalues --   -0.71809  -0.68487  -0.62315  -0.59670  -0.59473
 Alpha  occ. eigenvalues --   -0.56140  -0.52465  -0.51075  -0.47235  -0.44347
 Alpha  occ. eigenvalues --   -0.41804
 Alpha virt. eigenvalues --    0.20353   0.25020   0.28364   0.29309   0.31101
 Alpha virt. eigenvalues --    0.31500   0.32865   0.34655   0.37896   0.39376
 Alpha virt. eigenvalues --    0.44779   0.45698   0.73291   0.73710   0.78394
 Alpha virt. eigenvalues --    0.79941   0.81956   0.89531   0.92336   0.95512
 Alpha virt. eigenvalues --    1.06061   1.08349   1.09045   1.10395   1.11639
 Alpha virt. eigenvalues --    1.15161   1.16822   1.19173   1.19949   1.21999
 Alpha virt. eigenvalues --    1.23731   1.28198   1.35151   1.36951   1.45497
 Alpha virt. eigenvalues --    1.49635   1.57176   1.66047   1.68840   1.78256
 Alpha virt. eigenvalues --    1.83501   1.91058   1.95484   1.96779   2.05645
 Alpha virt. eigenvalues --    2.08121   2.15519   2.22208   2.24490   2.31000
 Alpha virt. eigenvalues --    2.34895   2.45244   2.47531   2.53284   2.61333
 Alpha virt. eigenvalues --    2.66496   2.71077   2.75904   2.77448   2.85509
 Alpha virt. eigenvalues --    2.87935   2.98737   3.02048   3.18880   3.22675
 Alpha virt. eigenvalues --    4.19418   4.24284   4.59973   4.77870   4.91502
          Condensed to atoms (all electrons):
               1          2          3          4          5          6
     1  C    4.827188   0.190286   0.346570  -0.049481  -0.000021   0.403841
     2  O    0.190286   8.424657  -0.056482   0.006132  -0.010841  -0.035882
     3  C    0.346570  -0.056482   5.196762   0.335966  -0.046424  -0.043251
     4  C   -0.049481   0.006132   0.335966   4.747619   0.232777   0.004644
     5  O   -0.000021  -0.010841  -0.046424   0.232777   8.413339  -0.000158
     6  H    0.403841  -0.035882  -0.043251   0.004644  -0.000158   0.561747
     7  H    0.393442  -0.037752  -0.041581  -0.006991   0.000087  -0.042261
     8  H   -0.020405   0.257559   0.005420  -0.000224   0.000374  -0.001939
     9  H   -0.040898   0.001420   0.389021  -0.038868   0.002334  -0.004263
    10  H   -0.041348   0.002710   0.380469  -0.032019   0.002904  -0.001287
    11  H    0.004587  -0.000088  -0.041049   0.410406  -0.038460  -0.000084
    12  H   -0.008019   0.000218  -0.056114   0.390483  -0.040109  -0.000092
    13  H   -0.000343   0.021232  -0.006898  -0.026038   0.254258   0.000252
               7          8          9         10         11         12
     1  C    0.393442  -0.020405  -0.040898  -0.041348   0.004587  -0.008019
     2  O   -0.037752   0.257559   0.001420   0.002710  -0.000088   0.000218
     3  C   -0.041581   0.005420   0.389021   0.380469  -0.041049  -0.056114
     4  C   -0.006991  -0.000224  -0.038868  -0.032019   0.410406   0.390483
     5  O    0.000087   0.000374   0.002334   0.002904  -0.038460  -0.040109
     6  H   -0.042261  -0.001939  -0.004263  -0.001287  -0.000084  -0.000092
     7  H    0.584020  -0.004357   0.004653  -0.000361  -0.000141   0.003779
     8  H   -0.004357   0.315601  -0.000150  -0.000153   0.000010  -0.000038
     9  H    0.004653  -0.000150   0.517822  -0.021313  -0.003767   0.005022
    10  H   -0.000361  -0.000153  -0.021313   0.550446  -0.002389   0.001970
    11  H   -0.000141   0.000010  -0.003767  -0.002389   0.542761  -0.041226
    12  H    0.003779  -0.000038   0.005022   0.001970  -0.041226   0.619613
    13  H    0.000172  -0.000275   0.000079  -0.000024   0.004563  -0.001659
              13
     1  C   -0.000343
     2  O    0.021232
     3  C   -0.006898
     4  C   -0.026038
     5  O    0.254258
     6  H    0.000252
     7  H    0.000172
     8  H   -0.000275
     9  H    0.000079
    10  H   -0.000024
    11  H    0.004563
    12  H   -0.001659
    13  H    0.274192
 Mulliken charges:
               1
     1  C   -0.005399
     2  O   -0.763171
     3  C   -0.362408
     4  C    0.025595
     5  O   -0.770060
     6  H    0.158733
     7  H    0.147291
     8  H    0.448578
     9  H    0.188908
    10  H    0.160395
    11  H    0.164878
    12  H    0.126172
    13  H    0.480489
 Sum of Mulliken charges =   0.00000
 Mulliken charges with hydrogens summed into heavy atoms:
               1
     1  C    0.300625
     2  O   -0.314593
     3  C   -0.013105
     4  C    0.316645
     5  O   -0.289571
 Electronic spatial extent (au):  <R**2>=            461.3875
 Charge=              0.0000 electrons
 Dipole moment (field-independent basis, Debye):
    X=              3.2742    Y=              1.6808    Z=              1.4511  Tot=              3.9561
 Quadrupole moment (field-independent basis, Debye-Ang):
   XX=            -30.9045   YY=            -30.5626   ZZ=            -31.8323
   XY=             -4.6553   XZ=              1.4276   YZ=             -1.5428
 Traceless Quadrupole moment (field-independent basis, Debye-Ang):
   XX=              0.1953   YY=              0.5372   ZZ=             -0.7325
   XY=             -4.6553   XZ=              1.4276   YZ=             -1.5428
 Octapole moment (field-independent basis, Debye-Ang**2):
  XXX=             20.7793  YYY=            -10.8193  ZZZ=             -0.1648  XYY=              6.5874
  XXY=             -0.6212  XXZ=              4.5385  XZZ=              1.3352  YZZ=             -2.2016
  YYZ=              1.6849  XYZ=             -2.0600
 Hexadecapole moment (field-independent basis, Debye-Ang**3):
 XXXX=           -304.4377 YYYY=           -167.2124 ZZZZ=            -61.4790 XXXY=            -31.7188
 XXXZ=              7.3724 YYYX=            -10.0385 YYYZ=             -0.7602 ZZZX=              1.8669
 ZZZY=             -0.3686 XXYY=            -79.6805 XXZZ=            -66.0697 YYZZ=            -41.4237
 XXYZ=             -6.8463 YYXZ=              3.4623 ZZXY=             -1.2943
 N-N= 1.944496110723D+02 E-N=-1.019068426920D+03  KE= 2.672868923352D+02
 Calling FoFJK, ICntrl=      2127 FMM=F ISym2X=0 I1Cent= 0 IOpClX= 0 NMat=1 NMatS=1 NMatT=0.
 ***** Axes restored to original set *****
 -------------------------------------------------------------------
 Center     Atomic                   Forces (Hartrees/Bohr)
 Number     Number              X              Y              Z
 -------------------------------------------------------------------
      1        6          -0.001090362    0.005534305   -0.001409842
      2        8          -0.024321933    0.005727555    0.012610875
      3        6           0.000779294   -0.003127180   -0.004417915
      4        6           0.007569672   -0.000780176    0.002946293
      5        8          -0.027715010    0.008301859    0.002839760
      6        1           0.008804720    0.003352838    0.004026736
      7        1           0.002539785    0.000039127   -0.009653054
      8        1           0.014213881   -0.017058207   -0.005390593
      9        1          -0.001920230    0.001572837    0.007588670
     10        1           0.004015130    0.006152527   -0.002289703
     11        1          -0.005043369    0.007809986   -0.000626039
     12        1           0.003537465   -0.000745692   -0.010114871
     13        1           0.018630957   -0.016779779    0.003889683
 -------------------------------------------------------------------
 Cartesian Forces:  Max     0.027715010 RMS     0.009411481

 GradGradGradGradGradGradGradGradGradGradGradGradGradGradGradGradGradGrad
 Berny optimization.
 FormGI is forming the generalized inverse of G from B-inverse, IUseBI=4.
 Internal  Forces:  Max     0.024979643 RMS     0.006414362
 Search for a local minimum.
 Step number   1 out of a maximum of   66 on scan point     1 out of    37
 All quantities printed in internal units (Hartrees-Bohrs-Radians)
 Mixed Optimization -- RFO/linear search
 Second derivative matrix not updated -- first step.
 ITU=  0
     Eigenvalues ---    0.00310   0.01223   0.01479   0.01719   0.04333
     Eigenvalues ---    0.04700   0.04853   0.05833   0.05910   0.08401
     Eigenvalues ---    0.11134   0.11531   0.11726   0.13531   0.14030
     Eigenvalues ---    0.16000   0.16000   0.21957   0.21979   0.22027
     Eigenvalues ---    0.29013   0.29913   0.32985   0.33482   0.33627
     Eigenvalues ---    0.33823   0.34009   0.34118   0.40223   0.43050
     Eigenvalues ---    0.52605   0.536221000.000001000.000001000.00000
     Eigenvalues --- 1000.000001000.000001000.000001000.000001000.00000
     Eigenvalues --- 1000.000001000.000001000.000001000.000001000.00000
     Eigenvalues --- 1000.000001000.000001000.000001000.000001000.00000
     Eigenvalues --- 1000.000001000.000001000.000001000.000001000.00000
     Eigenvalues --- 1000.00000
 RFO step:  Lambda=-6.04322693D-03 EMin= 3.09803529D-03
 Linear search not attempted -- first point.
 Iteration  1 RMS(Cart)=  0.05477549 RMS(Int)=  0.00159385
 Iteration  2 RMS(Cart)=  0.00180945 RMS(Int)=  0.00006487
 Iteration  3 RMS(Cart)=  0.00000358 RMS(Int)=  0.00006484
 Iteration  4 RMS(Cart)=  0.00000000 RMS(Int)=  0.00006484
 Iteration  1 RMS(Cart)=  0.00000936 RMS(Int)=  0.00000765
 Iteration  2 RMS(Cart)=  0.00000601 RMS(Int)=  0.00000849
 Iteration  3 RMS(Cart)=  0.00000387 RMS(Int)=  0.00000974
 Iteration  4 RMS(Cart)=  0.00000249 RMS(Int)=  0.00001074
 Iteration  5 RMS(Cart)=  0.00000160 RMS(Int)=  0.00001145
 Iteration  6 RMS(Cart)=  0.00000103 RMS(Int)=  0.00001192
 Iteration  7 RMS(Cart)=  0.00000066 RMS(Int)=  0.00001223
 Variable       Old X    -DE/DX   Delta X   Delta X   Delta X     New X
                                 (Linear)    (Quad)   (Total)
    R1        2.71252  -0.01640   0.00000  -0.04016  -0.04016   2.67236
    R2        2.88138  -0.00191   0.00000  -0.00627  -0.00627   2.87511
    R3        2.07965  -0.01014   0.00000  -0.02961  -0.02961   2.05004
    R4        2.08213  -0.00984   0.00000  -0.02886  -0.02886   2.05327
    R5        1.83077  -0.02278   0.00000  -0.04200  -0.04200   1.78877
    R6        2.89975  -0.00347   0.00000  -0.01173  -0.01173   2.88802
    R7        2.07314  -0.00798   0.00000  -0.02305  -0.02305   2.05009
    R8        2.07629  -0.00765   0.00000  -0.02222  -0.02222   2.05407
    R9        2.67608  -0.01404   0.00000  -0.03215  -0.03215   2.64393
   R10        2.07131  -0.00931   0.00000  -0.02682  -0.02682   2.04449
   R11        2.09078  -0.01049   0.00000  -0.03122  -0.03122   2.05956
   R12        1.84024  -0.02498   0.00000  -0.04695  -0.04695   1.79329
    A1        1.89289   0.00399   0.00000   0.01715   0.01715   1.91005
    A2        1.92458  -0.00222   0.00000  -0.01391  -0.01393   1.91065
    A3        1.92431  -0.00229   0.00000  -0.01604  -0.01619   1.90813
    A4        1.92762  -0.00055   0.00000   0.00089   0.00094   1.92855
    A5        1.91321   0.00056   0.00000   0.00894   0.00896   1.92217
    A6        1.88142   0.00045   0.00000   0.00274   0.00261   1.88403
    A7        1.89501   0.00318   0.00000   0.01912   0.01912   1.91413
    A8        1.97637   0.00465   0.00000   0.02208   0.02202   1.99839
    A9        1.91047  -0.00101   0.00000   0.00379   0.00361   1.91408
   A10        1.88322  -0.00160   0.00000  -0.01206  -0.01194   1.87128
   A11        1.90085  -0.00097   0.00000   0.00155   0.00132   1.90217
   A12        1.91450  -0.00205   0.00000  -0.01525  -0.01513   1.89936
   A13        1.87584   0.00082   0.00000  -0.00129  -0.00130   1.87453
   A14        1.97412   0.00241   0.00000   0.00982   0.00981   1.98393
   A15        1.91543  -0.00097   0.00000  -0.00561  -0.00558   1.90986
   A16        1.90300   0.00114   0.00000   0.01257   0.01258   1.91557
   A17        1.85739  -0.00106   0.00000  -0.01003  -0.01003   1.84736
   A18        1.94545  -0.00208   0.00000  -0.01167  -0.01176   1.93368
   A19        1.86482   0.00038   0.00000   0.00398   0.00394   1.86876
   A20        1.84705   0.00819   0.00000   0.04934   0.04934   1.89639
    D1       -2.99913  -0.00075   0.00000  -0.02001  -0.01997  -3.01910
    D2        1.17133  -0.00123   0.00000  -0.02343  -0.02330   1.14803
    D3       -0.90422   0.00104   0.00000  -0.00807  -0.00824  -0.91246
    D4        1.04764   0.00084   0.00000   0.00000   0.00000   1.04764
    D5       -1.07683  -0.00035   0.00000  -0.01977  -0.01982  -1.09665
    D6       -3.11313   0.00011   0.00000  -0.01355  -0.01357  -3.12670
    D7       -3.12469   0.00030   0.00000  -0.00569  -0.00566  -3.13036
    D8        1.03402  -0.00088   0.00000  -0.02545  -0.02549   1.00853
    D9       -1.00228  -0.00042   0.00000  -0.01923  -0.01924  -1.02152
   D10       -1.05418   0.00086   0.00000   0.00376   0.00375  -1.05043
   D11        3.10454  -0.00033   0.00000  -0.01601  -0.01607   3.08846
   D12        1.06824   0.00014   0.00000  -0.00979  -0.00982   1.05842
   D13       -1.23369  -0.00114   0.00000  -0.07170  -0.07176  -1.30545
   D14        2.97836  -0.00069   0.00000  -0.06151  -0.06154   2.91682
   D15        0.94129  -0.00126   0.00000  -0.07036  -0.07036   0.87093
   D16        0.89616  -0.00000   0.00000  -0.05088  -0.05089   0.84527
   D17       -1.17497   0.00045   0.00000  -0.04069  -0.04068  -1.21565
   D18        3.07115  -0.00012   0.00000  -0.04954  -0.04950   3.02165
   D19        2.94473  -0.00076   0.00000  -0.06024  -0.06025   2.88448
   D20        0.87360  -0.00030   0.00000  -0.05006  -0.05004   0.82356
   D21       -1.16347  -0.00087   0.00000  -0.05890  -0.05885  -1.22233
   D22        0.80703   0.00071   0.00000   0.00637   0.00634   0.81338
   D23        2.91151   0.00023   0.00000  -0.00146  -0.00152   2.90999
   D24       -1.34468  -0.00101   0.00000  -0.00864  -0.00855  -1.35324
         Item               Value     Threshold  Converged?
 Maximum Force            0.024980     0.000450     NO 
 RMS     Force            0.006470     0.000300     NO 
 Maximum Displacement     0.238955     0.001800     NO 
 RMS     Displacement     0.054460     0.001200     NO 
 Predicted change in Energy=-3.171696D-03
 GradGradGradGradGradGradGradGradGradGradGradGradGradGradGradGradGradGrad

                          Input orientation:                          
 ---------------------------------------------------------------------
 Center     Atomic      Atomic             Coordinates (Angstroms)
 Number     Number       Type             X           Y           Z
 ---------------------------------------------------------------------
      1          6           0        0.985288    2.049031    1.231487
      2          8           0        1.556142    3.230243    0.703575
      3          6           0        1.991031    0.911866    1.130881
      4          6           0        3.296475    1.151501    1.888520
      5          8           0        4.152407    2.061687    1.258887
      6          1           0        0.081936    1.806969    0.681739
      7          1           0        0.711077    2.215010    2.269678
      8          1           0        0.977212    3.962232    0.861815
      9          1           0        2.218724    0.716950    0.088245
     10          1           0        1.511645    0.022064    1.530802
     11          1           0        3.849212    0.223862    1.955385
     12          1           0        3.077800    1.467878    2.908276
     13          1           0        3.647250    2.820106    0.994010
 ---------------------------------------------------------------------
                    Distance matrix (angstroms):
                    1          2          3          4          5
     1  C    0.000000
     2  O    1.414152   0.000000
     3  C    1.521441   2.397205   0.000000
     4  C    2.564924   2.958720   1.528275   0.000000
     5  O    3.167263   2.900774   2.451534   1.399106   0.000000
     6  H    1.084832   2.049260   2.155825   3.495599   4.119067
     7  H    1.086545   2.048782   2.152516   2.821456   3.589981
     8  H    1.948605   0.946576   3.225671   3.785936   3.721774
     9  H    2.145415   2.671010   1.084863   2.142748   2.630181
    10  H    2.115475   3.313412   1.086966   2.142243   3.347779
    11  H    3.472367   3.982904   2.146158   1.081898   1.988626
    12  H    2.743714   3.206568   2.156235   1.089870   2.056179
    13  H    2.781544   2.150650   2.530449   1.925470   0.948970
                    6          7          8          9         10
     6  H    0.000000
     7  H    1.756093   0.000000
     8  H    2.340748   2.259577   0.000000
     9  H    2.471081   3.045626   3.559722   0.000000
    10  H    2.439439   2.448645   4.032132   1.750371   0.000000
    11  H    4.280277   3.729792   4.839390   2.527418   2.384369
    12  H    3.748019   2.562693   3.849971   3.042118   2.537844
    13  H    3.719599   3.258003   2.907065   2.698955   3.560617
                   11         12         13
    11  H    0.000000
    12  H    1.746612   0.000000
    13  H    2.775880   2.411889   0.000000
 Stoichiometry    C3H8O2
 Framework group  C1[X(C3H8O2)]
 Deg. of freedom    33
 Full point group                 C1      NOp   1
 Largest Abelian subgroup         C1      NOp   1
 Largest concise Abelian subgroup C1      NOp   1
                         Standard orientation:                         
 ---------------------------------------------------------------------
 Center     Atomic      Atomic             Coordinates (Angstroms)
 Number     Number       Type             X           Y           Z
 ---------------------------------------------------------------------
      1          6           0        1.297025    0.466040    0.164099
      2          8           0        1.353853   -0.925534   -0.081092
      3          6           0       -0.026976    1.016186   -0.344963
      4          6           0       -1.262950    0.399047    0.308591
      5          8           0       -1.546237   -0.896574   -0.137068
      6          1           0        2.127950    0.955079   -0.333159
      7          1           0        1.391808    0.647339    1.231211
      8          1           0        2.125225   -1.290088    0.328899
      9          1           0       -0.090340    0.879403   -1.419302
     10          1           0       -0.025948    2.086058   -0.152955
     11          1           0       -2.133713    0.992646    0.063817
     12          1           0       -1.155685    0.420376    1.392960
     13          1           0       -0.742816   -1.401588   -0.132555
 ---------------------------------------------------------------------
 Rotational constants (GHZ):      7.9336357      3.7850184      2.8216729
 Standard basis: 6-31G(d) (6D, 7F)
 There are    91 symmetry adapted cartesian basis functions of A   symmetry.
 There are    91 symmetry adapted basis functions of A   symmetry.
    91 basis functions,   172 primitive gaussians,    91 cartesian basis functions
    21 alpha electrons       21 beta electrons
       nuclear repulsion energy       194.8279777789 Hartrees.
 NAtoms=   13 NActive=   13 NUniq=   13 SFac= 1.00D+00 NAtFMM=   60 NAOKFM=F Big=F
 Integral buffers will be    131072 words long.
 Raffenetti 1 integral format.
 Two-electron integral symmetry is turned on.
 One-electron integrals computed using PRISM.
 NBasis=    91 RedAO= T EigKep=  4.93D-03  NBF=    91
 NBsUse=    91 1.00D-06 EigRej= -1.00D+00 NBFU=    91
 Initial guess from the checkpoint file:  "1-3-propanediol-opt.chk"
 B after Tr=    -0.000000   -0.000000   -0.000000
         Rot=    0.999983    0.000040   -0.002848    0.005156 Ang=   0.68 deg.
 ExpMin= 1.61D-01 ExpMax= 5.48D+03 ExpMxC= 8.25D+02 IAcc=1 IRadAn=         1 AccDes= 0.00D+00
 Harris functional with IExCor=  205 and IRadAn=       1 diagonalized for initial guess.
 HarFok:  IExCor=  205 AccDes= 0.00D+00 IRadAn=         1 IDoV= 1 UseB2=F ITyADJ=14
 ICtDFT=  3500011 ScaDFX=  1.000000  1.000000  1.000000  1.000000
 FoFCou: FMM=F IPFlag=           0 FMFlag=      100000 FMFlg1=           0
         NFxFlg=           0 DoJE=T BraDBF=F KetDBF=T FulRan=T
         wScrn=  0.000000 ICntrl=     500 IOpCl=  0 I1Cent=   200000004 NGrid=           0
         NMat0=    1 NMatS0=      1 NMatT0=    0 NMatD0=    1 NMtDS0=    0 NMtDT0=    0
 Petite list used in FoFCou.
 Keep R1 ints in memory in canonical form, NReq=9680852.
 Requested convergence on RMS density matrix=1.00D-08 within 128 cycles.
 Requested convergence on MAX density matrix=1.00D-06.
 Requested convergence on             energy=1.00D-06.
 No special actions if energy rises.
 SCF Done:  E(RHF) =  -267.960852624     A.U. after   11 cycles
            NFock= 11  Conv=0.46D-08     -V/T= 2.0014
 Calling FoFJK, ICntrl=      2127 FMM=F ISym2X=0 I1Cent= 0 IOpClX= 0 NMat=1 NMatS=1 NMatT=0.
 ***** Axes restored to original set *****
 -------------------------------------------------------------------
 Center     Atomic                   Forces (Hartrees/Bohr)
 Number     Number              X              Y              Z
 -------------------------------------------------------------------
      1        6           0.002075615    0.004728350   -0.000979340
      2        8           0.002364302   -0.002368713    0.000722735
      3        6          -0.001200161    0.000376442    0.000525841
      4        6           0.001172187    0.001361238   -0.000637932
      5        8          -0.001943974    0.000351441   -0.001055544
      6        1          -0.001024452   -0.002073939   -0.000213560
      7        1          -0.000344922   -0.001596352    0.001432188
      8        1           0.000081296    0.000369172   -0.000530822
      9        1           0.000122595    0.000212930   -0.000580570
     10        1          -0.000116880   -0.000979730   -0.000031643
     11        1          -0.000231992   -0.001033395    0.000281483
     12        1          -0.000526775    0.000381256    0.000356688
     13        1          -0.000426838    0.000271300    0.000710476
 -------------------------------------------------------------------
 Cartesian Forces:  Max     0.004728350 RMS     0.001283824

 GradGradGradGradGradGradGradGradGradGradGradGradGradGradGradGradGradGrad
 Berny optimization.
 Using GEDIIS/GDIIS optimizer.
 FormGI is forming the generalized inverse of G from B-inverse, IUseBI=4.
 GSVD:  received Info=                   1 from GESDD.
 Internal  Forces:  Max     0.005097648 RMS     0.001506776
 Search for a local minimum.
 Step number   2 out of a maximum of   66 on scan point     1 out of    37
 All quantities printed in internal units (Hartrees-Bohrs-Radians)
 Mixed Optimization -- RFO/linear search
 Update second derivatives using D2CorX and points    1    2
 DE= -2.65D-03 DEPred=-3.17D-03 R= 8.37D-01
 TightC=F SS=  1.41D+00  RLast= 2.23D-01 DXNew= 5.0454D-01 6.6797D-01
 Trust test= 8.37D-01 RLast= 2.23D-01 DXMaxT set to 5.05D-01
 ITU=  1  0
 Use linear search instead of GDIIS.
     Eigenvalues ---    0.00341   0.01221   0.01479   0.01696   0.04252
     Eigenvalues ---    0.04656   0.04849   0.05787   0.05844   0.08603
     Eigenvalues ---    0.11446   0.11695   0.11883   0.13594   0.14012
     Eigenvalues ---    0.15762   0.16095   0.21985   0.22032   0.23291
     Eigenvalues ---    0.28655   0.29619   0.33042   0.33537   0.33750
     Eigenvalues ---    0.33925   0.34066   0.35640   0.39522   0.42549
     Eigenvalues ---    0.51795   0.533181000.000001000.000001000.00000
     Eigenvalues --- 1000.000001000.000001000.000001000.000001000.00000
     Eigenvalues --- 1000.000001000.000001000.000001000.000001000.00000
     Eigenvalues --- 1000.000001000.000001000.000001000.000001000.00000
     Eigenvalues --- 1000.000001000.000001000.000001000.000001000.00000
     Eigenvalues --- 1000.00000
 RFO step:  Lambda=-6.81897200D-04 EMin= 3.41384288D-03
 Quartic linear search produced a step of -0.10847.
 Iteration  1 RMS(Cart)=  0.05428562 RMS(Int)=  0.00112666
 Iteration  2 RMS(Cart)=  0.00141717 RMS(Int)=  0.00005504
 Iteration  3 RMS(Cart)=  0.00000066 RMS(Int)=  0.00005504
 Iteration  1 RMS(Cart)=  0.00000328 RMS(Int)=  0.00000265
 Iteration  2 RMS(Cart)=  0.00000211 RMS(Int)=  0.00000294
 Iteration  3 RMS(Cart)=  0.00000136 RMS(Int)=  0.00000337
 Iteration  4 RMS(Cart)=  0.00000087 RMS(Int)=  0.00000372
 Variable       Old X    -DE/DX   Delta X   Delta X   Delta X     New X
                                 (Linear)    (Quad)   (Total)
    R1        2.67236  -0.00075   0.00436  -0.01199  -0.00764   2.66472
    R2        2.87511  -0.00276   0.00068  -0.00984  -0.00916   2.86595
    R3        2.05004   0.00142   0.00321  -0.00384  -0.00062   2.04941
    R4        2.05327   0.00121   0.00313  -0.00419  -0.00106   2.05221
    R5        1.78877   0.00015   0.00456  -0.01053  -0.00598   1.78279
    R6        2.88802  -0.00163   0.00127  -0.00804  -0.00677   2.88125
    R7        2.05009   0.00055   0.00250  -0.00450  -0.00200   2.04810
    R8        2.05407   0.00084   0.00241  -0.00349  -0.00108   2.05299
    R9        2.64393  -0.00089   0.00349  -0.01010  -0.00662   2.63731
   R10        2.04449   0.00078   0.00291  -0.00484  -0.00193   2.04256
   R11        2.05956   0.00055   0.00339  -0.00654  -0.00315   2.05640
   R12        1.79329   0.00025   0.00509  -0.01163  -0.00654   1.78676
    A1        1.91005  -0.00510  -0.00186  -0.01637  -0.01825   1.89180
    A2        1.91065   0.00306   0.00151   0.01087   0.01224   1.92288
    A3        1.90813   0.00261   0.00176   0.01433   0.01603   1.92416
    A4        1.92855  -0.00029  -0.00010  -0.00870  -0.00879   1.91976
    A5        1.92217   0.00002  -0.00097  -0.00157  -0.00250   1.91967
    A6        1.88403  -0.00016  -0.00028   0.00211   0.00172   1.88575
    A7        1.91413   0.00093  -0.00207   0.01012   0.00805   1.92218
    A8        1.99839  -0.00488  -0.00239  -0.01590  -0.01833   1.98006
    A9        1.91408   0.00084  -0.00039  -0.00459  -0.00509   1.90899
   A10        1.87128   0.00218   0.00129   0.01334   0.01469   1.88597
   A11        1.90217   0.00128  -0.00014  -0.00021  -0.00051   1.90166
   A12        1.89936   0.00155   0.00164   0.00600   0.00773   1.90709
   A13        1.87453  -0.00077   0.00014   0.00271   0.00285   1.87738
   A14        1.98393  -0.00343  -0.00106  -0.01239  -0.01350   1.97043
   A15        1.90986   0.00023   0.00061   0.00175   0.00239   1.91224
   A16        1.91557   0.00060  -0.00136   0.00049  -0.00097   1.91460
   A17        1.84736   0.00215   0.00109   0.01393   0.01504   1.86241
   A18        1.93368   0.00077   0.00128  -0.00681  -0.00562   1.92806
   A19        1.86876  -0.00012  -0.00043   0.00458   0.00416   1.87292
   A20        1.89639  -0.00091  -0.00535   0.00768   0.00232   1.89871
    D1       -3.01910  -0.00025   0.00217  -0.02283  -0.02066  -3.03976
    D2        1.14803   0.00139   0.00253  -0.00866  -0.00599   1.14204
    D3       -0.91246  -0.00175   0.00089  -0.02600  -0.02525  -0.93771
    D4        1.04764  -0.00081  -0.00000   0.00000   0.00000   1.04765
    D5       -1.09665   0.00037   0.00215   0.01527   0.01735  -1.07930
    D6       -3.12670  -0.00037   0.00147   0.00710   0.00852  -3.11818
    D7       -3.13036  -0.00047   0.00061  -0.00254  -0.00186  -3.13221
    D8        1.00853   0.00070   0.00276   0.01273   0.01549   1.02402
    D9       -1.02152  -0.00003   0.00209   0.00455   0.00666  -1.01486
   D10       -1.05043  -0.00084  -0.00041  -0.00639  -0.00676  -1.05719
   D11        3.08846   0.00034   0.00174   0.00888   0.01058   3.09905
   D12        1.05842  -0.00039   0.00107   0.00071   0.00175   1.06017
   D13       -1.30545   0.00160   0.00778   0.07290   0.08066  -1.22479
   D14        2.91682   0.00089   0.00668   0.06198   0.06864   2.98546
   D15        0.87093   0.00055   0.00763   0.05513   0.06276   0.93369
   D16        0.84527   0.00023   0.00552   0.05545   0.06096   0.90623
   D17       -1.21565  -0.00048   0.00441   0.04453   0.04895  -1.16670
   D18        3.02165  -0.00082   0.00537   0.03768   0.04307   3.06472
   D19        2.88448   0.00089   0.00654   0.06192   0.06844   2.95292
   D20        0.82356   0.00018   0.00543   0.05099   0.05643   0.87999
   D21       -1.22233  -0.00016   0.00638   0.04415   0.05055  -1.17178
   D22        0.81338   0.00007  -0.00069   0.01525   0.01463   0.82800
   D23        2.90999  -0.00019   0.00016   0.01954   0.01969   2.92968
   D24       -1.35324   0.00125   0.00093   0.02932   0.03020  -1.32304
         Item               Value     Threshold  Converged?
 Maximum Force            0.005098     0.000450     NO 
 RMS     Force            0.001509     0.000300     NO 
 Maximum Displacement     0.188462     0.001800     NO 
 RMS     Displacement     0.054301     0.001200     NO 
 Predicted change in Energy=-3.918185D-04
 GradGradGradGradGradGradGradGradGradGradGradGradGradGradGradGradGradGrad

                          Input orientation:                          
 ---------------------------------------------------------------------
 Center     Atomic      Atomic             Coordinates (Angstroms)
 Number     Number       Type             X           Y           Z
 ---------------------------------------------------------------------
      1          6           0        1.002288    2.051478    1.236909
      2          8           0        1.607502    3.197236    0.680700
      3          6           0        1.981306    0.897438    1.138068
      4          6           0        3.289943    1.146756    1.879686
      5          8           0        4.085418    2.115806    1.266600
      6          1           0        0.091095    1.811790    0.699859
      7          1           0        0.743061    2.230413    2.276209
      8          1           0        1.055171    3.951144    0.809470
      9          1           0        2.199832    0.699589    0.095120
     10          1           0        1.501018    0.012489    1.546038
     11          1           0        3.871909    0.236228    1.902964
     12          1           0        3.080138    1.423397    2.911012
     13          1           0        3.547520    2.865637    1.060666
 ---------------------------------------------------------------------
                    Distance matrix (angstroms):
                    1          2          3          4          5
     1  C    0.000000
     2  O    1.410112   0.000000
     3  C    1.516593   2.374445   0.000000
     4  C    2.542646   2.910780   1.524692   0.000000
     5  O    3.083944   2.766376   2.434795   1.395605   0.000000
     6  H    1.084502   2.054098   2.144987   3.473743   4.045768
     7  H    1.085984   2.056126   2.146029   2.796095   3.493393
     8  H    1.947879   0.943413   3.207932   3.742213   3.572090
     9  H    2.136679   2.632869   1.083807   2.138452   2.633148
    10  H    2.121737   3.301933   1.086393   2.144326   3.343823
    11  H    3.460273   3.922887   2.143978   1.080875   1.995835
    12  H    2.741271   3.207717   2.151137   1.088200   2.047952
    13  H    2.678082   2.004495   2.516510   1.921377   0.945510
                    6          7          8          9         10
     6  H    0.000000
     7  H    1.756469   0.000000
     8  H    2.349105   2.282465   0.000000
     9  H    2.459567   3.036898   3.520391   0.000000
    10  H    2.437495   2.454961   4.031664   1.750888   0.000000
    11  H    4.269006   3.729046   4.788564   2.505762   2.408024
    12  H    3.738238   2.552681   3.860890   3.037776   2.519411
    13  H    3.631480   3.121866   2.730060   2.727692   3.544603
                   11         12         13
    11  H    0.000000
    12  H    1.747122   0.000000
    13  H    2.780016   2.392129   0.000000
 Stoichiometry    C3H8O2
 Framework group  C1[X(C3H8O2)]
 Deg. of freedom    33
 Full point group                 C1      NOp   1
 Largest Abelian subgroup         C1      NOp   1
 Largest concise Abelian subgroup C1      NOp   1
                         Standard orientation:                         
 ---------------------------------------------------------------------
 Center     Atomic      Atomic             Coordinates (Angstroms)
 Number     Number       Type             X           Y           Z
 ---------------------------------------------------------------------
      1          6           0        1.272536    0.467588    0.186883
      2          8           0        1.304558   -0.912782   -0.099418
      3          6           0       -0.031708    1.035268   -0.339180
      4          6           0       -1.267216    0.395405    0.284344
      5          8           0       -1.461658   -0.923934   -0.127055
      6          1           0        2.111512    0.967016   -0.285174
      7          1           0        1.343208    0.630942    1.258182
      8          1           0        2.064437   -1.308746    0.295328
      9          1           0       -0.072638    0.905493   -1.414411
     10          1           0       -0.040172    2.102685   -0.137192
     11          1           0       -2.148685    0.946381   -0.011842
     12          1           0       -1.200624    0.449884    1.369138
     13          1           0       -0.641910   -1.389490   -0.054527
 ---------------------------------------------------------------------
 Rotational constants (GHZ):      7.8437473      4.0074001      2.9240739
 Standard basis: 6-31G(d) (6D, 7F)
 There are    91 symmetry adapted cartesian basis functions of A   symmetry.
 There are    91 symmetry adapted basis functions of A   symmetry.
    91 basis functions,   172 primitive gaussians,    91 cartesian basis functions
    21 alpha electrons       21 beta electrons
       nuclear repulsion energy       196.6126340856 Hartrees.
 NAtoms=   13 NActive=   13 NUniq=   13 SFac= 1.00D+00 NAtFMM=   60 NAOKFM=F Big=F
 Integral buffers will be    131072 words long.
 Raffenetti 1 integral format.
 Two-electron integral symmetry is turned on.
 One-electron integrals computed using PRISM.
 NBasis=    91 RedAO= T EigKep=  4.90D-03  NBF=    91
 NBsUse=    91 1.00D-06 EigRej= -1.00D+00 NBFU=    91
 Initial guess from the checkpoint file:  "1-3-propanediol-opt.chk"
 B after Tr=     0.000000   -0.000000    0.000000
         Rot=    0.999981   -0.001360    0.003236   -0.005071 Ang=  -0.71 deg.
 ExpMin= 1.61D-01 ExpMax= 5.48D+03 ExpMxC= 8.25D+02 IAcc=1 IRadAn=         1 AccDes= 0.00D+00
 Harris functional with IExCor=  205 and IRadAn=       1 diagonalized for initial guess.
 HarFok:  IExCor=  205 AccDes= 0.00D+00 IRadAn=         1 IDoV= 1 UseB2=F ITyADJ=14
 ICtDFT=  3500011 ScaDFX=  1.000000  1.000000  1.000000  1.000000
 FoFCou: FMM=F IPFlag=           0 FMFlag=      100000 FMFlg1=           0
         NFxFlg=           0 DoJE=T BraDBF=F KetDBF=T FulRan=T
         wScrn=  0.000000 ICntrl=     500 IOpCl=  0 I1Cent=   200000004 NGrid=           0
         NMat0=    1 NMatS0=      1 NMatT0=    0 NMatD0=    1 NMtDS0=    0 NMtDT0=    0
 Petite list used in FoFCou.
 Keep R1 ints in memory in canonical form, NReq=9681037.
 Requested convergence on RMS density matrix=1.00D-08 within 128 cycles.
 Requested convergence on MAX density matrix=1.00D-06.
 Requested convergence on             energy=1.00D-06.
 No special actions if energy rises.
 SCF Done:  E(RHF) =  -267.960788267     A.U. after   10 cycles
            NFock= 10  Conv=0.75D-08     -V/T= 2.0012
 Calling FoFJK, ICntrl=      2127 FMM=F ISym2X=0 I1Cent= 0 IOpClX= 0 NMat=1 NMatS=1 NMatT=0.
 ***** Axes restored to original set *****
 -------------------------------------------------------------------
 Center     Atomic                   Forces (Hartrees/Bohr)
 Number     Number              X              Y              Z
 -------------------------------------------------------------------
      1        6           0.000517080   -0.000610835   -0.001497928
      2        8           0.000689430   -0.000214151   -0.000045224
      3        6           0.000013530   -0.001606063    0.000933171
      4        6          -0.000175513    0.002443229   -0.001012041
      5        8           0.006212654   -0.003309437    0.000197220
      6        1          -0.001819827    0.000170716   -0.000537764
      7        1          -0.000484218    0.000473268    0.001479697
      8        1          -0.002653692    0.003246532    0.000030231
      9        1           0.000212548   -0.000157056   -0.001259891
     10        1          -0.000587036   -0.000995406    0.000327030
     11        1           0.001187125   -0.001046920    0.000176392
     12        1          -0.000917129   -0.000445748    0.002164904
     13        1          -0.002194952    0.002051871   -0.000955798
 -------------------------------------------------------------------
 Cartesian Forces:  Max     0.006212654 RMS     0.001668992

 GradGradGradGradGradGradGradGradGradGradGradGradGradGradGradGradGradGrad
 Berny optimization.
 Using GEDIIS/GDIIS optimizer.
 FormGI is forming the generalized inverse of G from B-inverse, IUseBI=4.
 GSVD:  received Info=                   1 from GESDD.
 Internal  Forces:  Max     0.005736949 RMS     0.001934573
 Search for a local minimum.
 Step number   3 out of a maximum of   66 on scan point     1 out of    37
 All quantities printed in internal units (Hartrees-Bohrs-Radians)
 Mixed Optimization -- RFO/linear search
 Update second derivatives using D2CorX and points    1    3    2
 DE=  6.44D-05 DEPred=-3.92D-04 R=-1.64D-01
 Trust test=-1.64D-01 RLast= 1.98D-01 DXMaxT set to 2.52D-01
 ITU= -1  1  0
 Use linear search instead of GDIIS.
     Eigenvalues ---    0.00471   0.01186   0.01493   0.01763   0.04368
     Eigenvalues ---    0.04830   0.05167   0.05828   0.05905   0.08431
     Eigenvalues ---    0.11099   0.11615   0.11706   0.13516   0.14130
     Eigenvalues ---    0.15827   0.16025   0.21974   0.22027   0.27345
     Eigenvalues ---    0.29381   0.32880   0.33423   0.33579   0.33805
     Eigenvalues ---    0.33975   0.34093   0.39370   0.41531   0.42844
     Eigenvalues ---    0.51856   0.539291000.000001000.000001000.00000
     Eigenvalues --- 1000.000001000.000001000.000001000.000001000.00000
     Eigenvalues --- 1000.000001000.000001000.000001000.000001000.00000
     Eigenvalues --- 1000.000001000.000001000.000001000.000001000.00000
     Eigenvalues --- 1000.000001000.000001000.000001000.000001000.00000
     Eigenvalues --- 1000.00000
 RFO step:  Lambda=-1.13686216D-04 EMin= 4.70961484D-03
 Quartic linear search produced a step of -0.52183.
 Iteration  1 RMS(Cart)=  0.02929439 RMS(Int)=  0.00032419
 Iteration  2 RMS(Cart)=  0.00040162 RMS(Int)=  0.00002811
 Iteration  3 RMS(Cart)=  0.00000006 RMS(Int)=  0.00002811
 Iteration  1 RMS(Cart)=  0.00000098 RMS(Int)=  0.00000079
 Variable       Old X    -DE/DX   Delta X   Delta X   Delta X     New X
                                 (Linear)    (Quad)   (Total)
    R1        2.66472   0.00163   0.00398   0.00064   0.00462   2.66935
    R2        2.86595   0.00472   0.00478   0.00202   0.00680   2.87274
    R3        2.04941   0.00176   0.00033   0.00487   0.00520   2.05461
    R4        2.05221   0.00161   0.00055   0.00431   0.00486   2.05708
    R5        1.78279   0.00415   0.00312   0.00370   0.00682   1.78961
    R6        2.88125   0.00376   0.00353   0.00278   0.00631   2.88756
    R7        2.04810   0.00128   0.00104   0.00265   0.00369   2.05179
    R8        2.05299   0.00119   0.00056   0.00306   0.00362   2.05661
    R9        2.63731   0.00175   0.00345   0.00058   0.00403   2.64134
   R10        2.04256   0.00152   0.00101   0.00338   0.00438   2.04694
   R11        2.05640   0.00212   0.00165   0.00390   0.00555   2.06195
   R12        1.78676   0.00308   0.00341   0.00289   0.00630   1.79306
    A1        1.89180   0.00574   0.00952  -0.00022   0.00930   1.90111
    A2        1.92288  -0.00213  -0.00639   0.00658   0.00027   1.92315
    A3        1.92416  -0.00194  -0.00837   0.00782  -0.00051   1.92366
    A4        1.91976  -0.00087   0.00459  -0.00651  -0.00194   1.91782
    A5        1.91967  -0.00110   0.00130  -0.00482  -0.00356   1.91612
    A6        1.88575   0.00022  -0.00090  -0.00288  -0.00373   1.88203
    A7        1.92218   0.00011  -0.00420   0.00396  -0.00024   1.92194
    A8        1.98006   0.00506   0.00957  -0.00224   0.00735   1.98741
    A9        1.90899  -0.00085   0.00266  -0.00136   0.00135   1.91034
   A10        1.88597  -0.00225  -0.00767   0.00267  -0.00503   1.88094
   A11        1.90166  -0.00146   0.00027  -0.00086  -0.00053   1.90114
   A12        1.90709  -0.00143  -0.00403   0.00203  -0.00203   1.90506
   A13        1.87738   0.00075  -0.00149  -0.00012  -0.00161   1.87578
   A14        1.97043   0.00409   0.00704   0.00008   0.00713   1.97757
   A15        1.91224  -0.00048  -0.00125  -0.00186  -0.00312   1.90912
   A16        1.91460  -0.00171   0.00050  -0.00334  -0.00284   1.91177
   A17        1.86241  -0.00256  -0.00785   0.00050  -0.00735   1.85505
   A18        1.92806   0.00029   0.00293   0.00575   0.00872   1.93678
   A19        1.87292   0.00018  -0.00217  -0.00116  -0.00333   1.86959
   A20        1.89871  -0.00075  -0.00121  -0.00531  -0.00652   1.89219
    D1       -3.03976  -0.00027   0.01078  -0.02670  -0.01591  -3.05567
    D2        1.14204  -0.00149   0.00313  -0.02256  -0.01952   1.12253
    D3       -0.93771   0.00079   0.01318  -0.02802  -0.01476  -0.95247
    D4        1.04765   0.00046  -0.00000   0.00000  -0.00001   1.04764
    D5       -1.07930  -0.00051  -0.00905   0.00363  -0.00540  -1.08470
    D6       -3.11818   0.00033  -0.00444   0.00302  -0.00141  -3.11959
    D7       -3.13221   0.00088   0.00097   0.00400   0.00492  -3.12729
    D8        1.02402  -0.00008  -0.00808   0.00763  -0.00046   1.02356
    D9       -1.01486   0.00075  -0.00348   0.00701   0.00352  -1.01134
   D10       -1.05719  -0.00006   0.00353  -0.00653  -0.00301  -1.06020
   D11        3.09905  -0.00103  -0.00552  -0.00290  -0.00839   3.09065
   D12        1.06017  -0.00019  -0.00091  -0.00351  -0.00441   1.05576
   D13       -1.22479  -0.00219  -0.04209  -0.00461  -0.04668  -1.27148
   D14        2.98546  -0.00125  -0.03582  -0.00404  -0.03984   2.94562
   D15        0.93369  -0.00018  -0.03275   0.00042  -0.03233   0.90136
   D16        0.90623  -0.00092  -0.03181  -0.00850  -0.04031   0.86592
   D17       -1.16670   0.00003  -0.02554  -0.00793  -0.03347  -1.20017
   D18        3.06472   0.00109  -0.02248  -0.00347  -0.02596   3.03876
   D19        2.95292  -0.00166  -0.03571  -0.00798  -0.04369   2.90923
   D20        0.87999  -0.00071  -0.02944  -0.00740  -0.03685   0.84314
   D21       -1.17178   0.00035  -0.02638  -0.00295  -0.02934  -1.20112
   D22        0.82800  -0.00002  -0.00763   0.00914   0.00151   0.82951
   D23        2.92968   0.00012  -0.01027   0.00722  -0.00304   2.92665
   D24       -1.32304  -0.00096  -0.01576   0.00912  -0.00666  -1.32970
         Item               Value     Threshold  Converged?
 Maximum Force            0.005737     0.000450     NO 
 RMS     Force            0.001949     0.000300     NO 
 Maximum Displacement     0.101968     0.001800     NO 
 RMS     Displacement     0.029309     0.001200     NO 
 Predicted change in Energy=-2.731220D-04
 GradGradGradGradGradGradGradGradGradGradGradGradGradGradGradGradGradGrad

                          Input orientation:                          
 ---------------------------------------------------------------------
 Center     Atomic      Atomic             Coordinates (Angstroms)
 Number     Number       Type             X           Y           Z
 ---------------------------------------------------------------------
      1          6           0        0.994324    2.053247    1.237367
      2          8           0        1.583341    3.217757    0.696722
      3          6           0        1.985986    0.905669    1.134166
      4          6           0        3.294571    1.149879    1.884396
      5          8           0        4.124186    2.085085    1.259258
      6          1           0        0.085062    1.806151    0.694867
      7          1           0        0.726646    2.216304    2.279825
      8          1           0        1.009373    3.960755    0.820664
      9          1           0        2.209658    0.713895    0.089146
     10          1           0        1.505856    0.014777    1.534423
     11          1           0        3.859304    0.226779    1.932101
     12          1           0        3.076414    1.446402    2.911558
     13          1           0        3.601479    2.842699    1.028808
 ---------------------------------------------------------------------
                    Distance matrix (angstroms):
                    1          2          3          4          5
     1  C    0.000000
     2  O    1.412559   0.000000
     3  C    1.520191   2.387306   0.000000
     4  C    2.554576   2.935132   1.528031   0.000000
     5  O    3.130100   2.838183   2.445111   1.397737   0.000000
     6  H    1.087254   2.058513   2.148805   3.485201   4.087892
     7  H    1.088557   2.059867   2.148543   2.808535   3.549937
     8  H    1.952551   0.947021   3.222671   3.775538   3.662317
     9  H    2.142268   2.651555   1.085759   2.142438   2.629590
    10  H    2.122562   3.311620   1.088311   2.147194   3.349260
    11  H    3.467961   3.956275   2.146372   1.083195   1.994036
    12  H    2.739759   3.205069   2.154193   1.091138   2.058115
    13  H    2.732030   2.079382   2.524481   1.921423   0.948846
                    6          7          8          9         10
     6  H    0.000000
     7  H    1.758393   0.000000
     8  H    2.347870   2.291766   0.000000
     9  H    2.464514   3.042307   3.538065   0.000000
    10  H    2.435678   2.451431   4.040630   1.752977   0.000000
    11  H    4.274350   3.727287   4.827005   2.520932   2.396208
    12  H    3.740498   2.552107   3.868652   3.042013   2.532332
    13  H    3.681187   3.197199   2.830617   2.711446   3.555901
                   11         12         13
    11  H    0.000000
    12  H    1.749209   0.000000
    13  H    2.779469   2.402101   0.000000
 Stoichiometry    C3H8O2
 Framework group  C1[X(C3H8O2)]
 Deg. of freedom    33
 Full point group                 C1      NOp   1
 Largest Abelian subgroup         C1      NOp   1
 Largest concise Abelian subgroup C1      NOp   1
                         Standard orientation:                         
 ---------------------------------------------------------------------
 Center     Atomic      Atomic             Coordinates (Angstroms)
 Number     Number       Type             X           Y           Z
 ---------------------------------------------------------------------
      1          6           0        1.286323    0.465731    0.175506
      2          8           0        1.329125   -0.921624   -0.086667
      3          6           0       -0.028146    1.025371   -0.344067
      4          6           0       -1.264396    0.397658    0.298225
      5          8           0       -1.508646   -0.909134   -0.133406
      6          1           0        2.119593    0.965640   -0.312216
      7          1           0        1.367612    0.649073    1.245429
      8          1           0        2.107038   -1.301789    0.296967
      9          1           0       -0.080704    0.885752   -1.419528
     10          1           0       -0.031619    2.096785   -0.153070
     11          1           0       -2.140991    0.974872    0.030427
     12          1           0       -1.172038    0.439209    1.384653
     13          1           0       -0.695411   -1.396041   -0.090057
 ---------------------------------------------------------------------
 Rotational constants (GHZ):      7.8776280      3.8848588      2.8670742
 Standard basis: 6-31G(d) (6D, 7F)
 There are    91 symmetry adapted cartesian basis functions of A   symmetry.
 There are    91 symmetry adapted basis functions of A   symmetry.
    91 basis functions,   172 primitive gaussians,    91 cartesian basis functions
    21 alpha electrons       21 beta electrons
       nuclear repulsion energy       195.5208306474 Hartrees.
 NAtoms=   13 NActive=   13 NUniq=   13 SFac= 1.00D+00 NAtFMM=   60 NAOKFM=F Big=F
 Integral buffers will be    131072 words long.
 Raffenetti 1 integral format.
 Two-electron integral symmetry is turned on.
 One-electron integrals computed using PRISM.
 NBasis=    91 RedAO= T EigKep=  4.95D-03  NBF=    91
 NBsUse=    91 1.00D-06 EigRej= -1.00D+00 NBFU=    91
 Lowest energy guess from the checkpoint file:  "1-3-propanediol-opt.chk"
 B after Tr=     0.000000   -0.000000    0.000000
         Rot=    0.999997   -0.000043    0.001413   -0.002069 Ang=  -0.29 deg.
 B after Tr=     0.000000    0.000000   -0.000000
         Rot=    0.999993    0.001313   -0.001825    0.003004 Ang=   0.43 deg.
 Keep R1 ints in memory in canonical form, NReq=9680894.
 Requested convergence on RMS density matrix=1.00D-08 within 128 cycles.
 Requested convergence on MAX density matrix=1.00D-06.
 Requested convergence on             energy=1.00D-06.
 No special actions if energy rises.
 SCF Done:  E(RHF) =  -267.961092982     A.U. after    9 cycles
            NFock=  9  Conv=0.96D-08     -V/T= 2.0014
 Calling FoFJK, ICntrl=      2127 FMM=F ISym2X=0 I1Cent= 0 IOpClX= 0 NMat=1 NMatS=1 NMatT=0.
 ***** Axes restored to original set *****
 -------------------------------------------------------------------
 Center     Atomic                   Forces (Hartrees/Bohr)
 Number     Number              X              Y              Z
 -------------------------------------------------------------------
      1        6          -0.000211083    0.000059268   -0.000717223
      2        8          -0.000141517   -0.000713262    0.001184864
      3        6           0.000151025   -0.000268277   -0.000018476
      4        6           0.000287056   -0.000241433   -0.000198742
      5        8          -0.000364932   -0.000193029    0.000025230
      6        1           0.000011410    0.000481640    0.000107854
      7        1           0.000126703    0.000380959   -0.000213153
      8        1          -0.000087669   -0.000289536   -0.000215564
      9        1           0.000000662    0.000076244    0.000061985
     10        1           0.000112840    0.000221075   -0.000071380
     11        1          -0.000022377    0.000134446    0.000220309
     12        1           0.000105130    0.000199754   -0.000175890
     13        1           0.000032751    0.000152152    0.000010186
 -------------------------------------------------------------------
 Cartesian Forces:  Max     0.001184864 RMS     0.000311307

 GradGradGradGradGradGradGradGradGradGradGradGradGradGradGradGradGradGrad
 Berny optimization.
 Using GEDIIS/GDIIS optimizer.
 FormGI is forming the generalized inverse of G from B-inverse, IUseBI=4.
 GSVD:  received Info=                   1 from GESDD.
 Internal  Forces:  Max     0.001293263 RMS     0.000261480
 Search for a local minimum.
 Step number   4 out of a maximum of   66 on scan point     1 out of    37
 All quantities printed in internal units (Hartrees-Bohrs-Radians)
 Mixed Optimization -- En-DIIS/RFO-DIIS
 Update second derivatives using D2CorX and points    1    3    2    4
 DE= -2.40D-04 DEPred=-2.73D-04 R= 8.80D-01
 TightC=F SS=  1.41D+00  RLast= 1.09D-01 DXNew= 4.2426D-01 3.2607D-01
 Trust test= 8.80D-01 RLast= 1.09D-01 DXMaxT set to 3.26D-01
 ITU=  1 -1  1  0
 Use linear search instead of GDIIS.
     Eigenvalues ---    0.00458   0.00971   0.01481   0.01742   0.04399
     Eigenvalues ---    0.04811   0.05097   0.05853   0.06170   0.08502
     Eigenvalues ---    0.11588   0.11696   0.12429   0.13561   0.14140
     Eigenvalues ---    0.15839   0.16317   0.21987   0.22053   0.26738
     Eigenvalues ---    0.29366   0.33015   0.33531   0.33640   0.33934
     Eigenvalues ---    0.34062   0.34550   0.39527   0.40887   0.42831
     Eigenvalues ---    0.52159   0.543871000.000001000.000001000.00000
     Eigenvalues --- 1000.000001000.000001000.000001000.000001000.00000
     Eigenvalues --- 1000.000001000.000001000.000001000.000001000.00000
     Eigenvalues --- 1000.000001000.000001000.000001000.000001000.00000
     Eigenvalues --- 1000.000001000.000001000.000001000.000001000.00000
     Eigenvalues --- 1000.00000
 RFO step:  Lambda=-2.97314650D-05 EMin= 4.57814421D-03
 Quartic linear search produced a step of -0.01370.
 Iteration  1 RMS(Cart)=  0.00651824 RMS(Int)=  0.00003041
 Iteration  2 RMS(Cart)=  0.00003497 RMS(Int)=  0.00000184
 Iteration  3 RMS(Cart)=  0.00000000 RMS(Int)=  0.00000184
 Iteration  1 RMS(Cart)=  0.00000062 RMS(Int)=  0.00000050
 Variable       Old X    -DE/DX   Delta X   Delta X   Delta X     New X
                                 (Linear)    (Quad)   (Total)
    R1        2.66935  -0.00129   0.00004  -0.00342  -0.00338   2.66597
    R2        2.87274   0.00015   0.00003   0.00022   0.00025   2.87300
    R3        2.05461  -0.00017  -0.00006   0.00014   0.00007   2.05469
    R4        2.05708  -0.00018  -0.00005   0.00002  -0.00003   2.05705
    R5        1.78961  -0.00020  -0.00001  -0.00014  -0.00016   1.78945
    R6        2.88756  -0.00002   0.00001  -0.00008  -0.00007   2.88749
    R7        2.05179  -0.00007  -0.00002   0.00007   0.00004   2.05183
    R8        2.05661  -0.00026  -0.00003  -0.00038  -0.00041   2.05620
    R9        2.64134  -0.00024   0.00004  -0.00077  -0.00073   2.64061
   R10        2.04694  -0.00012  -0.00003   0.00004   0.00001   2.04695
   R11        2.06195  -0.00013  -0.00003  -0.00001  -0.00004   2.06191
   R12        1.79306   0.00010   0.00000   0.00030   0.00031   1.79337
    A1        1.90111  -0.00037   0.00012  -0.00321  -0.00309   1.89802
    A2        1.92315   0.00003  -0.00017  -0.00011  -0.00027   1.92287
    A3        1.92366  -0.00034  -0.00021  -0.00152  -0.00173   1.92193
    A4        1.91782   0.00049   0.00015   0.00277   0.00291   1.92074
    A5        1.91612   0.00035   0.00008   0.00197   0.00205   1.91816
    A6        1.88203  -0.00014   0.00003   0.00018   0.00021   1.88223
    A7        1.92194  -0.00023  -0.00011  -0.00058  -0.00069   1.92126
    A8        1.98741  -0.00030   0.00015  -0.00298  -0.00283   1.98458
    A9        1.91034   0.00014   0.00005   0.00065   0.00070   1.91104
   A10        1.88094   0.00002  -0.00013   0.00049   0.00036   1.88130
   A11        1.90114  -0.00005   0.00001   0.00057   0.00059   1.90173
   A12        1.90506   0.00023  -0.00008   0.00059   0.00051   1.90557
   A13        1.87578  -0.00002  -0.00002   0.00088   0.00087   1.87664
   A14        1.97757  -0.00035   0.00009  -0.00258  -0.00249   1.97508
   A15        1.90912   0.00024   0.00001   0.00227   0.00228   1.91141
   A16        1.91177   0.00016   0.00005  -0.00019  -0.00015   1.91162
   A17        1.85505   0.00010  -0.00011   0.00209   0.00198   1.85704
   A18        1.93678  -0.00004  -0.00004  -0.00149  -0.00153   1.93525
   A19        1.86959  -0.00009  -0.00001   0.00018   0.00017   1.86976
   A20        1.89219   0.00016   0.00006   0.00031   0.00036   1.89255
    D1       -3.05567  -0.00002   0.00050  -0.01608  -0.01558  -3.07125
    D2        1.12253  -0.00041   0.00035  -0.01740  -0.01705   1.10547
    D3       -0.95247  -0.00004   0.00055  -0.01661  -0.01606  -0.96853
    D4        1.04764  -0.00039   0.00000   0.00000   0.00000   1.04764
    D5       -1.08470  -0.00021  -0.00016   0.00085   0.00069  -1.08401
    D6       -3.11959  -0.00028  -0.00010  -0.00082  -0.00092  -3.12051
    D7       -3.12729  -0.00028  -0.00004  -0.00044  -0.00048  -3.12777
    D8        1.02356  -0.00011  -0.00021   0.00041   0.00020   1.02376
    D9       -1.01134  -0.00017  -0.00014  -0.00126  -0.00140  -1.01273
   D10       -1.06020   0.00005   0.00013   0.00266   0.00279  -1.05741
   D11        3.09065   0.00023  -0.00003   0.00350   0.00348   3.09413
   D12        1.05576   0.00016   0.00004   0.00184   0.00187   1.05763
   D13       -1.27148   0.00005  -0.00047  -0.01069  -0.01116  -1.28264
   D14        2.94562  -0.00002  -0.00039  -0.01323  -0.01363   2.93199
   D15        0.90136  -0.00014  -0.00042  -0.01466  -0.01508   0.88628
   D16        0.86592  -0.00002  -0.00028  -0.01148  -0.01177   0.85416
   D17       -1.20017  -0.00008  -0.00021  -0.01403  -0.01424  -1.21440
   D18        3.03876  -0.00020  -0.00023  -0.01545  -0.01568   3.02307
   D19        2.90923   0.00006  -0.00034  -0.00977  -0.01011   2.89912
   D20        0.84314  -0.00001  -0.00027  -0.01231  -0.01258   0.83056
   D21       -1.20112  -0.00013  -0.00029  -0.01373  -0.01402  -1.21514
   D22        0.82951  -0.00004  -0.00022   0.00322   0.00300   0.83251
   D23        2.92665   0.00012  -0.00023   0.00591   0.00568   2.93233
   D24       -1.32970   0.00005  -0.00032   0.00655   0.00623  -1.32347
         Item               Value     Threshold  Converged?
 Maximum Force            0.001293     0.000450     NO 
 RMS     Force            0.000249     0.000300     YES
 Maximum Displacement     0.020413     0.001800     NO 
 RMS     Displacement     0.006517     0.001200     NO 
 Predicted change in Energy=-1.497847D-05
 GradGradGradGradGradGradGradGradGradGradGradGradGradGradGradGradGradGrad

                          Input orientation:                          
 ---------------------------------------------------------------------
 Center     Atomic      Atomic             Coordinates (Angstroms)
 Number     Number       Type             X           Y           Z
 ---------------------------------------------------------------------
      1          6           0        0.994300    2.052085    1.240203
      2          8           0        1.585712    3.216156    0.705936
      3          6           0        1.986883    0.905646    1.131382
      4          6           0        3.293398    1.150563    1.884905
      5          8           0        4.124966    2.080514    1.255401
      6          1           0        0.084426    1.810289    0.696265
      7          1           0        0.726751    2.212872    2.283031
      8          1           0        1.006842    3.956773    0.820340
      9          1           0        2.212270    0.719534    0.085684
     10          1           0        1.507883    0.012469    1.527289
     11          1           0        3.856291    0.226924    1.942903
     12          1           0        3.072166    1.456901    2.908501
     13          1           0        3.604311    2.838674    1.021459
 ---------------------------------------------------------------------
                    Distance matrix (angstroms):
                    1          2          3          4          5
     1  C    0.000000
     2  O    1.410769   0.000000
     3  C    1.520325   2.383359   0.000000
     4  C    2.552300   2.927940   1.527993   0.000000
     5  O    3.130832   2.835385   2.442764   1.397350   0.000000
     6  H    1.087293   2.056798   2.151058   3.485055   4.087985
     7  H    1.088542   2.057091   2.150133   2.806186   3.552662
     8  H    1.950456   0.946938   3.219722   3.773122   3.665014
     9  H    2.142909   2.647717   1.085781   2.142854   2.622768
    10  H    2.122786   3.308215   1.088094   2.147374   3.346619
    11  H    3.466409   3.952356   2.148002   1.083200   1.995154
    12  H    2.730382   3.186819   2.154037   1.091116   2.056701
    13  H    2.734726   2.077688   2.522846   1.921438   0.949009
                    6          7          8          9         10
     6  H    0.000000
     7  H    1.758545   0.000000
     8  H    2.339582   2.293275   0.000000
     9  H    2.467848   3.043872   3.531641   0.000000
    10  H    2.439054   2.454197   4.038360   1.753376   0.000000
    11  H    4.276460   3.722055   4.826104   2.528781   2.394524
    12  H    3.734363   2.542376   3.856856   3.041616   2.537935
    13  H    3.681429   3.203677   2.835038   2.702630   3.555040
                   11         12         13
    11  H    0.000000
    12  H    1.749307   0.000000
    13  H    2.780969   2.398625   0.000000
 Stoichiometry    C3H8O2
 Framework group  C1[X(C3H8O2)]
 Deg. of freedom    33
 Full point group                 C1      NOp   1
 Largest Abelian subgroup         C1      NOp   1
 Largest concise Abelian subgroup C1      NOp   1
                         Standard orientation:                         
 ---------------------------------------------------------------------
 Center     Atomic      Atomic             Coordinates (Angstroms)
 Number     Number       Type             X           Y           Z
 ---------------------------------------------------------------------
      1          6           0        1.287624    0.464050    0.174243
      2          8           0        1.323672   -0.922550   -0.083262
      3          6           0       -0.026446    1.023786   -0.346626
      4          6           0       -1.260634    0.398703    0.302075
      5          8           0       -1.511172   -0.904466   -0.135612
      6          1           0        2.123382    0.958162   -0.315215
      7          1           0        1.370986    0.648533    1.243795
      8          1           0        2.107409   -1.302049    0.288797
      9          1           0       -0.081281    0.879140   -1.421331
     10          1           0       -0.028547    2.095717   -0.159789
     11          1           0       -2.137660    0.980964    0.046889
     12          1           0       -1.157993    0.431313    1.387863
     13          1           0       -0.699561   -1.394878   -0.098162
 ---------------------------------------------------------------------
 Rotational constants (GHZ):      7.8932393      3.8891413      2.8733285
 Standard basis: 6-31G(d) (6D, 7F)
 There are    91 symmetry adapted cartesian basis functions of A   symmetry.
 There are    91 symmetry adapted basis functions of A   symmetry.
    91 basis functions,   172 primitive gaussians,    91 cartesian basis functions
    21 alpha electrons       21 beta electrons
       nuclear repulsion energy       195.6398272075 Hartrees.
 NAtoms=   13 NActive=   13 NUniq=   13 SFac= 1.00D+00 NAtFMM=   60 NAOKFM=F Big=F
 Integral buffers will be    131072 words long.
 Raffenetti 1 integral format.
 Two-electron integral symmetry is turned on.
 One-electron integrals computed using PRISM.
[...]
     Eigenvalues --  -267.94546-267.94513-267.94582-267.94721-267.94891
           R1           1.40190   1.40144   1.40075   1.39992   1.39920
           R2           1.54410   1.54255   1.53824   1.53250   1.52694
           R3           1.08713   1.08721   1.08751   1.08797   1.08851
           R4           1.08775   1.08827   1.08896   1.08962   1.09002
           R5           0.94636   0.94640   0.94643   0.94646   0.94650
           R6           1.52848   1.53009   1.53126   1.53191   1.53133
           R7           1.08734   1.08763   1.08803   1.08844   1.08918
           R8           1.08707   1.08675   1.08673   1.08696   1.08728
           R9           1.40219   1.40100   1.39991   1.39897   1.39782
           R10          1.08920   1.08926   1.08934   1.08942   1.08961
           R11          1.07833   1.07905   1.07993   1.08093   1.08226
           R12          0.94682   0.94680   0.94678   0.94674   0.94661
           A1         110.60242 110.66213 110.64764 110.53378 110.46063
           A2         109.99252 110.46257 110.90596 111.20687 111.29913
           A3         110.05435 109.69285 109.49654 109.52075 109.73628
           A4         109.64814 109.70840 109.68479 109.58746 109.35494
           A5         109.45549 109.24890 109.01455 108.84004 108.76757
           A6         107.01696 106.98690 107.00342 107.06116 107.13260
           A7         109.32931 109.30947 109.29659 109.31177 109.33686
           A8         115.96544 116.06188 115.99866 115.84443 116.06583
           A9         109.70184 109.76541 109.74107 109.65246 109.46306
           A10        108.79223 108.55299 108.25500 107.96492 107.72300
           A11        108.45602 107.83252 107.51593 107.57426 107.92326
           A12        107.58176 108.28372 108.93010 109.30799 109.12255
           A13        105.85898 105.86460 105.94410 106.07190 106.10259
           A14        113.39042 113.48232 113.62210 113.87516 114.46614
           A15        108.40935 108.41533 108.48566 108.55403 108.33494
           A16        110.67282 110.81019 110.83815 110.74809 110.57173
           A17        110.12366 110.05673 110.00922 109.97128 109.93340
           A18        106.29215 106.22281 106.14362 106.06488 106.03076
           A19        107.81438 107.70378 107.57449 107.43451 107.27383
           A20        109.16951 109.19797 109.25521 109.34040 109.58399
           D1         176.84603 178.31942 179.80118-179.16137-178.71707
           D2          55.57939  56.62384  57.84468  58.87866  59.60608
           D3         -62.08776 -61.07028 -60.01569 -59.25024 -58.80430
           D4           0.02525  10.02543  20.02564  30.02566  40.02565
           D5        -123.23200-112.52094-102.03277 -91.92763 -82.40069
           D6         121.39839 132.20138 142.77301 152.93270 162.65335
           D7         121.49550 132.16377 142.69616 152.93329 162.84416
           D8          -1.76176   9.61740  20.63775  30.98000  40.41782
           D9        -117.13136-105.66028 -94.55647 -84.15967 -74.52815
           D10       -121.39547-110.84876-100.44531 -90.29371 -80.46834
           D11        115.34728 126.60486 137.49628 147.75300 157.10532
           D12         -0.02233  11.32719  22.30206  32.61334  42.15935
           D13        -74.29487 -77.07447 -79.30607 -80.66067 -78.48951
           D14        163.08710 160.32707 158.01059 156.48182 158.45972
           D15         45.03897  42.33030  40.11219  38.76440  41.16922
           D16         49.61139  46.48316  43.92333  42.39127  44.74435
           D17        -73.00664 -76.11531 -78.76002 -80.46624 -78.30642
           D18        168.94523 165.88792 163.34159 161.81634 164.40308
           D19        163.68796 160.60744 158.30208 157.14185 159.62144
           D20         41.06992  38.00898  35.61873  34.28435  36.57067
           D21        -76.97821 -79.98779 -82.27967 -83.43307 -80.71983
           D22        -66.25223 -64.82546 -62.98740 -60.32005 -52.34159
           D23         55.41204  56.86142  58.85318  61.75904  69.84255
           D24        171.93457 173.18117 174.95333 177.63284-174.50939
                          36        37
     Eigenvalues --  -267.96083-267.96112
           R1           1.41088   1.41114
           R2           1.52222   1.52031
           R3           1.08686   1.08707
           R4           1.08843   1.08841
           R5           0.94670   0.94684
           R6           1.52917   1.52820
           R7           1.08575   1.08553
           R8           1.08764   1.08797
           R9           1.39673   1.39763
           R10          1.08285   1.08296
           R11          1.09060   1.09088
           R12          0.94871   0.94891
           A1         109.16268 108.79945
           A2         110.44326 110.16419
           A3         109.59926 110.08964
           A4         110.17523 110.07719
           A5         109.64617 109.87952
           A6         107.79656 107.82491
           A7         110.10024 110.11141
           A8         113.94164 113.69553
           A9         109.69732 109.49390
           A10        107.82191 107.78054
           A11        108.12102 108.93558
           A12        109.67070 109.21575
           A13        107.39912 107.53947
           A14        113.10910 113.18069
           A15        109.34902 109.55655
           A16        109.80952 109.55764
           A17        106.20524 106.30349
           A18        110.99165 110.88905
           A19        107.13466 107.12715
           A20        108.03801 108.43453
           D1        -178.11721-177.67688
           D2          60.60413  61.57157
           D3         -58.01397 -57.21381
           D4          50.02539  60.02554
           D5         -71.33437 -62.06728
           D6         172.00453-178.76277
           D7         171.46681-179.16939
           D8          50.10705  58.73778
           D9         -66.55404 -57.95770
           D10        -70.04898 -60.56710
           D11        168.59126 177.34008
           D12         51.93016  60.64459
           D13        -75.43467 -73.64038
           D14        166.43773 167.92313
           D15         49.15478  50.67450
           D16         46.79617  48.76088
           D17        -71.33143 -69.67560
           D18        171.38562 173.07577
           D19        163.61149 165.95315
           D20         45.48390  47.51666
           D21        -71.79906 -69.73197
           D22         54.04020  48.58034
           D23        173.98387 168.88736
           D24        -69.90393 -75.00600
                          Input orientation:                          
 ---------------------------------------------------------------------
 Center     Atomic      Atomic             Coordinates (Angstroms)
 Number     Number       Type             X           Y           Z
 ---------------------------------------------------------------------
      1          6           0        1.318017    2.405437    0.785477
      2          8           0        1.341307    3.077455    2.026108
      3          6           0        2.629903    1.657769    0.608576
      4          6           0        2.894727    0.616500    1.695325
      5          8           0        3.254128    1.181056    2.922305
      6          1           0        1.182490    3.118027   -0.024197
      7          1           0        0.485710    1.704728    0.755420
      8          1           0        0.517555    3.521035    2.171609
      9          1           0        3.451654    2.366874    0.592407
     10          1           0        2.603187    1.164702   -0.360881
     11          1           0        3.721997   -0.015812    1.397645
     12          1           0        2.021130   -0.027646    1.804536
     13          1           0        2.634396    1.869273    3.128970
 ---------------------------------------------------------------------
                    Distance matrix (angstroms):
                    1          2          3          4          5
     1  C    0.000000
     2  O    1.411140   0.000000
     3  C    1.520312   2.384404   0.000000
     4  C    2.552280   2.928964   1.528200   0.000000
     5  O    3.132678   2.838729   2.443410   1.397631   0.000000
     6  H    1.087071   2.056847   2.151222   3.485132   4.089671
     7  H    1.088407   2.056958   2.149728   2.805534   3.554400
     8  H    1.951066   0.946837   3.221311   3.783399   3.678026
     9  H    2.142702   2.648393   1.085526   2.142523   2.621756
    10  H    2.122552   3.308880   1.087969   2.147907   3.347134
    11  H    3.466456   3.953600   2.148528   1.082963   1.993987
    12  H    2.729971   3.186362   2.154425   1.090882   2.056855
    13  H    2.740855   2.085206   2.529257   1.921601   0.948905
                    6          7          8          9         10
     6  H    0.000000
     7  H    1.758043   0.000000
     8  H    2.329403   2.303384   0.000000
     9  H    2.468509   3.043326   3.526315   0.000000
    10  H    2.438691   2.453867   4.039266   1.753246   0.000000
    11  H    4.276877   3.721057   4.834951   2.529562   2.395363
    12  H    3.734011   2.541511   3.871513   3.041280   2.539590
    13  H    3.689157   3.205880   2.850591   2.711028   3.560401
                   11         12         13
    11  H    0.000000
    12  H    1.748900   0.000000
    13  H    2.780991   2.393433   0.000000
 Stoichiometry    C3H8O2
 Framework group  C1[X(C3H8O2)]
 Deg. of freedom    33
 Full point group                 C1      NOp   1
 Largest Abelian subgroup         C1      NOp   1
 Largest concise Abelian subgroup C1      NOp   1
                         Standard orientation:                         
 ---------------------------------------------------------------------
 Center     Atomic      Atomic             Coordinates (Angstroms)
 Number     Number       Type             X           Y           Z
 ---------------------------------------------------------------------
      1          6           0        1.287596    0.464193    0.174698
      2          8           0        1.324746   -0.923131   -0.080775
      3          6           0       -0.026218    1.023471   -0.347268
      4          6           0       -1.260674    0.398965    0.301966
      5          8           0       -1.513367   -0.903776   -0.136651
      6          1           0        2.123746    0.957762   -0.314145
      7          1           0        1.370049    0.649768    1.243994
      8          1           0        2.120943   -1.297414    0.269202
      9          1           0       -0.080986    0.876990   -1.421470
     10          1           0       -0.027882    2.095556   -0.162046
     11          1           0       -2.137760    0.980964    0.047392
     12          1           0       -1.157943    0.430838    1.387532
     13          1           0       -0.705428   -1.398985   -0.087425
 ---------------------------------------------------------------------
 Rotational constants (GHZ):      7.8955444      3.8829130      2.8699775

 **********************************************************************

            Population analysis using the SCF density.

 **********************************************************************

 Orbital symmetries:
       Occupied  (A) (A) (A) (A) (A) (A) (A) (A) (A) (A) (A) (A)
                 (A) (A) (A) (A) (A) (A) (A) (A) (A)
       Virtual   (A) (A) (A) (A) (A) (A) (A) (A) (A) (A) (A) (A)
                 (A) (A) (A) (A) (A) (A) (A) (A) (A) (A) (A) (A)
                 (A) (A) (A) (A) (A) (A) (A) (A) (A) (A) (A) (A)
                 (A) (A) (A) (A) (A) (A) (A) (A) (A) (A) (A) (A)
                 (A) (A) (A) (A) (A) (A) (A) (A) (A) (A) (A) (A)
                 (A) (A) (A) (A) (A) (A) (A) (A) (A) (A)
 The electronic state is 1-A.
 Alpha  occ. eigenvalues --  -20.57560 -20.53196 -11.28369 -11.26201 -11.22109
 Alpha  occ. eigenvalues --   -1.38135  -1.34258  -1.04771  -0.91432  -0.81276
 Alpha  occ. eigenvalues --   -0.72547  -0.69046  -0.62980  -0.60526  -0.60019
 Alpha  occ. eigenvalues --   -0.56144  -0.52510  -0.51233  -0.46639  -0.44463
 Alpha  occ. eigenvalues --   -0.41831
 Alpha virt. eigenvalues --    0.20915   0.25589   0.28873   0.29494   0.31386
 Alpha virt. eigenvalues --    0.32094   0.32691   0.35059   0.38966   0.39849
 Alpha virt. eigenvalues --    0.45433   0.46011   0.73319   0.73708   0.79345
 Alpha virt. eigenvalues --    0.80798   0.82765   0.89638   0.92431   0.96109
 Alpha virt. eigenvalues --    1.06653   1.09333   1.09766   1.11825   1.12894
 Alpha virt. eigenvalues --    1.16328   1.18028   1.20324   1.21094   1.23500
 Alpha virt. eigenvalues --    1.25327   1.27640   1.35057   1.37098   1.44781
 Alpha virt. eigenvalues --    1.49486   1.57403   1.66007   1.70288   1.77973
 Alpha virt. eigenvalues --    1.84505   1.92591   1.95565   1.97494   2.03574
 Alpha virt. eigenvalues --    2.08762   2.16053   2.23149   2.25468   2.32997
 Alpha virt. eigenvalues --    2.37317   2.48952   2.49491   2.55634   2.62910
 Alpha virt. eigenvalues --    2.68628   2.73867   2.77884   2.78729   2.88938
 Alpha virt. eigenvalues --    2.91354   3.00709   3.03491   3.20283   3.23578
 Alpha virt. eigenvalues --    4.20277   4.25211   4.60819   4.78560   4.92461
          Condensed to atoms (all electrons):
               1          2          3          4          5          6
     1  C    4.804833   0.195463   0.352722  -0.048437  -0.000335   0.407684
     2  O    0.195463   8.417372  -0.059021   0.005461  -0.007233  -0.038104
     3  C    0.352722  -0.059021   5.196112   0.340486  -0.049709  -0.044085
     4  C   -0.048437   0.005461   0.340486   4.733532   0.233911   0.004948
     5  O   -0.000335  -0.007233  -0.049709   0.233911   8.402328  -0.000163
     6  H    0.407684  -0.038104  -0.044085   0.004948  -0.000163   0.568939
     7  H    0.397387  -0.040936  -0.042603  -0.007317   0.000093  -0.044148
     8  H   -0.020748   0.262515   0.005770  -0.000237   0.000271  -0.002810
     9  H   -0.040905   0.001779   0.389571  -0.039522   0.002487  -0.004600
    10  H   -0.041824   0.002898   0.381147  -0.033558   0.003188  -0.001547
    11  H    0.004656  -0.000068  -0.042391   0.413957  -0.039887  -0.000088
    12  H   -0.007896   0.000224  -0.056492   0.394581  -0.042126  -0.000083
    13  H   -0.000300   0.018053  -0.006285  -0.024801   0.260322   0.000198
               7          8          9         10         11         12
     1  C    0.397387  -0.020748  -0.040905  -0.041824   0.004656  -0.007896
     2  O   -0.040936   0.262515   0.001779   0.002898  -0.000068   0.000224
     3  C   -0.042603   0.005770   0.389571   0.381147  -0.042391  -0.056492
     4  C   -0.007317  -0.000237  -0.039522  -0.033558   0.413957   0.394581
     5  O    0.000093   0.000271   0.002487   0.003188  -0.039887  -0.042126
     6  H   -0.044148  -0.002810  -0.004600  -0.001547  -0.000088  -0.000083
     7  H    0.588006  -0.003692   0.004864  -0.000148  -0.000152   0.003667
     8  H   -0.003692   0.310966  -0.000166  -0.000165   0.000009  -0.000047
     9  H    0.004864  -0.000166   0.517739  -0.021170  -0.003667   0.005199
    10  H   -0.000148  -0.000165  -0.021170   0.552282  -0.002814   0.002301
    11  H   -0.000152   0.000009  -0.003667  -0.002814   0.542388  -0.041794
    12  H    0.003667  -0.000047   0.005199   0.002301  -0.041794   0.615910
    13  H    0.000181  -0.000238   0.000118  -0.000022   0.004735  -0.001809
              13
     1  C   -0.000300
     2  O    0.018053
     3  C   -0.006285
     4  C   -0.024801
     5  O    0.260322
     6  H    0.000198
     7  H    0.000181
     8  H   -0.000238
     9  H    0.000118
    10  H   -0.000022
    11  H    0.004735
    12  H   -0.001809
    13  H    0.276188
 Mulliken charges:
               1
     1  C   -0.002301
     2  O   -0.758404
     3  C   -0.365220
     4  C    0.026997
     5  O   -0.763147
     6  H    0.153861
     7  H    0.144798
     8  H    0.448570
     9  H    0.188273
    10  H    0.159432
    11  H    0.165116
    12  H    0.128363
    13  H    0.473661
 Sum of Mulliken charges =  -0.00000
 Mulliken charges with hydrogens summed into heavy atoms:
               1
     1  C    0.296358
     2  O   -0.309834
     3  C   -0.017515
     4  C    0.320477
     5  O   -0.289486
 Electronic spatial extent (au):  <R**2>=            460.5595
 Charge=             -0.0000 electrons
 Dipole moment (field-independent basis, Debye):
    X=              3.2414    Y=              1.4775    Z=              1.2661  Tot=              3.7806
 Quadrupole moment (field-independent basis, Debye-Ang):
   XX=            -30.6448   YY=            -30.1922   ZZ=            -31.8169
   XY=             -4.4868   XZ=              0.9614   YZ=             -1.2298
 Traceless Quadrupole moment (field-independent basis, Debye-Ang):
   XX=              0.2399   YY=              0.6924   ZZ=             -0.9323
   XY=             -4.4868   XZ=              0.9614   YZ=             -1.2298
 Octapole moment (field-independent basis, Debye-Ang**2):
  XXX=             22.5396  YYY=            -11.4471  ZZZ=             -0.2496  XYY=              5.6976
  XXY=             -1.2494  XXZ=              4.0536  XZZ=              1.0813  YZZ=             -2.1598
  YYZ=              1.2185  XYZ=             -1.5687
 Hexadecapole moment (field-independent basis, Debye-Ang**3):
 XXXX=           -306.1488 YYYY=           -160.5312 ZZZZ=            -60.9537 XXXY=            -33.9204
 XXXZ=              5.5404 YYYX=             -8.8869 YYYZ=             -0.0096 ZZZX=              1.5860
 ZZZY=             -0.2073 XXYY=            -78.2949 XXZZ=            -66.7415 YYZZ=            -40.4209
 XXYZ=             -5.8164 YYXZ=              2.8022 ZZXY=             -1.0025
 N-N= 1.955818135866D+02 E-N=-1.021566661012D+03  KE= 2.675856729075D+02
 1\1\GINC-GTX1080DELTA\Scan\RHF\6-31G(d)\C3H8O2\MVEROT\18-Apr-2022\0\\#
  hf/6-31G* Opt=modredundant\\Optimisation de geometrie\\0,1\C,1.318016
 5987,2.4054373905,0.7854771582\O,1.341307476,3.0774552232,2.026108367\
 C,2.6299027495,1.657769031,0.6085760158\C,2.8947265345,0.6165003951,1.
 695324722\O,3.2541278761,1.1810562092,2.9223050181\H,1.1824898854,3.11
 80266724,-0.0241968781\H,0.4857101987,1.7047284304,0.7554195236\H,0.51
 75552997,3.5210348088,2.1716092501\H,3.451653737,2.3668743122,0.592407
 2437\H,2.6031872571,1.1647022493,-0.3608812536\H,3.7219973185,-0.01581
 17665,1.3976446643\H,2.021129545,-0.0276458206,1.8045358482\H,2.634395
 5237,1.8692728651,3.1289703206\\Version=AM64L-G09RevD.01\State=1-A\HF=
 -267.9611161,-267.9603939,-267.9587073,-267.9563145,-267.9544998,-267.
 9531241,-267.9525181,-267.9527958,-267.9537737,-267.9550948,-267.95636
 46,-267.957265,-267.9576061,-267.9573261,-267.9564738,-267.9552214,-26
 7.95388,-267.9528481,-267.9524797,-267.9529439,-267.9541397,-267.95571
 14,-267.9571567,-267.9579788,-267.9578462,-267.9566683,-267.9545781,-2
 67.951913,-267.9491694,-267.9468779,-267.9454618,-267.9451292,-267.945
 8155,-267.9472118,-267.9489054,-267.9608287,-267.9611161\RMSD=3.339e-0
 9,2.651e-09,2.983e-09,3.070e-09,9.980e-09,3.899e-09,2.866e-09,3.659e-0
 9,2.358e-09,9.330e-09,3.592e-09,3.475e-09,3.143e-09,5.773e-09,3.899e-0
 9,8.302e-09,1.961e-09,7.298e-09,2.818e-09,2.632e-09,4.671e-09,7.926e-0
 9,6.356e-09,7.395e-09,9.938e-09,4.305e-09,4.327e-09,4.972e-09,3.834e-0
 9,7.033e-09,5.247e-09,6.991e-09,3.615e-09,3.941e-09,6.754e-09,9.996e-0
 9,3.692e-09\PG=C01 [X(C3H8O2)]\\@


 CHARLIE BROWN -- WHICH DO YOU THINK LASTS LONGER IN LIFE, THE GOOD THINGS 
                  OR THE BAD THINGS?
 LINUS --         GOOD THINGS LAST EIGHT SECONDS ..
                  BAD THINGS LAST THREE WEEKS
 CHARLIE BROWN -- WHAT ABOUT IN BETWEEN?
 SNOOPY --        IN BETWEEN YOU SHOULD TAKE A NAP ...
 Job cpu time:       0 days  0 hours  7 minutes  2.6 seconds.
 File lengths (MBytes):  RWF=    137 Int=      0 D2E=      0 Chk=      5 Scr=      2
 Normal termination of Gaussian 09 at Mon Apr 18 00:55:36 2022.
