 Entering Gaussian System, Link 0=g09
 Input=/scratch/mverot/CH3Cl_opt/CH3Cl_opt.com
 Output=/scratch/mverot/CH3Cl_opt/CH3Cl_opt.log
 Initial command:
 /opt/g09/l1.exe "/scratch/mverot/CH3Cl_opt/Gau-2628178.inp" -scrdir="/scratch/mverot/CH3Cl_opt/"
 Entering Link 1 = /opt/g09/l1.exe PID=   2628180.
  
 Copyright (c) 1988,1990,1992,1993,1995,1998,2003,2009,2013,
            Gaussian, Inc.  All Rights Reserved.
  
 This is part of the Gaussian(R) 09 program.  It is based on
 the Gaussian(R) 03 system (copyright 2003, Gaussian, Inc.),
 the Gaussian(R) 98 system (copyright 1998, Gaussian, Inc.),
 the Gaussian(R) 94 system (copyright 1995, Gaussian, Inc.),
 the Gaussian 92(TM) system (copyright 1992, Gaussian, Inc.),
 the Gaussian 90(TM) system (copyright 1990, Gaussian, Inc.),
 the Gaussian 88(TM) system (copyright 1988, Gaussian, Inc.),
 the Gaussian 86(TM) system (copyright 1986, Carnegie Mellon
 University), and the Gaussian 82(TM) system (copyright 1983,
 Carnegie Mellon University). Gaussian is a federally registered
 trademark of Gaussian, Inc.
  
 This software contains proprietary and confidential information,
 including trade secrets, belonging to Gaussian, Inc.
  
 This software is provided under written license and may be
 used, copied, transmitted, or stored only in accord with that
 written license.
  
 The following legend is applicable only to US Government
 contracts under FAR:
  
                    RESTRICTED RIGHTS LEGEND
  
 Use, reproduction and disclosure by the US Government is
 subject to restrictions as set forth in subparagraphs (a)
 and (c) of the Commercial Computer Software - Restricted
 Rights clause in FAR 52.227-19.
  
 Gaussian, Inc.
 340 Quinnipiac St., Bldg. 40, Wallingford CT 06492
  
  
 ---------------------------------------------------------------
 Warning -- This program may not be used in any manner that
 competes with the business of Gaussian, Inc. or will provide
 assistance to any competitor of Gaussian, Inc.  The licensee
 of this program is prohibited from giving any competitor of
 Gaussian, Inc. access to this program.  By using this program,
 the user acknowledges that Gaussian, Inc. is engaged in the
 business of creating and licensing software in the field of
 computational chemistry and represents and warrants to the
 licensee that it is not a competitor of Gaussian, Inc. and that
 it will not use this program in any manner prohibited above.
 ---------------------------------------------------------------
  

 Cite this work as:
 Gaussian 09, Revision D.01,
 M. J. Frisch, G. W. Trucks, H. B. Schlegel, G. E. Scuseria, 
 M. A. Robb, J. R. Cheeseman, G. Scalmani, V. Barone, B. Mennucci, 
 G. A. Petersson, H. Nakatsuji, M. Caricato, X. Li, H. P. Hratchian, 
 A. F. Izmaylov, J. Bloino, G. Zheng, J. L. Sonnenberg, M. Hada, 
 M. Ehara, K. Toyota, R. Fukuda, J. Hasegawa, M. Ishida, T. Nakajima, 
 Y. Honda, O. Kitao, H. Nakai, T. Vreven, J. A. Montgomery, Jr., 
 J. E. Peralta, F. Ogliaro, M. Bearpark, J. J. Heyd, E. Brothers, 
 K. N. Kudin, V. N. Staroverov, T. Keith, R. Kobayashi, J. Normand, 
 K. Raghavachari, A. Rendell, J. C. Burant, S. S. Iyengar, J. Tomasi, 
 M. Cossi, N. Rega, J. M. Millam, M. Klene, J. E. Knox, J. B. Cross, 
 V. Bakken, C. Adamo, J. Jaramillo, R. Gomperts, R. E. Stratmann, 
 O. Yazyev, A. J. Austin, R. Cammi, C. Pomelli, J. W. Ochterski, 
 R. L. Martin, K. Morokuma, V. G. Zakrzewski, G. A. Voth, 
 P. Salvador, J. J. Dannenberg, S. Dapprich, A. D. Daniels, 
 O. Farkas, J. B. Foresman, J. V. Ortiz, J. Cioslowski, 
 and D. J. Fox, Gaussian, Inc., Wallingford CT, 2013.
 
 ******************************************
 Gaussian 09:  AM64L-G09RevD.01 24-Apr-2013
                11-Apr-2022 
 ******************************************
 ----------
 #n AM1 Opt
 ----------
 1/14=-1,18=20,19=15,26=1,38=1/1,3;
 2/9=110,12=2,17=6,18=5,40=1/2;
 3/5=2,16=1,25=1,41=700000,71=1/1,2,3;
 4/35=1/1;
 5/5=2,35=1,38=5/2;
 6/7=2,8=2,9=2,10=2,28=1/1;
 7//1,2,3,16;
 1/14=-1,18=20,19=15,26=1/3(2);
 2/9=110/2;
 99//99;
 2/9=110/2;
 3/5=2,16=1,25=1,41=700000,71=1,135=20/1,2,3;
 4/5=5,16=3,35=1/1;
 5/5=2,35=1,38=5/2;
 7//1,2,3,16;
 1/14=-1,18=20,19=15,26=1/3(-5);
 2/9=110/2;
 6/7=2,8=2,9=2,10=2,19=2,28=1/1;
 99/9=1/99;
 -------------------------------------------------------
 Optimisation of chloromethane using the AM1 hamiltonian
 -------------------------------------------------------
 Symbolic Z-matrix:
 Charge =  0 Multiplicity = 1
 6                     0.        0.        0. 
 1                     0.        0.        1.09 
 1                     1.02766   0.       -0.36333 
 1                    -0.51383  -0.88998  -0.36333 
 17                   -0.77481   1.34201  -0.54787 
 

 GradGradGradGradGradGradGradGradGradGradGradGradGradGradGradGradGradGrad
 Berny optimization.
 Initialization pass.
                           ----------------------------
                           !    Initial Parameters    !
                           ! (Angstroms and Degrees)  !
 --------------------------                            --------------------------
 ! Name  Definition              Value          Derivative Info.                !
 --------------------------------------------------------------------------------
 ! R1    R(1,2)                  1.09           estimate D2E/DX2                !
 ! R2    R(1,3)                  1.09           estimate D2E/DX2                !
 ! R3    R(1,4)                  1.09           estimate D2E/DX2                !
 ! R4    R(1,5)                  1.6436         estimate D2E/DX2                !
 ! A1    A(2,1,3)              109.4712         estimate D2E/DX2                !
 ! A2    A(2,1,4)              109.4712         estimate D2E/DX2                !
 ! A3    A(2,1,5)              109.4712         estimate D2E/DX2                !
 ! A4    A(3,1,4)              109.4712         estimate D2E/DX2                !
 ! A5    A(3,1,5)              109.4712         estimate D2E/DX2                !
 ! A6    A(4,1,5)              109.4712         estimate D2E/DX2                !
 ! D1    D(2,1,4,3)           -120.0            estimate D2E/DX2                !
 ! D2    D(2,1,5,3)            120.0            estimate D2E/DX2                !
 ! D3    D(2,1,5,4)           -120.0            estimate D2E/DX2                !
 ! D4    D(3,1,5,4)            120.0            estimate D2E/DX2                !
 --------------------------------------------------------------------------------
 Trust Radius=3.00D-01 FncErr=1.00D-07 GrdErr=1.00D-07
 Number of steps in this run=     24 maximum allowed number of steps=    100.
 GradGradGradGradGradGradGradGradGradGradGradGradGradGradGradGradGradGrad

                          Input orientation:                          
 ---------------------------------------------------------------------
 Center     Atomic      Atomic             Coordinates (Angstroms)
 Number     Number       Type             X           Y           Z
 ---------------------------------------------------------------------
      1          6           0        0.000000    0.000000    0.000000
      2          1           0        0.000000    0.000000    1.090000
      3          1           0        1.027662    0.000000   -0.363333
      4          1           0       -0.513831   -0.889981   -0.363333
      5         17           0       -0.774811    1.342012   -0.547874
 ---------------------------------------------------------------------
                    Distance matrix (angstroms):
                    1          2          3          4          5
     1  C    0.000000
     2  H    1.090000   0.000000
     3  H    1.090000   1.779962   0.000000
     4  H    1.090000   1.779962   1.779963   0.000000
     5  Cl   1.643622   2.254764   2.254764   2.254764   0.000000
 Stoichiometry    CH3Cl
 Framework group  C3V[C3(CCl),3SGV(H)]
 Deg. of freedom     3
 Full point group                 C3V     NOp   6
 Largest Abelian subgroup         CS      NOp   2
 Largest concise Abelian subgroup CS      NOp   2
                         Standard orientation:                         
 ---------------------------------------------------------------------
 Center     Atomic      Atomic             Coordinates (Angstroms)
 Number     Number       Type             X           Y           Z
 ---------------------------------------------------------------------
      1          6           0        0.000000   -0.000000   -1.032753
      2          1           0        0.000000    1.027662   -1.396086
      3          1           0       -0.889981   -0.513831   -1.396086
      4          1           0        0.889981   -0.513831   -1.396086
      5         17           0       -0.000000    0.000000    0.610869
 ---------------------------------------------------------------------
 Rotational constants (GHZ):    158.2742982     15.3673186     15.3673186
 Standard basis: VSTO-6G (5D, 7F)
 There are     8 symmetry adapted cartesian basis functions of A'  symmetry.
 There are     3 symmetry adapted cartesian basis functions of A"  symmetry.
 There are     8 symmetry adapted basis functions of A'  symmetry.
 There are     3 symmetry adapted basis functions of A"  symmetry.
    11 basis functions,    66 primitive gaussians,    11 cartesian basis functions
     7 alpha electrons        7 beta electrons
       nuclear repulsion energy        37.4430921265 Hartrees.



 Warning!  Cl atom    5 may be hypervalent but has no d functions.



 Integral buffers will be    131072 words long.
 Regular integral format.
 Two-electron integral symmetry is turned off.
 Do NDO integrals.
 One-electron integrals computed using PRISM.
 NBasis=    11 RedAO= T EigKep=  7.07D-01  NBF=     8     3
 NBsUse=    11 1.00D-06 EigRej= -1.00D+00 NBFU=     8     3
 Simple Huckel Guess.
 Initial guess orbital symmetries:
       Occupied  (A1) (A1) (E) (E) (A1) (E) (E)
       Virtual   (A1) (E) (E) (A1)
 The electronic state of the initial guess is 1-A1.
 Overlap will be assumed to be unity.
 Keep J ints in memory in canonical form, NReq=883806.
 Requested convergence on RMS density matrix=1.00D-08 within 128 cycles.
 Requested convergence on MAX density matrix=1.00D-06.
 Requested convergence on             energy=1.00D-06.
 No special actions if energy rises.
 Fock symm off for IB=2 I1=    1 I=    9 J=    4 Cut=1.00D-07 Err=2.74D-04
 Fock matrix is not symmetric: symmetry in diagonalization turned off.
 SCF Done:  E(RAM1) = -0.237017083216E-01 A.U. after   11 cycles
            NFock= 10  Conv=0.34D-08     -V/T= 0.9972

 **********************************************************************

            Population analysis using the SCF density.

 **********************************************************************

 Orbital symmetries:
       Occupied  (A1) (A1) (E) (E) (A1) (E) (E)
       Virtual   (A1) (E) (E) (A1)
 The electronic state is 1-A1.
 Alpha  occ. eigenvalues --   -1.39861  -1.07671  -0.57080  -0.57080  -0.56377
 Alpha  occ. eigenvalues --   -0.41244  -0.41244
 Alpha virt. eigenvalues --    0.07273   0.14502   0.14502   0.16492
          Condensed to atoms (all electrons):
               1          2          3          4          5
     1  C    4.201437   0.000000   0.000000   0.000000   0.000000
     2  H    0.000000   0.909223   0.000000   0.000000   0.000000
     3  H    0.000000   0.000000   0.909223   0.000000   0.000000
     4  H    0.000000   0.000000   0.000000   0.909223   0.000000
     5  Cl   0.000000   0.000000   0.000000   0.000000   7.070894
 Mulliken charges:
               1
     1  C   -0.201437
     2  H    0.090777
     3  H    0.090777
     4  H    0.090777
     5  Cl  -0.070894
 Sum of Mulliken charges =  -0.00000
 Mulliken charges with hydrogens summed into heavy atoms:
               1
     1  C    0.070894
     5  Cl  -0.070894
 Charge=             -0.0000 electrons
 Dipole moment (field-independent basis, Debye):
    X=             -0.0000    Y=             -0.0000    Z=             -1.1681  Tot=              1.1681
 N-N= 3.744309212648D+01 E-N=-5.648839351187D+01  KE=-8.434069944371D+00
 Symmetry A'   KE=-6.811785270844D+00
 Symmetry A"   KE=-1.622284673527D+00
 Calling FoFJK, ICntrl=      2127 FMM=F ISym2X=1 I1Cent= 0 IOpClX= 0 NMat=1 NMatS=1 NMatT=0.
 ***** Axes restored to original set *****
 -------------------------------------------------------------------
 Center     Atomic                   Forces (Hartrees/Bohr)
 Number     Number              X              Y              Z
 -------------------------------------------------------------------
      1        6           0.018798004   -0.032559095    0.013292195
      2        1           0.000766059   -0.001326855    0.019674202
      3        1           0.018804369   -0.001326853   -0.005835819
      4        1          -0.008253094   -0.016948489   -0.005835820
      5       17          -0.030115339    0.052161292   -0.021294759
 -------------------------------------------------------------------
 Cartesian Forces:  Max     0.052161292 RMS     0.021353544

 GradGradGradGradGradGradGradGradGradGradGradGradGradGradGradGradGradGrad
 Berny optimization.
 FormGI is forming the generalized inverse of G from B-inverse, IUseBI=4.
 Internal  Forces:  Max     0.063884277 RMS     0.019365497
 Search for a local minimum.
 Step number   1 out of a maximum of   24
 All quantities printed in internal units (Hartrees-Bohrs-Radians)
 Mixed Optimization -- RFO/linear search
 Second derivative matrix not updated -- first step.
 The second derivative matrix:
                          R1        R2        R3        R4        A1
           R1           0.34813
           R2           0.00000   0.34813
           R3           0.00000   0.00000   0.34813
           R4           0.00000   0.00000   0.00000   0.43630
           A1           0.00000   0.00000   0.00000   0.00000   0.16000
           A2           0.00000   0.00000   0.00000   0.00000   0.00000
           A3           0.00000   0.00000   0.00000   0.00000   0.00000
           A4           0.00000   0.00000   0.00000   0.00000   0.00000
           A5           0.00000   0.00000   0.00000   0.00000   0.00000
           A6           0.00000   0.00000   0.00000   0.00000   0.00000
           D1           0.00000   0.00000   0.00000   0.00000   0.00000
           D2           0.00000   0.00000   0.00000   0.00000   0.00000
           D3           0.00000   0.00000   0.00000   0.00000   0.00000
           D4           0.00000   0.00000   0.00000   0.00000   0.00000
                          A2        A3        A4        A5        A6
           A2           0.16000
           A3           0.00000   0.16000
           A4           0.00000   0.00000   0.16000
           A5           0.00000   0.00000   0.00000   0.16000
           A6           0.00000   0.00000   0.00000   0.00000   0.16000
           D1           0.00000   0.00000   0.00000   0.00000   0.00000
           D2           0.00000   0.00000   0.00000   0.00000   0.00000
           D3           0.00000   0.00000   0.00000   0.00000   0.00000
           D4           0.00000   0.00000   0.00000   0.00000   0.00000
                          D1        D2        D3        D4
           D1           0.00235
           D2           0.00000   0.01777
           D3           0.00000   0.00000   0.01777
           D4           0.00000   0.00000   0.00000   0.01777
 ITU=  0
     Eigenvalues ---    0.05812   0.06724   0.08890   0.16000   0.16000
     Eigenvalues ---    0.34813   0.34813   0.34813   0.43630
 RFO step:  Lambda=-1.23965224D-02 EMin= 5.81189718D-02
 Linear search not attempted -- first point.
 Iteration  1 RMS(Cart)=  0.04614802 RMS(Int)=  0.00022072
 Iteration  2 RMS(Cart)=  0.00016541 RMS(Int)=  0.00005249
 Iteration  3 RMS(Cart)=  0.00000003 RMS(Int)=  0.00005249
 ClnCor:  largest displacement from symmetrization is 5.02D-04 for atom     4.
 Variable       Old X    -DE/DX   Delta X   Delta X   Delta X     New X
                                 (Linear)    (Quad)   (Total)
    R1        2.05980   0.01967   0.00000   0.05457   0.05467   2.11447
    R2        2.05980   0.01967   0.00000   0.05457   0.05467   2.11447
    R3        2.05980   0.01967   0.00000   0.05457   0.05467   2.11447
    R4        3.10600   0.06388   0.00000   0.14238   0.14238   3.24837
    A1        1.91063  -0.00048   0.00000  -0.00787  -0.00846   1.90217
    A2        1.91063  -0.00101   0.00000  -0.00873  -0.00846   1.90217
    A3        1.91063   0.00074   0.00000   0.00841   0.00839   1.91902
    A4        1.91063  -0.00101   0.00000  -0.00873  -0.00846   1.90217
    A5        1.91063   0.00074   0.00000   0.00841   0.00839   1.91902
    A6        1.91063   0.00103   0.00000   0.00851   0.00839   1.91902
    D1       -2.09440   0.00182   0.00000   0.02033   0.02040  -2.07400
    D2        2.09440   0.00032   0.00000   0.00065   0.00000   2.09440
    D3       -2.09440   0.00016   0.00000   0.00033   0.00000  -2.09440
    D4        2.09440  -0.00016   0.00000  -0.00033  -0.00000   2.09440
         Item               Value     Threshold  Converged?
 Maximum Force            0.063884     0.000450     NO 
 RMS     Force            0.019365     0.000300     NO 
 Maximum Displacement     0.110154     0.001800     NO 
 RMS     Displacement     0.046194     0.001200     NO 
 Predicted change in Energy=-6.384278D-03
 GradGradGradGradGradGradGradGradGradGradGradGradGradGradGradGradGradGrad

                          Input orientation:                          
 ---------------------------------------------------------------------
 Center     Atomic      Atomic             Coordinates (Angstroms)
 Number     Number       Type             X           Y           Z
 ---------------------------------------------------------------------
      1          6           0        0.001862   -0.003226    0.001317
      2          1           0        0.006556   -0.011356    1.120208
      3          1           0        1.058328   -0.011356   -0.367221
      4          1           0       -0.519330   -0.922217   -0.367222
      5         17           0       -0.808465    1.400303   -0.571671
 ---------------------------------------------------------------------
                    Distance matrix (angstroms):
                    1          2          3          4          5
     1  C    0.000000
     2  H    1.118931   0.000000
     3  H    1.118931   1.821722   0.000000
     4  H    1.118931   1.821722   1.821722   0.000000
     5  Cl   1.718965   2.349361   2.349361   2.349361   0.000000
 Stoichiometry    CH3Cl
 Framework group  C3V[C3(CCl),3SGV(H)]
 Deg. of freedom     3
 Full point group                 C3V     NOp   6
 Largest Abelian subgroup         CS      NOp   2
 Largest concise Abelian subgroup CS      NOp   2
                         Standard orientation:                         
 ---------------------------------------------------------------------
 Center     Atomic      Atomic             Coordinates (Angstroms)
 Number     Number       Type             X           Y           Z
 ---------------------------------------------------------------------
      1          6           0       -0.000000    0.000000   -1.079883
      2          1           0       -0.000000    1.051772   -1.461698
      3          1           0       -0.910861   -0.525886   -1.461698
      4          1           0        0.910861   -0.525886   -1.461698
      5         17           0        0.000000   -0.000000    0.639082
 ---------------------------------------------------------------------
 Rotational constants (GHZ):    151.1011348     14.0719162     14.0719162
 Standard basis: VSTO-6G (5D, 7F)
 There are     8 symmetry adapted cartesian basis functions of A'  symmetry.
 There are     3 symmetry adapted cartesian basis functions of A"  symmetry.
 There are     8 symmetry adapted basis functions of A'  symmetry.
 There are     3 symmetry adapted basis functions of A"  symmetry.
    11 basis functions,    66 primitive gaussians,    11 cartesian basis functions
     7 alpha electrons        7 beta electrons
       nuclear repulsion energy        36.9098366577 Hartrees.
 Integral buffers will be    131072 words long.
 Regular integral format.
 Two-electron integral symmetry is turned off.
 Do NDO integrals.
 One-electron integrals computed using PRISM.
 NBasis=    11 RedAO= T EigKep=  7.07D-01  NBF=     8     3
 NBsUse=    11 1.00D-06 EigRej= -1.00D+00 NBFU=     8     3
 Initial guess from the checkpoint file:  "/scratch/mverot/CH3Cl_opt/Gau-2628180.chk"
 B after Tr=     0.000000   -0.000000   -0.000000
         Rot=    1.000000   -0.000000   -0.000000   -0.000000 Ang=   0.00 deg.
 Initial guess orbital symmetries:
       Occupied  (A1) (A1) (E) (E) (A1) (E) (E)
       Virtual   (A1) (E) (E) (A1)
 Overlap will be assumed to be unity.
 Keep J ints in memory in canonical form, NReq=883806.
 Requested convergence on RMS density matrix=1.00D-08 within 128 cycles.
 Requested convergence on MAX density matrix=1.00D-06.
 Requested convergence on             energy=1.00D-06.
 No special actions if energy rises.
 An orbital has undefined symmetry, so N**3 symmetry is turned off.
 SCF Done:  E(RAM1) = -0.297744808138E-01 A.U. after   10 cycles
            NFock=  9  Conv=0.53D-09     -V/T= 0.9964
 Calling FoFJK, ICntrl=      2127 FMM=F ISym2X=1 I1Cent= 0 IOpClX= 0 NMat=1 NMatS=1 NMatT=0.
 ***** Axes restored to original set *****
 -------------------------------------------------------------------
 Center     Atomic                   Forces (Hartrees/Bohr)
 Number     Number              X              Y              Z
 -------------------------------------------------------------------
      1        6           0.008680625   -0.015035283    0.006138128
      2        1          -0.001339162    0.002319496   -0.003619297
      3        1          -0.003858693    0.002319496   -0.000056142
      4        1          -0.000079396    0.004501475   -0.000056141
      5       17          -0.003403374    0.005894816   -0.002406548
 -------------------------------------------------------------------
 Cartesian Forces:  Max     0.015035283 RMS     0.005489572

 GradGradGradGradGradGradGradGradGradGradGradGradGradGradGradGradGradGrad
 Berny optimization.
 Using GEDIIS/GDIIS optimizer.
 FormGI is forming the generalized inverse of G from B-inverse, IUseBI=4.
 Internal  Forces:  Max     0.007219645 RMS     0.002889701
 Search for a local minimum.
 Step number   2 out of a maximum of   24
 All quantities printed in internal units (Hartrees-Bohrs-Radians)
 Mixed Optimization -- RFO/linear search
 Update second derivatives using D2CorX and points    1    2
 DE= -6.07D-03 DEPred=-6.38D-03 R= 9.51D-01
 TightC=F SS=  1.41D+00  RLast= 1.73D-01 DXNew= 5.0454D-01 5.2031D-01
 Trust test= 9.51D-01 RLast= 1.73D-01 DXMaxT set to 5.05D-01
 The second derivative matrix:
                          R1        R2        R3        R4        A1
           R1           0.36291
           R2           0.01478   0.36291
           R3           0.01478   0.01478   0.36291
           R4           0.01084   0.01084   0.01084   0.38077
           A1          -0.00047  -0.00047  -0.00047   0.00064   0.16000
           A2          -0.00333  -0.00333  -0.00333  -0.00631   0.00017
           A3           0.00182   0.00182   0.00182   0.00265  -0.00008
           A4          -0.00333  -0.00333  -0.00333  -0.00631   0.00017
           A5           0.00182   0.00182   0.00182   0.00265  -0.00008
           A6           0.00340   0.00340   0.00340   0.00650  -0.00017
           D1           0.00958   0.00958   0.00958   0.02323  -0.00056
           D2           0.00169   0.00169   0.00169   0.00412  -0.00010
           D3           0.00085   0.00085   0.00085   0.00206  -0.00005
           D4          -0.00085  -0.00085  -0.00085  -0.00206   0.00005
                          A2        A3        A4        A5        A6
           A2           0.16052
           A3          -0.00033   0.16020
           A4           0.00052  -0.00033   0.16052
           A5          -0.00033   0.00020  -0.00033   0.16020
           A6          -0.00052   0.00034  -0.00052   0.00034   0.16053
           D1          -0.00117   0.00084  -0.00117   0.00084   0.00118
           D2          -0.00021   0.00015  -0.00021   0.00015   0.00021
           D3          -0.00010   0.00007  -0.00010   0.00007   0.00010
           D4           0.00010  -0.00007   0.00010  -0.00007  -0.00010
                          D1        D2        D3        D4
           D1           0.00443
           D2           0.00036   0.01784
           D3           0.00018   0.00003   0.01779
           D4          -0.00018  -0.00003  -0.00002   0.01779
 ITU=  1  0
 Use linear search instead of GDIIS.
     Eigenvalues ---    0.05801   0.06644   0.09124   0.16000   0.16006
     Eigenvalues ---    0.34813   0.34813   0.36716   0.40915
 RFO step:  Lambda=-5.33646506D-04 EMin= 5.80050581D-02
 Quartic linear search produced a step of  0.02766.
 Iteration  1 RMS(Cart)=  0.00864132 RMS(Int)=  0.00026571
 Iteration  2 RMS(Cart)=  0.00016337 RMS(Int)=  0.00020635
 Iteration  3 RMS(Cart)=  0.00000001 RMS(Int)=  0.00020635
 ClnCor:  largest displacement from symmetrization is 4.11D-04 for atom     4.
 Variable       Old X    -DE/DX   Delta X   Delta X   Delta X     New X
                                 (Linear)    (Quad)   (Total)
    R1        2.11447  -0.00364   0.00151  -0.00962  -0.00818   2.10629
    R2        2.11447  -0.00364   0.00151  -0.00962  -0.00818   2.10629
    R3        2.11447  -0.00364   0.00151  -0.00962  -0.00818   2.10629
    R4        3.24837   0.00722   0.00394   0.01979   0.02373   3.27210
    A1        1.90217   0.00088  -0.00023   0.01702   0.01672   1.91889
    A2        1.90217   0.00183  -0.00023   0.01752   0.01672   1.91889
    A3        1.91902  -0.00131   0.00023  -0.01704  -0.01672   1.90230
    A4        1.90217   0.00183  -0.00023   0.01752   0.01672   1.91889
    A5        1.91902  -0.00131   0.00023  -0.01704  -0.01672   1.90230
    A6        1.91902  -0.00184   0.00023  -0.01708  -0.01672   1.90230
    D1       -2.07400  -0.00319   0.00056  -0.04094  -0.04096  -2.11495
    D2        2.09440  -0.00056   0.00000  -0.00040   0.00000   2.09440
    D3       -2.09440  -0.00028  -0.00000  -0.00020   0.00000  -2.09440
    D4        2.09440   0.00028  -0.00000   0.00020   0.00000   2.09440
         Item               Value     Threshold  Converged?
 Maximum Force            0.007220     0.000450     NO 
 RMS     Force            0.002890     0.000300     NO 
 Maximum Displacement     0.021552     0.001800     NO 
 RMS     Displacement     0.008576     0.001200     NO 
 Predicted change in Energy=-2.750397D-04
 GradGradGradGradGradGradGradGradGradGradGradGradGradGradGradGradGradGrad

                          Input orientation:                          
 ---------------------------------------------------------------------
 Center     Atomic      Atomic             Coordinates (Angstroms)
 Number     Number       Type             X           Y           Z
 ---------------------------------------------------------------------
      1          6           0        0.008447   -0.014630    0.005973
      2          1           0        0.003804   -0.006588    1.120537
      3          1           0        1.057721   -0.006588   -0.369926
      4          1           0       -0.523155   -0.919307   -0.369926
      5         17           0       -0.807800    1.399150   -0.571201
 ---------------------------------------------------------------------
                    Distance matrix (angstroms):
                    1          2          3          4          5
     1  C    0.000000
     2  H    1.114603   0.000000
     3  H    1.114603   1.825438   0.000000
     4  H    1.114603   1.825438   1.825438   0.000000
     5  Cl   1.731520   2.344521   2.344521   2.344521   0.000000
 Stoichiometry    CH3Cl
 Framework group  C3V[C3(CCl),3SGV(H)]
 Deg. of freedom     3
 Full point group                 C3V     NOp   6
 Largest Abelian subgroup         CS      NOp   2
 Largest concise Abelian subgroup CS      NOp   2
                         Standard orientation:                         
 ---------------------------------------------------------------------
 Center     Atomic      Atomic             Coordinates (Angstroms)
 Number     Number       Type             X           Y           Z
 ---------------------------------------------------------------------
      1          6           0       -0.000000    0.000000   -1.090290
      2          1           0       -0.000000    1.053917   -1.453056
      3          1           0       -0.912719   -0.526959   -1.453056
      4          1           0        0.912719   -0.526959   -1.453056
      5         17           0        0.000000   -0.000000    0.641230
 ---------------------------------------------------------------------
 Rotational constants (GHZ):    150.4866512     13.9543525     13.9543525
 Standard basis: VSTO-6G (5D, 7F)
 There are     8 symmetry adapted cartesian basis functions of A'  symmetry.
 There are     3 symmetry adapted cartesian basis functions of A"  symmetry.
 There are     8 symmetry adapted basis functions of A'  symmetry.
 There are     3 symmetry adapted basis functions of A"  symmetry.
    11 basis functions,    66 primitive gaussians,    11 cartesian basis functions
     7 alpha electrons        7 beta electrons
       nuclear repulsion energy        36.8841411446 Hartrees.
 Integral buffers will be    131072 words long.
 Regular integral format.
 Two-electron integral symmetry is turned off.
 Do NDO integrals.
 One-electron integrals computed using PRISM.
 NBasis=    11 RedAO= T EigKep=  7.07D-01  NBF=     8     3
 NBsUse=    11 1.00D-06 EigRej= -1.00D+00 NBFU=     8     3
 Initial guess from the checkpoint file:  "/scratch/mverot/CH3Cl_opt/Gau-2628180.chk"
 B after Tr=     0.000000   -0.000000    0.000000
         Rot=    1.000000   -0.000000    0.000000   -0.000000 Ang=   0.00 deg.
 Initial guess orbital symmetries:
       Occupied  (A1) (A1) (E) (E) (A1) (E) (E)
       Virtual   (A1) (E) (E) (A1)
 Overlap will be assumed to be unity.
 Keep J ints in memory in canonical form, NReq=883806.
 Requested convergence on RMS density matrix=1.00D-08 within 128 cycles.
 Requested convergence on MAX density matrix=1.00D-06.
 Requested convergence on             energy=1.00D-06.
 No special actions if energy rises.
 An orbital has undefined symmetry, so N**3 symmetry is turned off.
 SCF Done:  E(RAM1) = -0.301586896877E-01 A.U. after    9 cycles
            NFock=  8  Conv=0.97D-09     -V/T= 0.9964
 Calling FoFJK, ICntrl=      2127 FMM=F ISym2X=1 I1Cent= 0 IOpClX= 0 NMat=1 NMatS=1 NMatT=0.
 ***** Axes restored to original set *****
 -------------------------------------------------------------------
 Center     Atomic                   Forces (Hartrees/Bohr)
 Number     Number              X              Y              Z
 -------------------------------------------------------------------
      1        6           0.003639986   -0.006304640    0.002573859
      2        1          -0.000555977    0.000962981   -0.001527463
      3        1          -0.001625432    0.000962981   -0.000015026
      4        1          -0.000021250    0.001889156   -0.000015026
      5       17          -0.001437326    0.002489522   -0.001016343
 -------------------------------------------------------------------
 Cartesian Forces:  Max     0.006304640 RMS     0.002304027

 GradGradGradGradGradGradGradGradGradGradGradGradGradGradGradGradGradGrad
 Berny optimization.
 Using GEDIIS/GDIIS optimizer.
 FormGI is forming the generalized inverse of G from B-inverse, IUseBI=4.
 Internal  Forces:  Max     0.003049030 RMS     0.001213823
 Search for a local minimum.
 Step number   3 out of a maximum of   24
 All quantities printed in internal units (Hartrees-Bohrs-Radians)
 Mixed Optimization -- RFO/linear search
 Update second derivatives using D2CorX and points    1    2    3
 DE= -3.84D-04 DEPred=-2.75D-04 R= 1.40D+00
 TightC=F SS=  1.41D+00  RLast= 6.42D-02 DXNew= 8.4853D-01 1.9253D-01
 Trust test= 1.40D+00 RLast= 6.42D-02 DXMaxT set to 5.05D-01
 The second derivative matrix:
                          R1        R2        R3        R4        A1
           R1           0.35436
           R2           0.00624   0.35436
           R3           0.00624   0.00624   0.35436
           R4           0.03435   0.03435   0.03435   0.33646
           A1           0.01197   0.01197   0.01197  -0.03491   0.14751
           A2           0.00618   0.00618   0.00618  -0.03167  -0.01122
           A3          -0.00940  -0.00940  -0.00940   0.03399   0.01194
           A4           0.00618   0.00618   0.00618  -0.03167  -0.01122
           A5          -0.00940  -0.00940  -0.00940   0.03399   0.01194
           A6          -0.00615  -0.00615  -0.00615   0.03201   0.01122
           D1           0.01861   0.01861   0.01861  -0.00842  -0.00369
           D2           0.00341   0.00341   0.00341  -0.00186  -0.00075
           D3           0.00171   0.00171   0.00171  -0.00093  -0.00037
           D4          -0.00171  -0.00171  -0.00171   0.00093   0.00037
                          A2        A3        A4        A5        A6
           A2           0.15110
           A3           0.01023   0.14880
           A4          -0.00890   0.01023   0.15110
           A5           0.01023  -0.01120   0.01023   0.14880
           A6           0.00891  -0.01024   0.00891  -0.01024   0.15107
           D1          -0.00716   0.00513  -0.00716   0.00513   0.00711
           D2          -0.00136   0.00100  -0.00136   0.00100   0.00136
           D3          -0.00068   0.00050  -0.00068   0.00050   0.00068
           D4           0.00068  -0.00050   0.00068  -0.00050  -0.00068
                          D1        D2        D3        D4
           D1           0.01369
           D2           0.00203   0.01814
           D3           0.00102   0.00018   0.01786
           D4          -0.00102  -0.00018  -0.00009   0.01786
 ITU=  1  1  0
 Use linear search instead of GDIIS.
     Eigenvalues ---    0.05144   0.06804   0.07492   0.15867   0.16000
     Eigenvalues ---    0.29788   0.34813   0.34813   0.41600
 RFO step:  Lambda=-8.37377578D-08 EMin= 5.14404952D-02
 Quartic linear search produced a step of  0.74910.
 Iteration  1 RMS(Cart)=  0.00644687 RMS(Int)=  0.00028484
 Iteration  2 RMS(Cart)=  0.00009233 RMS(Int)=  0.00026882
 Iteration  3 RMS(Cart)=  0.00000001 RMS(Int)=  0.00026882
 ClnCor:  largest displacement from symmetrization is 2.20D-04 for atom     4.
 Variable       Old X    -DE/DX   Delta X   Delta X   Delta X     New X
                                 (Linear)    (Quad)   (Total)
    R1        2.10629  -0.00152  -0.00613   0.00016  -0.00593   2.10037
    R2        2.10629  -0.00152  -0.00613   0.00016  -0.00593   2.10037
    R3        2.10629  -0.00152  -0.00613   0.00016  -0.00593   2.10037
    R4        3.27210   0.00305   0.01777  -0.00007   0.01770   3.28980
    A1        1.91889   0.00034   0.01253   0.00047   0.01225   1.93114
    A2        1.91889   0.00074   0.01253  -0.00001   0.01225   1.93114
    A3        1.90230  -0.00055  -0.01253  -0.00021  -0.01265   1.88965
    A4        1.91889   0.00074   0.01253  -0.00001   0.01225   1.93114
    A5        1.90230  -0.00055  -0.01253  -0.00021  -0.01265   1.88965
    A6        1.90230  -0.00076  -0.01253  -0.00004  -0.01265   1.88965
    D1       -2.11495  -0.00139  -0.03068  -0.00057  -0.03179  -2.14675
    D2        2.09440  -0.00024   0.00000   0.00033  -0.00000   2.09440
    D3       -2.09440  -0.00012   0.00000   0.00016   0.00000  -2.09440
    D4        2.09440   0.00012  -0.00000  -0.00016   0.00000   2.09440
         Item               Value     Threshold  Converged?
 Maximum Force            0.003049     0.000450     NO 
 RMS     Force            0.001214     0.000300     NO 
 Maximum Displacement     0.016145     0.001800     NO 
 RMS     Displacement     0.006445     0.001200     NO 
 Predicted change in Energy=-8.289490D-05
 GradGradGradGradGradGradGradGradGradGradGradGradGradGradGradGradGradGrad

                          Input orientation:                          
 ---------------------------------------------------------------------
 Center     Atomic      Atomic             Coordinates (Angstroms)
 Number     Number       Type             X           Y           Z
 ---------------------------------------------------------------------
      1          6           0        0.013380   -0.023174    0.009461
      2          1           0        0.001720   -0.002979    1.120682
      3          1           0        1.057162   -0.002979   -0.371939
      4          1           0       -0.526001   -0.917019   -0.371939
      5         17           0       -0.807283    1.398255   -0.570835
 ---------------------------------------------------------------------
                    Distance matrix (angstroms):
                    1          2          3          4          5
     1  C    0.000000
     2  H    1.111466   0.000000
     3  H    1.111466   1.828080   0.000000
     4  H    1.111466   1.828080   1.828080   0.000000
     5  Cl   1.740888   2.340763   2.340763   2.340763   0.000000
 Stoichiometry    CH3Cl
 Framework group  C3V[C3(CCl),3SGV(H)]
 Deg. of freedom     3
 Full point group                 C3V     NOp   6
 Largest Abelian subgroup         CS      NOp   2
 Largest concise Abelian subgroup CS      NOp   2
                         Standard orientation:                         
 ---------------------------------------------------------------------
 Center     Atomic      Atomic             Coordinates (Angstroms)
 Number     Number       Type             X           Y           Z
 ---------------------------------------------------------------------
      1          6           0       -0.000000    0.000000   -1.098070
      2          1           0       -0.000000    1.055442   -1.446492
      3          1           0       -0.914040   -0.527721   -1.446492
      4          1           0        0.914040   -0.527721   -1.446492
      5         17           0        0.000000   -0.000000    0.642817
 ---------------------------------------------------------------------
 Rotational constants (GHZ):    150.0519706     13.8676433     13.8676433
 Standard basis: VSTO-6G (5D, 7F)
 There are     8 symmetry adapted cartesian basis functions of A'  symmetry.
 There are     3 symmetry adapted cartesian basis functions of A"  symmetry.
 There are     8 symmetry adapted basis functions of A'  symmetry.
 There are     3 symmetry adapted basis functions of A"  symmetry.
    11 basis functions,    66 primitive gaussians,    11 cartesian basis functions
     7 alpha electrons        7 beta electrons
       nuclear repulsion energy        36.8653862601 Hartrees.
 Integral buffers will be    131072 words long.
 Regular integral format.
 Two-electron integral symmetry is turned off.
 Do NDO integrals.
 One-electron integrals computed using PRISM.
 NBasis=    11 RedAO= T EigKep=  7.07D-01  NBF=     8     3
 NBsUse=    11 1.00D-06 EigRej= -1.00D+00 NBFU=     8     3
 Initial guess from the checkpoint file:  "/scratch/mverot/CH3Cl_opt/Gau-2628180.chk"
 B after Tr=    -0.000000    0.000000   -0.000000
         Rot=    1.000000    0.000000    0.000000    0.000000 Ang=   0.00 deg.
 Initial guess orbital symmetries:
       Occupied  (A1) (A1) (E) (E) (A1) (E) (E)
       Virtual   (A1) (E) (E) (A1)
 Overlap will be assumed to be unity.
 Keep J ints in memory in canonical form, NReq=883806.
 Requested convergence on RMS density matrix=1.00D-08 within 128 cycles.
 Requested convergence on MAX density matrix=1.00D-06.
 Requested convergence on             energy=1.00D-06.
 No special actions if energy rises.
 An orbital has undefined symmetry, so N**3 symmetry is turned off.
 SCF Done:  E(RAM1) = -0.302438611183E-01 A.U. after    9 cycles
            NFock=  8  Conv=0.38D-09     -V/T= 0.9964
 Calling FoFJK, ICntrl=      2127 FMM=F ISym2X=1 I1Cent= 0 IOpClX= 0 NMat=1 NMatS=1 NMatT=0.
 ***** Axes restored to original set *****
 -------------------------------------------------------------------
 Center     Atomic                   Forces (Hartrees/Bohr)
 Number     Number              X              Y              Z
 -------------------------------------------------------------------
      1        6           0.000024513   -0.000042459    0.000017334
      2        1           0.000012576   -0.000021782    0.000053676
      3        1           0.000054798   -0.000021782   -0.000006036
      4        1          -0.000008536   -0.000058347   -0.000006036
      5       17          -0.000083352    0.000144369   -0.000058938
 -------------------------------------------------------------------
 Cartesian Forces:  Max     0.000144369 RMS     0.000054473

 GradGradGradGradGradGradGradGradGradGradGradGradGradGradGradGradGradGrad
 Berny optimization.
 Using GEDIIS/GDIIS optimizer.
 FormGI is forming the generalized inverse of G from B-inverse, IUseBI=4.
 Internal  Forces:  Max     0.000176815 RMS     0.000054841
 Search for a local minimum.
 Step number   4 out of a maximum of   24
 All quantities printed in internal units (Hartrees-Bohrs-Radians)
 Mixed Optimization -- En-DIIS/RFO-DIIS
 Update second derivatives using D2CorX and points    1    2    3    4
 DE= -8.52D-05 DEPred=-8.29D-05 R= 1.03D+00
 TightC=F SS=  1.41D+00  RLast= 4.86D-02 DXNew= 8.4853D-01 1.4573D-01
 Trust test= 1.03D+00 RLast= 4.86D-02 DXMaxT set to 5.05D-01
 The second derivative matrix:
                          R1        R2        R3        R4        A1
           R1           0.35236
           R2           0.00423   0.35236
           R3           0.00423   0.00423   0.35236
           R4           0.03046   0.03046   0.03046   0.32013
           A1           0.01626   0.01626   0.01626  -0.02716   0.14643
           A2           0.00844   0.00844   0.00844  -0.02843  -0.01232
           A3          -0.01296  -0.01296  -0.01296   0.02860   0.01308
           A4           0.00844   0.00844   0.00844  -0.02843  -0.01232
           A5          -0.01296  -0.01296  -0.01296   0.02860   0.01308
           A6          -0.00867  -0.00867  -0.00867   0.02952   0.01240
           D1           0.02564   0.02564   0.02564   0.00398  -0.00373
           D2           0.00463   0.00463   0.00463   0.00068  -0.00074
           D3           0.00232   0.00232   0.00232   0.00034  -0.00037
           D4          -0.00232  -0.00232  -0.00232  -0.00034   0.00037
                          A2        A3        A4        A5        A6
           A2           0.15020
           A3           0.01134   0.14759
           A4          -0.00980   0.01134   0.15020
           A5           0.01134  -0.01241   0.01134   0.14759
           A6           0.00998  -0.01147   0.00998  -0.01147   0.14985
           D1          -0.00810   0.00544  -0.00810   0.00544   0.00781
           D2          -0.00150   0.00103  -0.00150   0.00103   0.00144
           D3          -0.00075   0.00052  -0.00075   0.00052   0.00072
           D4           0.00075  -0.00052   0.00075  -0.00052  -0.00072
                          D1        D2        D3        D4
           D1           0.01737
           D2           0.00260   0.01822
           D3           0.00130   0.00023   0.01789
           D4          -0.00130  -0.00023  -0.00011   0.01789
 ITU=  1  1  1  0
 Use linear search instead of GDIIS.
     Eigenvalues ---    0.05089   0.06925   0.07495   0.15870   0.16000
     Eigenvalues ---    0.29233   0.34813   0.34813   0.39986
 RFO step:  Lambda=-1.16270897D-07 EMin= 5.08947382D-02
 Quartic linear search produced a step of  0.00056.
 Iteration  1 RMS(Cart)=  0.00016384 RMS(Int)=  0.00000007
 Iteration  2 RMS(Cart)=  0.00000001 RMS(Int)=  0.00000007
 ClnCor:  largest displacement from symmetrization is 3.34D-06 for atom     4.
 Variable       Old X    -DE/DX   Delta X   Delta X   Delta X     New X
                                 (Linear)    (Quad)   (Total)
    R1        2.10037   0.00005  -0.00000   0.00011   0.00011   2.10047
    R2        2.10037   0.00005  -0.00000   0.00011   0.00011   2.10047
    R3        2.10037   0.00005  -0.00000   0.00011   0.00011   2.10047
    R4        3.28980   0.00018   0.00001   0.00046   0.00047   3.29027
    A1        1.93114  -0.00001   0.00001  -0.00011  -0.00010   1.93104
    A2        1.93114  -0.00002   0.00001  -0.00010  -0.00010   1.93104
    A3        1.88965   0.00001  -0.00001   0.00011   0.00010   1.88975
    A4        1.93114  -0.00002   0.00001  -0.00010  -0.00010   1.93104
    A5        1.88965   0.00001  -0.00001   0.00011   0.00010   1.88975
    A6        1.88965   0.00002  -0.00001   0.00011   0.00010   1.88975
    D1       -2.14675   0.00003  -0.00002   0.00028   0.00026  -2.14649
    D2        2.09440   0.00001  -0.00000  -0.00000   0.00000   2.09440
    D3       -2.09440   0.00000   0.00000  -0.00000   0.00000  -2.09440
    D4        2.09440  -0.00000   0.00000   0.00000   0.00000   2.09440
         Item               Value     Threshold  Converged?
 Maximum Force            0.000177     0.000450     YES
 RMS     Force            0.000055     0.000300     YES
 Maximum Displacement     0.000420     0.001800     YES
 RMS     Displacement     0.000164     0.001200     YES
 Predicted change in Energy=-5.816171D-08
 Optimization completed.
    -- Stationary point found.
                           ----------------------------
                           !   Optimized Parameters   !
                           ! (Angstroms and Degrees)  !
 --------------------------                            --------------------------
 ! Name  Definition              Value          Derivative Info.                !
 --------------------------------------------------------------------------------
 ! R1    R(1,2)                  1.1115         -DE/DX =    0.0001              !
 ! R2    R(1,3)                  1.1115         -DE/DX =    0.0001              !
 ! R3    R(1,4)                  1.1115         -DE/DX =    0.0001              !
 ! R4    R(1,5)                  1.7409         -DE/DX =    0.0002              !
 ! A1    A(2,1,3)              110.6462         -DE/DX =    0.0                 !
 ! A2    A(2,1,4)              110.6462         -DE/DX =    0.0                 !
 ! A3    A(2,1,5)              108.269          -DE/DX =    0.0                 !
 ! A4    A(3,1,4)              110.6462         -DE/DX =    0.0                 !
 ! A5    A(3,1,5)              108.269          -DE/DX =    0.0                 !
 ! A6    A(4,1,5)              108.269          -DE/DX =    0.0                 !
 ! D1    D(2,1,4,3)           -122.9994         -DE/DX =    0.0                 !
 ! D2    D(2,1,5,3)            120.0            -DE/DX =    0.0                 !
 ! D3    D(2,1,5,4)           -120.0            -DE/DX =    0.0                 !
 ! D4    D(3,1,5,4)            120.0            -DE/DX =    0.0                 !
 --------------------------------------------------------------------------------
 GradGradGradGradGradGradGradGradGradGradGradGradGradGradGradGradGradGrad

                          Input orientation:                          
 ---------------------------------------------------------------------
 Center     Atomic      Atomic             Coordinates (Angstroms)
 Number     Number       Type             X           Y           Z
 ---------------------------------------------------------------------
      1          6           0        0.013380   -0.023174    0.009461
      2          1           0        0.001720   -0.002979    1.120682
      3          1           0        1.057162   -0.002979   -0.371939
      4          1           0       -0.526001   -0.917019   -0.371939
      5         17           0       -0.807283    1.398255   -0.570835
 ---------------------------------------------------------------------
                    Distance matrix (angstroms):
                    1          2          3          4          5
     1  C    0.000000
     2  H    1.111466   0.000000
     3  H    1.111466   1.828080   0.000000
     4  H    1.111466   1.828080   1.828080   0.000000
     5  Cl   1.740888   2.340763   2.340763   2.340763   0.000000
 Stoichiometry    CH3Cl
 Framework group  C3V[C3(CCl),3SGV(H)]
 Deg. of freedom     3
 Full point group                 C3V     NOp   6
 Largest Abelian subgroup         CS      NOp   2
 Largest concise Abelian subgroup CS      NOp   2
                         Standard orientation:                         
 ---------------------------------------------------------------------
 Center     Atomic      Atomic             Coordinates (Angstroms)
 Number     Number       Type             X           Y           Z
 ---------------------------------------------------------------------
      1          6           0       -0.000000   -0.000000   -1.098070
      2          1           0        0.000000    1.055442   -1.446492
      3          1           0       -0.914040   -0.527721   -1.446492
      4          1           0        0.914040   -0.527721   -1.446492
      5         17           0        0.000000    0.000000    0.642817
 ---------------------------------------------------------------------
 Rotational constants (GHZ):    150.0519706     13.8676433     13.8676433

 **********************************************************************

            Population analysis using the SCF density.

 **********************************************************************

 Orbital symmetries:
       Occupied  (A1) (A1) (E) (E) (A1) (E) (E)
       Virtual   (A1) (E) (E) (A1)
 The electronic state is 1-A1.
 Alpha  occ. eigenvalues --   -1.36967  -1.06015  -0.55679  -0.55679  -0.54638
 Alpha  occ. eigenvalues --   -0.41666  -0.41666
 Alpha virt. eigenvalues --    0.05877   0.14206   0.14206   0.15422
          Condensed to atoms (all electrons):
               1          2          3          4          5
     1  C    4.177582   0.000000   0.000000   0.000000   0.000000
     2  H    0.000000   0.901984   0.000000   0.000000   0.000000
     3  H    0.000000   0.000000   0.901984   0.000000   0.000000
     4  H    0.000000   0.000000   0.000000   0.901984   0.000000
     5  Cl   0.000000   0.000000   0.000000   0.000000   7.116464
 Mulliken charges:
               1
     1  C   -0.177582
     2  H    0.098016
     3  H    0.098016
     4  H    0.098016
     5  Cl  -0.116464
 Sum of Mulliken charges =  -0.00000
 Mulliken charges with hydrogens summed into heavy atoms:
               1
     1  C    0.116464
     5  Cl  -0.116464
 Charge=             -0.0000 electrons
 Dipole moment (field-independent basis, Debye):
    X=              0.0000    Y=             -0.0000    Z=             -1.5119  Tot=              1.5119
 N-N= 3.686538626008D+01 E-N=-5.558691980719D+01  KE=-8.358122032666D+00
 Symmetry A'   KE=-6.739186565554D+00
 Symmetry A"   KE=-1.618935467113D+00
 1\1\GINC-GTX1080DELTA\FOpt\RAM1\ZDO\C1H3Cl1\MVEROT\11-Apr-2022\0\\#n A
 M1 Opt\\Optimisation of chloromethane using the AM1 hamiltonian\\0,1\C
 ,0.0133795905,-0.0231740445,0.0094608649\H,0.0017199336,-0.0029790155,
 1.1206820121\H,1.0571624054,-0.0029789214,-0.3719389475\H,-0.526001182
 4,-0.9170189613,-0.3719390187\Cl,-0.8072828075,1.3982547892,-0.5708350
 304\\Version=AM64L-G09RevD.01\State=1-A1\HF=-0.0302439\RMSD=3.752e-10\
 RMSF=5.447e-05\Dipole=0.2804057,-0.4856769,0.1982768\PG=C03V [C3(C1Cl1
 ),3SGV(H1)]\\@


 NATURE WILL TELL YOU A DIRECT LIE IF SHE CAN.

                                -- CHARLES DARWIN
 Job cpu time:       0 days  0 hours  0 minutes  3.3 seconds.
 File lengths (MBytes):  RWF=     72 Int=      0 D2E=      0 Chk=      2 Scr=      2
 Normal termination of Gaussian 09 at Mon Apr 11 13:16:33 2022.
