 Entering Gaussian System, Link 0=g09
 Input=/scratch/mverot/1-but-ene-opt/1-but-ene-opt.com
 Output=/scratch/mverot/1-but-ene-opt/1-but-ene-opt.log
 Initial command:
 /opt/g09/l1.exe "/scratch/mverot/1-but-ene-opt/Gau-743655.inp" -scrdir="/scratch/mverot/1-but-ene-opt/"
 Entering Link 1 = /opt/g09/l1.exe PID=    743657.
  
 Copyright (c) 1988,1990,1992,1993,1995,1998,2003,2009,2013,
            Gaussian, Inc.  All Rights Reserved.
  
 This is part of the Gaussian(R) 09 program.  It is based on
 the Gaussian(R) 03 system (copyright 2003, Gaussian, Inc.),
 the Gaussian(R) 98 system (copyright 1998, Gaussian, Inc.),
 the Gaussian(R) 94 system (copyright 1995, Gaussian, Inc.),
 the Gaussian 92(TM) system (copyright 1992, Gaussian, Inc.),
 the Gaussian 90(TM) system (copyright 1990, Gaussian, Inc.),
 the Gaussian 88(TM) system (copyright 1988, Gaussian, Inc.),
 the Gaussian 86(TM) system (copyright 1986, Carnegie Mellon
 University), and the Gaussian 82(TM) system (copyright 1983,
 Carnegie Mellon University). Gaussian is a federally registered
 trademark of Gaussian, Inc.
  
 This software contains proprietary and confidential information,
 including trade secrets, belonging to Gaussian, Inc.
  
 This software is provided under written license and may be
 used, copied, transmitted, or stored only in accord with that
 written license.
  
 The following legend is applicable only to US Government
 contracts under FAR:
  
                    RESTRICTED RIGHTS LEGEND
  
 Use, reproduction and disclosure by the US Government is
 subject to restrictions as set forth in subparagraphs (a)
 and (c) of the Commercial Computer Software - Restricted
 Rights clause in FAR 52.227-19.
  
 Gaussian, Inc.
 340 Quinnipiac St., Bldg. 40, Wallingford CT 06492
  
  
 ---------------------------------------------------------------
 Warning -- This program may not be used in any manner that
 competes with the business of Gaussian, Inc. or will provide
 assistance to any competitor of Gaussian, Inc.  The licensee
 of this program is prohibited from giving any competitor of
 Gaussian, Inc. access to this program.  By using this program,
 the user acknowledges that Gaussian, Inc. is engaged in the
 business of creating and licensing software in the field of
 computational chemistry and represents and warrants to the
 licensee that it is not a competitor of Gaussian, Inc. and that
 it will not use this program in any manner prohibited above.
 ---------------------------------------------------------------
  

 Cite this work as:
 Gaussian 09, Revision D.01,
 M. J. Frisch, G. W. Trucks, H. B. Schlegel, G. E. Scuseria, 
 M. A. Robb, J. R. Cheeseman, G. Scalmani, V. Barone, B. Mennucci, 
 G. A. Petersson, H. Nakatsuji, M. Caricato, X. Li, H. P. Hratchian, 
 A. F. Izmaylov, J. Bloino, G. Zheng, J. L. Sonnenberg, M. Hada, 
 M. Ehara, K. Toyota, R. Fukuda, J. Hasegawa, M. Ishida, T. Nakajima, 
 Y. Honda, O. Kitao, H. Nakai, T. Vreven, J. A. Montgomery, Jr., 
 J. E. Peralta, F. Ogliaro, M. Bearpark, J. J. Heyd, E. Brothers, 
 K. N. Kudin, V. N. Staroverov, T. Keith, R. Kobayashi, J. Normand, 
 K. Raghavachari, A. Rendell, J. C. Burant, S. S. Iyengar, J. Tomasi, 
 M. Cossi, N. Rega, J. M. Millam, M. Klene, J. E. Knox, J. B. Cross, 
 V. Bakken, C. Adamo, J. Jaramillo, R. Gomperts, R. E. Stratmann, 
 O. Yazyev, A. J. Austin, R. Cammi, C. Pomelli, J. W. Ochterski, 
 R. L. Martin, K. Morokuma, V. G. Zakrzewski, G. A. Voth, 
 P. Salvador, J. J. Dannenberg, S. Dapprich, A. D. Daniels, 
 O. Farkas, J. B. Foresman, J. V. Ortiz, J. Cioslowski, 
 and D. J. Fox, Gaussian, Inc., Wallingford CT, 2013.
 
 ******************************************
 Gaussian 09:  AM64L-G09RevD.01 24-Apr-2013
                16-Apr-2022 
 ******************************************
 %chk=1-but-ene-opt
 ---------------
 #n AM1 Opt freq
 ---------------
 1/14=-1,18=20,19=15,26=1,38=1/1,3;
 2/9=110,12=2,17=6,18=5,40=1/2;
 3/5=2,16=1,25=1,41=700000,71=1/1,2,3;
 4/35=1/1;
 5/5=2,35=1,38=5/2;
 6/7=2,8=2,9=2,10=2,28=1/1;
 7//1,2,3,16;
 1/14=-1,18=20,19=15,26=1/3(2);
 2/9=110/2;
 99//99;
 2/9=110/2;
 3/5=2,16=1,25=1,41=700000,71=1,135=20/1,2,3;
 4/5=5,16=3,35=1/1;
 5/5=2,35=1,38=5/2;
 7//1,2,3,16;
 1/14=-1,18=20,19=15,26=1/3(-5);
 2/9=110/2;
 6/7=2,8=2,9=2,10=2,19=2,28=1/1;
 99/9=1/99;
 -------------------------
 Optimisation de geometrie
 -------------------------
 Symbolic Z-matrix:
 Charge =  0 Multiplicity = 1
 C                     1.3072    2.1408    1.6685 
 C                     0.4723    2.8866    0.9441 
 C                     1.9672    0.8703    1.2054 
 C                     3.503     0.9581    1.2204 
 H                     1.5603    2.4625    2.6811 
 H                     0.033     3.8007    1.3349 
 H                     0.1933    2.6089   -0.0708 
 H                     1.6555    0.0408    1.858 
 H                     1.6179    0.621     0.1954 
 H                     3.9542    0.0095    0.9081 
 H                     3.8566    1.7437    0.5435 
 H                     3.8766    1.1913    2.2248 
 

 GradGradGradGradGradGradGradGradGradGradGradGradGradGradGradGradGradGrad
 Berny optimization.
 Initialization pass.
                           ----------------------------
                           !    Initial Parameters    !
                           ! (Angstroms and Degrees)  !
 --------------------------                            --------------------------
 ! Name  Definition              Value          Derivative Info.                !
 --------------------------------------------------------------------------------
 ! R1    R(1,2)                  1.3334         estimate D2E/DX2                !
 ! R2    R(1,3)                  1.5047         estimate D2E/DX2                !
 ! R3    R(1,5)                  1.0922         estimate D2E/DX2                !
 ! R4    R(2,6)                  1.0869         estimate D2E/DX2                !
 ! R5    R(2,7)                  1.0886         estimate D2E/DX2                !
 ! R6    R(3,4)                  1.5384         estimate D2E/DX2                !
 ! R7    R(3,8)                  1.1005         estimate D2E/DX2                !
 ! R8    R(3,9)                  1.0974         estimate D2E/DX2                !
 ! R9    R(4,10)                 1.0959         estimate D2E/DX2                !
 ! R10   R(4,11)                 1.0956         estimate D2E/DX2                !
 ! R11   R(4,12)                 1.0967         estimate D2E/DX2                !
 ! A1    A(2,1,3)              125.428          estimate D2E/DX2                !
 ! A2    A(2,1,5)              118.9484         estimate D2E/DX2                !
 ! A3    A(3,1,5)              115.6188         estimate D2E/DX2                !
 ! A4    A(1,2,6)              121.8797         estimate D2E/DX2                !
 ! A5    A(1,2,7)              121.6205         estimate D2E/DX2                !
 ! A6    A(6,2,7)              116.4996         estimate D2E/DX2                !
 ! A7    A(1,3,4)              112.7487         estimate D2E/DX2                !
 ! A8    A(1,3,8)              109.2493         estimate D2E/DX2                !
 ! A9    A(1,3,9)              109.6002         estimate D2E/DX2                !
 ! A10   A(4,3,8)              108.6626         estimate D2E/DX2                !
 ! A11   A(4,3,9)              109.859          estimate D2E/DX2                !
 ! A12   A(8,3,9)              106.5225         estimate D2E/DX2                !
 ! A13   A(3,4,10)             111.0297         estimate D2E/DX2                !
 ! A14   A(3,4,11)             110.922          estimate D2E/DX2                !
 ! A15   A(3,4,12)             111.1707         estimate D2E/DX2                !
 ! A16   A(10,4,11)            108.1632         estimate D2E/DX2                !
 ! A17   A(10,4,12)            107.7457         estimate D2E/DX2                !
 ! A18   A(11,4,12)            107.6625         estimate D2E/DX2                !
 ! D1    D(3,1,2,6)           -179.5347         estimate D2E/DX2                !
 ! D2    D(3,1,2,7)              0.6161         estimate D2E/DX2                !
 ! D3    D(5,1,2,6)             -0.3733         estimate D2E/DX2                !
 ! D4    D(5,1,2,7)            179.7775         estimate D2E/DX2                !
 ! D5    D(2,1,3,4)            119.8742         estimate D2E/DX2                !
 ! D6    D(2,1,3,8)           -119.198          estimate D2E/DX2                !
 ! D7    D(2,1,3,9)             -2.8318         estimate D2E/DX2                !
 ! D8    D(5,1,3,4)            -59.3119         estimate D2E/DX2                !
 ! D9    D(5,1,3,8)             61.6158         estimate D2E/DX2                !
 ! D10   D(5,1,3,9)            177.982          estimate D2E/DX2                !
 ! D11   D(1,3,4,10)           178.259          estimate D2E/DX2                !
 ! D12   D(1,3,4,11)           -61.4414         estimate D2E/DX2                !
 ! D13   D(1,3,4,12)            58.3204         estimate D2E/DX2                !
 ! D14   D(8,3,4,10)            56.9971         estimate D2E/DX2                !
 ! D15   D(8,3,4,11)           177.2967         estimate D2E/DX2                !
 ! D16   D(8,3,4,12)           -62.9415         estimate D2E/DX2                !
 ! D17   D(9,3,4,10)           -59.18           estimate D2E/DX2                !
 ! D18   D(9,3,4,11)            61.1197         estimate D2E/DX2                !
 ! D19   D(9,3,4,12)          -179.1185         estimate D2E/DX2                !
 --------------------------------------------------------------------------------
 Trust Radius=3.00D-01 FncErr=1.00D-07 GrdErr=1.00D-07
 Number of steps in this run=     58 maximum allowed number of steps=    100.
 GradGradGradGradGradGradGradGradGradGradGradGradGradGradGradGradGradGrad

                          Input orientation:                          
 ---------------------------------------------------------------------
 Center     Atomic      Atomic             Coordinates (Angstroms)
 Number     Number       Type             X           Y           Z
 ---------------------------------------------------------------------
      1          6           0        1.307200    2.140800    1.668500
      2          6           0        0.472300    2.886600    0.944100
      3          6           0        1.967200    0.870300    1.205400
      4          6           0        3.503000    0.958100    1.220400
      5          1           0        1.560300    2.462500    2.681100
      6          1           0        0.033000    3.800700    1.334900
      7          1           0        0.193300    2.608900   -0.070800
      8          1           0        1.655500    0.040800    1.858000
      9          1           0        1.617900    0.621000    0.195400
     10          1           0        3.954200    0.009500    0.908100
     11          1           0        3.856600    1.743700    0.543500
     12          1           0        3.876600    1.191300    2.224800
 ---------------------------------------------------------------------
                    Distance matrix (angstroms):
                    1          2          3          4          5
     1  C    0.000000
     2  C    1.333428   0.000000
     3  C    1.504736   2.523583   0.000000
     4  C    2.533991   3.602859   1.538381   0.000000
     5  H    1.092204   2.093030   2.208701   2.858487   0.000000
     6  H    2.118996   1.086871   3.513566   4.487136   2.436325
     7  H    2.117795   1.088568   2.792515   3.917455   3.076211
     8  H    2.137106   3.214616   1.100506   2.158988   2.559529
     9  H    2.139241   2.646865   1.097388   2.172064   3.094050
    10  H    3.482421   4.516927   2.185757   1.095881   3.858950
    11  H    2.814739   3.594466   2.184210   1.095625   3.218540
    12  H    2.795145   4.012916   2.188156   1.096713   2.681307
                    6          7          8          9         10
     6  H    0.000000
     7  H    1.849885   0.000000
     8  H    4.128315   3.528943   0.000000
     9  H    3.731067   2.460100   1.761330   0.000000
    10  H    5.470938   4.675414   2.487431   2.517970   0.000000
    11  H    4.413330   3.813883   3.077762   2.528519   1.774798
    12  H    4.730132   4.565749   2.528137   3.089568   1.770980
                   11         12
    11  H    0.000000
    12  H    1.769835   0.000000
 Stoichiometry    C4H8
 Framework group  C1[X(C4H8)]
 Deg. of freedom    30
 Full point group                 C1      NOp   1
 Largest Abelian subgroup         C1      NOp   1
 Largest concise Abelian subgroup C1      NOp   1
                         Standard orientation:                         
 ---------------------------------------------------------------------
 Center     Atomic      Atomic             Coordinates (Angstroms)
 Number     Number       Type             X           Y           Z
 ---------------------------------------------------------------------
      1          6           0        0.723110   -0.296636    0.338379
      2          6           0        1.862862    0.017963   -0.278082
      3          6           0       -0.539840    0.520811    0.307268
      4          6           0       -1.730264   -0.246226   -0.293699
      5          1           0        0.670261   -1.225837    0.909958
      6          1           0        2.740668   -0.620526   -0.222603
      7          1           0        1.962585    0.931110   -0.862202
      8          1           0       -0.799277    0.826843    1.332036
      9          1           0       -0.366785    1.444229   -0.259840
     10          1           0       -2.640849    0.363217   -0.274505
     11          1           0       -1.529596   -0.527795   -1.333336
     12          1           0       -1.932216   -1.166707    0.267291
 ---------------------------------------------------------------------
 Rotational constants (GHZ):     22.6735639      4.1155898      4.0199109
 Standard basis: VSTO-6G (5D, 7F)
 There are    24 symmetry adapted cartesian basis functions of A   symmetry.
 There are    24 symmetry adapted basis functions of A   symmetry.
    24 basis functions,   144 primitive gaussians,    24 cartesian basis functions
    12 alpha electrons       12 beta electrons
       nuclear repulsion energy        79.4344117318 Hartrees.
 Integral buffers will be    131072 words long.
 Regular integral format.
 Two-electron integral symmetry is turned off.
 Do NDO integrals.
 One-electron integrals computed using PRISM.
 NBasis=    24 RedAO= F EigKep=  0.00D+00  NBF=    24
 NBsUse=    24 1.00D-04 EigRej=  0.00D+00 NBFU=    24
 Simple Huckel Guess.
 Overlap will be assumed to be unity.
 Keep J ints in memory in canonical form, NReq=889405.
 Requested convergence on RMS density matrix=1.00D-08 within 128 cycles.
 Requested convergence on MAX density matrix=1.00D-06.
 Requested convergence on             energy=1.00D-06.
 No special actions if energy rises.
 SCF Done:  E(RAM1) =  0.363253410814E-02 A.U. after   12 cycles
            NFock= 11  Conv=0.28D-08     -V/T= 1.0002

 **********************************************************************

            Population analysis using the SCF density.

 **********************************************************************

 Orbital symmetries:
       Occupied  (A) (A) (A) (A) (A) (A) (A) (A) (A) (A) (A) (A)
       Virtual   (A) (A) (A) (A) (A) (A) (A) (A) (A) (A) (A) (A)
 The electronic state is 1-A.
 Alpha  occ. eigenvalues --   -1.31944  -1.13747  -0.90070  -0.75262  -0.59177
 Alpha  occ. eigenvalues --   -0.55264  -0.53188  -0.48559  -0.47320  -0.43677
 Alpha  occ. eigenvalues --   -0.42669  -0.36998
 Alpha virt. eigenvalues --    0.04982   0.14148   0.15159   0.16162   0.16436
 Alpha virt. eigenvalues --    0.16961   0.18138   0.18278   0.19011   0.19367
 Alpha virt. eigenvalues --    0.20997   0.21647
          Condensed to atoms (all electrons):
               1          2          3          4          5          6
     1  C    4.161190   0.000000   0.000000   0.000000   0.000000   0.000000
     2  C    0.000000   4.223334   0.000000   0.000000   0.000000   0.000000
     3  C    0.000000   0.000000   4.129417   0.000000   0.000000   0.000000
     4  C    0.000000   0.000000   0.000000   4.203802   0.000000   0.000000
     5  H    0.000000   0.000000   0.000000   0.000000   0.885788   0.000000
     6  H    0.000000   0.000000   0.000000   0.000000   0.000000   0.887298
     7  H    0.000000   0.000000   0.000000   0.000000   0.000000   0.000000
     8  H    0.000000   0.000000   0.000000   0.000000   0.000000   0.000000
     9  H    0.000000   0.000000   0.000000   0.000000   0.000000   0.000000
    10  H    0.000000   0.000000   0.000000   0.000000   0.000000   0.000000
    11  H    0.000000   0.000000   0.000000   0.000000   0.000000   0.000000
    12  H    0.000000   0.000000   0.000000   0.000000   0.000000   0.000000
               7          8          9         10         11         12
     1  C    0.000000   0.000000   0.000000   0.000000   0.000000   0.000000
     2  C    0.000000   0.000000   0.000000   0.000000   0.000000   0.000000
     3  C    0.000000   0.000000   0.000000   0.000000   0.000000   0.000000
     4  C    0.000000   0.000000   0.000000   0.000000   0.000000   0.000000
     5  H    0.000000   0.000000   0.000000   0.000000   0.000000   0.000000
     6  H    0.000000   0.000000   0.000000   0.000000   0.000000   0.000000
     7  H    0.891193   0.000000   0.000000   0.000000   0.000000   0.000000
     8  H    0.000000   0.915968   0.000000   0.000000   0.000000   0.000000
     9  H    0.000000   0.000000   0.919744   0.000000   0.000000   0.000000
    10  H    0.000000   0.000000   0.000000   0.927598   0.000000   0.000000
    11  H    0.000000   0.000000   0.000000   0.000000   0.926001   0.000000
    12  H    0.000000   0.000000   0.000000   0.000000   0.000000   0.928667
 Mulliken charges:
               1
     1  C   -0.161190
     2  C   -0.223334
     3  C   -0.129417
     4  C   -0.203802
     5  H    0.114212
     6  H    0.112702
     7  H    0.108807
     8  H    0.084032
     9  H    0.080256
    10  H    0.072402
    11  H    0.073999
    12  H    0.071333
 Sum of Mulliken charges =  -0.00000
 Mulliken charges with hydrogens summed into heavy atoms:
               1
     1  C   -0.046978
     2  C   -0.001825
     3  C    0.034871
     4  C    0.013932
 Charge=             -0.0000 electrons
 Dipole moment (field-independent basis, Debye):
    X=             -0.2160    Y=              0.0059    Z=              0.0313  Tot=              0.2183
 N-N= 7.943441173180D+01 E-N=-1.280904449337D+02  KE=-1.481362569674D+01
 Calling FoFJK, ICntrl=      2127 FMM=F ISym2X=0 I1Cent= 0 IOpClX= 0 NMat=1 NMatS=1 NMatT=0.
 ***** Axes restored to original set *****
 -------------------------------------------------------------------
 Center     Atomic                   Forces (Hartrees/Bohr)
 Number     Number              X              Y              Z
 -------------------------------------------------------------------
      1        6           0.008358885   -0.009074867   -0.008110083
      2        6           0.008510437   -0.012186915    0.002075066
      3        6           0.015109493    0.025248450    0.008187795
      4        6          -0.028563920    0.002858447    0.001341829
      5        1           0.003991301   -0.001038252    0.007482731
      6        1          -0.003710948    0.005920806    0.001688128
      7        1          -0.003009560    0.000297075   -0.006608408
      8        1          -0.004147676   -0.009666173    0.010955427
      9        1          -0.002916882   -0.002659512   -0.016219301
     10        1           0.002310234   -0.013650253   -0.004852402
     11        1           0.002311566    0.010839414   -0.009940964
     12        1           0.001757069    0.003111779    0.014000181
 -------------------------------------------------------------------
 Cartesian Forces:  Max     0.028563920 RMS     0.009908454

 GradGradGradGradGradGradGradGradGradGradGradGradGradGradGradGradGradGrad
 Berny optimization.
 FormGI is forming the generalized inverse of G from B-inverse, IUseBI=4.
 Internal  Forces:  Max     0.021962166 RMS     0.007137709
 Search for a local minimum.
 Step number   1 out of a maximum of   58
 All quantities printed in internal units (Hartrees-Bohrs-Radians)
 Mixed Optimization -- RFO/linear search
 Second derivative matrix not updated -- first step.
 ITU=  0
     Eigenvalues ---    0.00258   0.00703   0.01643   0.02969   0.02969
     Eigenvalues ---    0.04040   0.05386   0.05436   0.05451   0.09401
     Eigenvalues ---    0.12865   0.15999   0.16000   0.16000   0.16000
     Eigenvalues ---    0.16000   0.16000   0.21940   0.22000   0.28663
     Eigenvalues ---    0.31885   0.33626   0.33973   0.34048   0.34142
     Eigenvalues ---    0.34171   0.34559   0.34979   0.35177   0.58703
 RFO step:  Lambda=-8.15708904D-03 EMin= 2.58243058D-03
 Linear search not attempted -- first point.
 Iteration  1 RMS(Cart)=  0.04848993 RMS(Int)=  0.00041130
 Iteration  2 RMS(Cart)=  0.00058006 RMS(Int)=  0.00013185
 Iteration  3 RMS(Cart)=  0.00000022 RMS(Int)=  0.00013185
 Variable       Old X    -DE/DX   Delta X   Delta X   Delta X     New X
                                 (Linear)    (Quad)   (Total)
    R1        2.51981  -0.00291   0.00000  -0.00490  -0.00490   2.51492
    R2        2.84354  -0.02085   0.00000  -0.06376  -0.06376   2.77978
    R3        2.06397   0.00756   0.00000   0.02136   0.02136   2.08533
    R4        2.05389   0.00709   0.00000   0.01969   0.01969   2.07358
    R5        2.05710   0.00686   0.00000   0.01916   0.01916   2.07625
    R6        2.90712  -0.02196   0.00000  -0.07450  -0.07450   2.83262
    R7        2.07966   0.01496   0.00000   0.04343   0.04343   2.12308
    R8        2.07376   0.01646   0.00000   0.04732   0.04732   2.12108
    R9        2.07091   0.01415   0.00000   0.04048   0.04048   2.11139
   R10        2.07043   0.01466   0.00000   0.04190   0.04190   2.11233
   R11        2.07249   0.01408   0.00000   0.04039   0.04039   2.11288
    A1        2.18913  -0.00587   0.00000  -0.02567  -0.02572   2.16341
    A2        2.07604   0.00705   0.00000   0.03741   0.03735   2.11340
    A3        2.01793  -0.00117   0.00000  -0.01151  -0.01156   2.00637
    A4        2.12720  -0.00007   0.00000  -0.00045  -0.00045   2.12675
    A5        2.12268   0.00251   0.00000   0.01491   0.01491   2.13759
    A6        2.03330  -0.00243   0.00000  -0.01448  -0.01448   2.01882
    A7        1.96784  -0.00734   0.00000  -0.03907  -0.03930   1.92854
    A8        1.90676   0.00090   0.00000  -0.00534  -0.00555   1.90121
    A9        1.91288   0.00356   0.00000   0.01787   0.01762   1.93050
   A10        1.89652   0.00250   0.00000   0.00837   0.00805   1.90457
   A11        1.91740   0.00032   0.00000  -0.00435  -0.00432   1.91308
   A12        1.85917   0.00050   0.00000   0.02612   0.02603   1.88520
   A13        1.93783  -0.00430   0.00000  -0.02693  -0.02717   1.91066
   A14        1.93595  -0.00207   0.00000  -0.01194  -0.01207   1.92388
   A15        1.94030  -0.00309   0.00000  -0.01741  -0.01757   1.92273
   A16        1.88780   0.00313   0.00000   0.01678   0.01657   1.90437
   A17        1.88052   0.00382   0.00000   0.02204   0.02178   1.90230
   A18        1.87906   0.00304   0.00000   0.02063   0.02058   1.89964
    D1       -3.13347  -0.00054   0.00000  -0.01815  -0.01830   3.13142
    D2        0.01075  -0.00037   0.00000  -0.01374  -0.01389  -0.00314
    D3       -0.00651  -0.00010   0.00000   0.00113   0.00128  -0.00523
    D4        3.13771   0.00006   0.00000   0.00554   0.00569  -3.13979
    D5        2.09220   0.00004   0.00000   0.01871   0.01840   2.11060
    D6       -2.08040  -0.00100   0.00000  -0.00012  -0.00013  -2.08053
    D7       -0.04942   0.00213   0.00000   0.03837   0.03838  -0.01104
    D8       -1.03519  -0.00045   0.00000  -0.00037  -0.00047  -1.03566
    D9        1.07540  -0.00149   0.00000  -0.01920  -0.01900   1.05640
   D10        3.10637   0.00164   0.00000   0.01929   0.01951   3.12588
   D11        3.11121  -0.00047   0.00000  -0.00547  -0.00554   3.10567
   D12       -1.07235  -0.00077   0.00000  -0.01024  -0.01028  -1.08263
   D13        1.01788  -0.00036   0.00000  -0.00369  -0.00383   1.01406
   D14        0.99479   0.00143   0.00000   0.02084   0.02085   1.01564
   D15        3.09441   0.00113   0.00000   0.01607   0.01611   3.11052
   D16       -1.09854   0.00154   0.00000   0.02262   0.02256  -1.07597
   D17       -1.03289  -0.00077   0.00000  -0.01282  -0.01272  -1.04561
   D18        1.06674  -0.00107   0.00000  -0.01759  -0.01746   1.04928
   D19       -3.12621  -0.00066   0.00000  -0.01104  -0.01101  -3.13722
         Item               Value     Threshold  Converged?
 Maximum Force            0.021962     0.000450     NO 
 RMS     Force            0.007138     0.000300     NO 
 Maximum Displacement     0.129701     0.001800     NO 
 RMS     Displacement     0.048539     0.001200     NO 
 Predicted change in Energy=-4.210492D-03
 GradGradGradGradGradGradGradGradGradGradGradGradGradGradGradGradGradGrad

                          Input orientation:                          
 ---------------------------------------------------------------------
 Center     Atomic      Atomic             Coordinates (Angstroms)
 Number     Number       Type             X           Y           Z
 ---------------------------------------------------------------------
      1          6           0        1.350306    2.125969    1.669930
      2          6           0        0.512738    2.859765    0.941127
      3          6           0        1.965996    0.874445    1.202548
      4          6           0        3.460729    0.984770    1.224212
      5          1           0        1.628935    2.427805    2.694132
      6          1           0        0.065625    3.784080    1.328138
      7          1           0        0.218626    2.579958   -0.079833
      8          1           0        1.648888    0.036758    1.880742
      9          1           0        1.621399    0.628779    0.162961
     10          1           0        3.910562    0.013996    0.902332
     11          1           0        3.798764    1.792878    0.529829
     12          1           0        3.814531    1.224997    2.257282
 ---------------------------------------------------------------------
                    Distance matrix (angstroms):
                    1          2          3          4          5
     1  C    0.000000
     2  C    1.330838   0.000000
     3  C    1.470997   2.474226   0.000000
     4  C    2.440263   3.505195   1.498956   0.000000
     5  H    1.103508   2.122619   2.179761   2.756535   0.000000
     6  H    2.125219   1.097290   3.477522   4.401552   2.479790
     7  H    2.132715   1.098705   2.758003   3.841405   3.115606
     8  H    2.120942   3.184820   1.123487   2.147680   2.525689
     9  H    2.141501   2.609975   1.122427   2.153165   3.105379
    10  H    3.406545   4.432281   2.147520   1.117300   3.773969
    11  H    2.721347   3.479279   2.157571   1.117799   3.129776
    12  H    2.688706   3.912361   2.156950   1.118087   2.532670
                    6          7          8          9         10
     6  H    0.000000
     7  H    1.858951   0.000000
     8  H    4.105424   3.515305   0.000000
     9  H    3.705940   2.415330   1.817145   0.000000
    10  H    5.401702   4.602087   2.464341   2.482921   0.000000
    11  H    4.305637   3.715989   3.087215   2.496125   1.820900
    12  H    4.633196   4.497617   2.498741   3.090548   1.819790
                   11         12
    11  H    0.000000
    12  H    1.818469   0.000000
 Stoichiometry    C4H8
 Framework group  C1[X(C4H8)]
 Deg. of freedom    30
 Full point group                 C1      NOp   1
 Largest Abelian subgroup         C1      NOp   1
 Largest concise Abelian subgroup C1      NOp   1
                         Standard orientation:                         
 ---------------------------------------------------------------------
 Center     Atomic      Atomic             Coordinates (Angstroms)
 Number     Number       Type             X           Y           Z
 ---------------------------------------------------------------------
      1          6           0        0.683132   -0.324553    0.318683
      2          6           0        1.822733    0.038019   -0.265254
      3          6           0       -0.533087    0.502781    0.331324
      4          6           0       -1.671997   -0.228397   -0.312983
      5          1           0        0.593668   -1.291906    0.842090
      6          1           0        2.713063   -0.603049   -0.245568
      7          1           0        1.937558    0.996008   -0.790825
      8          1           0       -0.802480    0.738559    1.396246
      9          1           0       -0.356623    1.472854   -0.205016
     10          1           0       -2.594793    0.399359   -0.260720
     11          1           0       -1.436262   -0.444093   -1.384140
     12          1           0       -1.858811   -1.194833    0.217319
 ---------------------------------------------------------------------
 Rotational constants (GHZ):     22.4283964      4.3246972      4.2192898
 Standard basis: VSTO-6G (5D, 7F)
 There are    24 symmetry adapted cartesian basis functions of A   symmetry.
 There are    24 symmetry adapted basis functions of A   symmetry.
    24 basis functions,   144 primitive gaussians,    24 cartesian basis functions
    12 alpha electrons       12 beta electrons
       nuclear repulsion energy        79.8831238990 Hartrees.
 Integral buffers will be    131072 words long.
 Regular integral format.
 Two-electron integral symmetry is turned off.
 Do NDO integrals.
 One-electron integrals computed using PRISM.
 NBasis=    24 RedAO= F EigKep=  0.00D+00  NBF=    24
 NBsUse=    24 1.00D-04 EigRej=  0.00D+00 NBFU=    24
 Initial guess from the checkpoint file:  "1-but-ene-opt.chk"
 B after Tr=    -0.000000   -0.000000    0.000000
         Rot=    0.999541   -0.030058    0.003656   -0.000097 Ang=  -3.47 deg.
 Overlap will be assumed to be unity.
 Keep J ints in memory in canonical form, NReq=889405.
 Requested convergence on RMS density matrix=1.00D-08 within 128 cycles.
 Requested convergence on MAX density matrix=1.00D-06.
 Requested convergence on             energy=1.00D-06.
 No special actions if energy rises.
 SCF Done:  E(RAM1) =  0.765587473538E-03 A.U. after   11 cycles
            NFock= 10  Conv=0.24D-08     -V/T= 1.0001
 Calling FoFJK, ICntrl=      2127 FMM=F ISym2X=0 I1Cent= 0 IOpClX= 0 NMat=1 NMatS=1 NMatT=0.
 ***** Axes restored to original set *****
 -------------------------------------------------------------------
 Center     Atomic                   Forces (Hartrees/Bohr)
 Number     Number              X              Y              Z
 -------------------------------------------------------------------
      1        6          -0.007691889    0.009029979    0.003754930
      2        6          -0.000896891    0.000375508    0.000439648
      3        6          -0.002193561   -0.006399781   -0.002152023
      4        6           0.008548495   -0.001757664   -0.000595357
      5        1           0.000078258    0.000469262    0.000043126
      6        1          -0.000404646    0.000346755   -0.000976778
      7        1          -0.000289810    0.001049771    0.000510839
      8        1          -0.001547301   -0.001451893   -0.000538646
      9        1          -0.000664625   -0.001625132   -0.000277212
     10        1           0.001969869    0.001044954    0.000154229
     11        1           0.001495196   -0.000930874    0.000840839
     12        1           0.001596905   -0.000150885   -0.001203592
 -------------------------------------------------------------------
 Cartesian Forces:  Max     0.009029979 RMS     0.002918126

 GradGradGradGradGradGradGradGradGradGradGradGradGradGradGradGradGradGrad
 Berny optimization.
 Using GEDIIS/GDIIS optimizer.
 FormGI is forming the generalized inverse of G from B-inverse, IUseBI=4.
 Internal  Forces:  Max     0.014640776 RMS     0.003160056
 Search for a local minimum.
 Step number   2 out of a maximum of   58
 All quantities printed in internal units (Hartrees-Bohrs-Radians)
 Mixed Optimization -- RFO/linear search
 Update second derivatives using D2CorX and points    1    2
 DE= -2.87D-03 DEPred=-4.21D-03 R= 6.81D-01
 TightC=F SS=  1.41D+00  RLast= 1.81D-01 DXNew= 5.0454D-01 5.4243D-01
 Trust test= 6.81D-01 RLast= 1.81D-01 DXMaxT set to 5.05D-01
 ITU=  1  0
 Use linear search instead of GDIIS.
     Eigenvalues ---    0.00258   0.00703   0.01674   0.02969   0.02971
     Eigenvalues ---    0.04320   0.05599   0.05625   0.05680   0.09035
     Eigenvalues ---    0.12539   0.15738   0.16000   0.16000   0.16000
     Eigenvalues ---    0.16000   0.16439   0.21916   0.22456   0.29484
     Eigenvalues ---    0.30067   0.33721   0.34001   0.34095   0.34156
     Eigenvalues ---    0.34533   0.34945   0.35143   0.45163   0.58957
 RFO step:  Lambda=-5.86116755D-04 EMin= 2.58244086D-03
 Quartic linear search produced a step of -0.23308.
 Iteration  1 RMS(Cart)=  0.02650130 RMS(Int)=  0.00013367
 Iteration  2 RMS(Cart)=  0.00016991 RMS(Int)=  0.00002975
 Iteration  3 RMS(Cart)=  0.00000001 RMS(Int)=  0.00002975
 Variable       Old X    -DE/DX   Delta X   Delta X   Delta X     New X
                                 (Linear)    (Quad)   (Total)
    R1        2.51492   0.00199   0.00114   0.00107   0.00222   2.51713
    R2        2.77978   0.01464   0.01486   0.01483   0.02969   2.80947
    R3        2.08533   0.00019  -0.00498   0.00720   0.00222   2.08755
    R4        2.07358   0.00011  -0.00459   0.00649   0.00190   2.07548
    R5        2.07625  -0.00066  -0.00446   0.00462   0.00016   2.07641
    R6        2.83262   0.01343   0.01737   0.01198   0.02935   2.86196
    R7        2.12308   0.00119  -0.01012   0.01652   0.00640   2.12948
    R8        2.12108   0.00082  -0.01103   0.01687   0.00585   2.12693
    R9        2.11139  -0.00016  -0.00943   0.01250   0.00307   2.11446
   R10        2.11233  -0.00074  -0.00977   0.01165   0.00188   2.11421
   R11        2.11288  -0.00064  -0.00941   0.01140   0.00198   2.11486
    A1        2.16341   0.00177   0.00599  -0.00221   0.00379   2.16720
    A2        2.11340  -0.00123  -0.00871   0.00759  -0.00110   2.11229
    A3        2.00637  -0.00054   0.00269  -0.00541  -0.00271   2.00366
    A4        2.12675   0.00081   0.00010   0.00374   0.00384   2.13059
    A5        2.13759   0.00063  -0.00348   0.00797   0.00449   2.14208
    A6        2.01882  -0.00144   0.00337  -0.01168  -0.00831   2.01051
    A7        1.92854   0.00518   0.00916   0.00920   0.01836   1.94690
    A8        1.90121  -0.00171   0.00129  -0.00699  -0.00570   1.89550
    A9        1.93050  -0.00123  -0.00411   0.00501   0.00092   1.93142
   A10        1.90457  -0.00064  -0.00188   0.00315   0.00133   1.90591
   A11        1.91308  -0.00134   0.00101  -0.00432  -0.00338   1.90970
   A12        1.88520  -0.00038  -0.00607  -0.00643  -0.01250   1.87270
   A13        1.91066   0.00249   0.00633   0.00287   0.00923   1.91989
   A14        1.92388   0.00171   0.00281   0.00370   0.00652   1.93040
   A15        1.92273   0.00195   0.00409   0.00366   0.00776   1.93049
   A16        1.90437  -0.00219  -0.00386  -0.00556  -0.00939   1.89498
   A17        1.90230  -0.00213  -0.00508  -0.00224  -0.00730   1.89500
   A18        1.89964  -0.00194  -0.00480  -0.00263  -0.00743   1.89221
    D1        3.13142   0.00023   0.00426  -0.00310   0.00120   3.13261
    D2       -0.00314  -0.00009   0.00324  -0.00918  -0.00591  -0.00905
    D3       -0.00523   0.00016  -0.00030   0.00527   0.00493  -0.00030
    D4       -3.13979  -0.00016  -0.00133  -0.00081  -0.00217   3.14123
    D5        2.11060   0.00001  -0.00429   0.02794   0.02375   2.13436
    D6       -2.08053   0.00130   0.00003   0.03303   0.03305  -2.04748
    D7       -0.01104  -0.00095  -0.00895   0.02386   0.01490   0.00385
    D8       -1.03566   0.00007   0.00011   0.02007   0.02023  -1.01543
    D9        1.05640   0.00137   0.00443   0.02516   0.02953   1.08592
   D10        3.12588  -0.00088  -0.00455   0.01598   0.01137   3.13725
   D11        3.10567  -0.00001   0.00129   0.00248   0.00381   3.10948
   D12       -1.08263  -0.00008   0.00240  -0.00026   0.00216  -1.08047
   D13        1.01406  -0.00015   0.00089   0.00118   0.00211   1.01617
   D14        1.01564  -0.00067  -0.00486   0.00347  -0.00140   1.01424
   D15        3.11052  -0.00074  -0.00376   0.00073  -0.00305   3.10748
   D16       -1.07597  -0.00081  -0.00526   0.00217  -0.00310  -1.07907
   D17       -1.04561   0.00095   0.00297   0.01193   0.01488  -1.03073
   D18        1.04928   0.00088   0.00407   0.00918   0.01322   1.06250
   D19       -3.13722   0.00081   0.00257   0.01062   0.01318  -3.12404
         Item               Value     Threshold  Converged?
 Maximum Force            0.014641     0.000450     NO 
 RMS     Force            0.003160     0.000300     NO 
 Maximum Displacement     0.079929     0.001800     NO 
 RMS     Displacement     0.026486     0.001200     NO 
 Predicted change in Energy=-6.030230D-04
 GradGradGradGradGradGradGradGradGradGradGradGradGradGradGradGradGradGrad

                          Input orientation:                          
 ---------------------------------------------------------------------
 Center     Atomic      Atomic             Coordinates (Angstroms)
 Number     Number       Type             X           Y           Z
 ---------------------------------------------------------------------
      1          6           0        1.339461    2.143072    1.667818
      2          6           0        0.486043    2.866387    0.944807
      3          6           0        1.969973    0.880855    1.199243
      4          6           0        3.481554    0.970362    1.227163
      5          1           0        1.624486    2.452001    2.689408
      6          1           0        0.033742    3.790612    1.328846
      7          1           0        0.183533    2.585663   -0.073536
      8          1           0        1.635979    0.040814    1.872017
      9          1           0        1.629183    0.630011    0.156297
     10          1           0        3.928628   -0.002503    0.902127
     11          1           0        3.841061    1.775515    0.538554
     12          1           0        3.843457    1.201408    2.260656
 ---------------------------------------------------------------------
                    Distance matrix (angstroms):
                    1          2          3          4          5
     1  C    0.000000
     2  C    1.332010   0.000000
     3  C    1.486707   2.491811   0.000000
     4  C    2.481530   3.556363   1.514486   0.000000
     5  H    1.104683   2.124006   2.192819   2.789645   0.000000
     6  H    2.129364   1.098296   3.497495   4.455509   2.484647
     7  H    2.136438   1.098790   2.778075   3.895890   3.118985
     8  H    2.132864   3.188406   1.126875   2.164728   2.545993
     9  H    2.158237   2.632469   1.125520   2.166534   3.120308
    10  H    3.448704   4.481488   2.169084   1.118924   3.811566
    11  H    2.769177   3.551224   2.176671   1.118793   3.161805
    12  H    2.740107   3.971882   2.176992   1.119135   2.582953
                    6          7          8          9         10
     6  H    0.000000
     7  H    1.854997   0.000000
     8  H    4.113779   3.517248   0.000000
     9  H    3.729571   2.442806   1.814082   0.000000
    10  H    5.453434   4.655776   2.489740   2.498756   0.000000
    11  H    4.379595   3.795854   3.106397   2.520060   1.816921
    12  H    4.699593   4.556277   2.524080   3.107705   1.817212
                   11         12
    11  H    0.000000
    12  H    1.815280   0.000000
 Stoichiometry    C4H8
 Framework group  C1[X(C4H8)]
 Deg. of freedom    30
 Full point group                 C1      NOp   1
 Largest Abelian subgroup         C1      NOp   1
 Largest concise Abelian subgroup C1      NOp   1
                         Standard orientation:                         
 ---------------------------------------------------------------------
 Center     Atomic      Atomic             Coordinates (Angstroms)
 Number     Number       Type             X           Y           Z
 ---------------------------------------------------------------------
      1          6           0        0.699514   -0.331497    0.309015
      2          6           0        1.843902    0.039748   -0.262655
      3          6           0       -0.532608    0.500248    0.328330
      4          6           0       -1.702439   -0.223689   -0.304978
      5          1           0        0.608862   -1.305963    0.821384
      6          1           0        2.736835   -0.599584   -0.249238
      7          1           0        1.965127    1.001722   -0.779616
      8          1           0       -0.784163    0.745338    1.399077
      9          1           0       -0.361880    1.475479   -0.206995
     10          1           0       -2.622163    0.410903   -0.246741
     11          1           0       -1.491354   -0.447410   -1.380659
     12          1           0       -1.901475   -1.189344    0.224513
 ---------------------------------------------------------------------
 Rotational constants (GHZ):     22.5948487      4.2188670      4.1109674
 Standard basis: VSTO-6G (5D, 7F)
 There are    24 symmetry adapted cartesian basis functions of A   symmetry.
 There are    24 symmetry adapted basis functions of A   symmetry.
    24 basis functions,   144 primitive gaussians,    24 cartesian basis functions
    12 alpha electrons       12 beta electrons
       nuclear repulsion energy        79.5461795637 Hartrees.
 Integral buffers will be    131072 words long.
 Regular integral format.
 Two-electron integral symmetry is turned off.
 Do NDO integrals.
 One-electron integrals computed using PRISM.
 NBasis=    24 RedAO= F EigKep=  0.00D+00  NBF=    24
 NBsUse=    24 1.00D-04 EigRej=  0.00D+00 NBFU=    24
 Initial guess from the checkpoint file:  "1-but-ene-opt.chk"
 B after Tr=     0.000000   -0.000000    0.000000
         Rot=    0.999996   -0.001971   -0.001887    0.001032 Ang=  -0.33 deg.
 Overlap will be assumed to be unity.
 Keep J ints in memory in canonical form, NReq=889405.
 Requested convergence on RMS density matrix=1.00D-08 within 128 cycles.
 Requested convergence on MAX density matrix=1.00D-06.
 Requested convergence on             energy=1.00D-06.
 No special actions if energy rises.
 SCF Done:  E(RAM1) =  0.303348936825E-03 A.U. after   10 cycles
            NFock=  9  Conv=0.68D-08     -V/T= 1.0000
 Calling FoFJK, ICntrl=      2127 FMM=F ISym2X=0 I1Cent= 0 IOpClX= 0 NMat=1 NMatS=1 NMatT=0.
 ***** Axes restored to original set *****
 -------------------------------------------------------------------
 Center     Atomic                   Forces (Hartrees/Bohr)
 Number     Number              X              Y              Z
 -------------------------------------------------------------------
      1        6           0.000007614   -0.001050114   -0.000902598
      2        6           0.001304965   -0.001368368    0.000879950
      3        6           0.001858868    0.001340281    0.000348403
      4        6          -0.002496100   -0.000144181    0.000169842
      5        1           0.000100973   -0.000346781   -0.001239654
      6        1           0.000023466   -0.000480648   -0.000474679
      7        1           0.000042562    0.000430240    0.000685173
      8        1           0.000282887    0.001242350   -0.001316035
      9        1           0.000564086    0.000453718    0.001953179
     10        1          -0.000611321    0.001612531    0.000510843
     11        1          -0.000536174   -0.001326493    0.001168536
     12        1          -0.000541824   -0.000362535   -0.001782960
 -------------------------------------------------------------------
 Cartesian Forces:  Max     0.002496100 RMS     0.001036108

 GradGradGradGradGradGradGradGradGradGradGradGradGradGradGradGradGradGrad
 Berny optimization.
 Using GEDIIS/GDIIS optimizer.
 FormGI is forming the generalized inverse of G from B-inverse, IUseBI=4.
 Internal  Forces:  Max     0.004189212 RMS     0.001068978
 Search for a local minimum.
 Step number   3 out of a maximum of   58
 All quantities printed in internal units (Hartrees-Bohrs-Radians)
 Mixed Optimization -- RFO/linear search
 Update second derivatives using D2CorX and points    1    2    3
 DE= -4.62D-04 DEPred=-6.03D-04 R= 7.67D-01
 TightC=F SS=  1.41D+00  RLast= 8.29D-02 DXNew= 8.4853D-01 2.4862D-01
 Trust test= 7.67D-01 RLast= 8.29D-02 DXMaxT set to 5.05D-01
 ITU=  1  1  0
 Use linear search instead of GDIIS.
     Eigenvalues ---    0.00258   0.00666   0.01676   0.02967   0.02972
     Eigenvalues ---    0.04185   0.05507   0.05537   0.05590   0.09186
     Eigenvalues ---    0.12628   0.15228   0.16000   0.16000   0.16000
     Eigenvalues ---    0.16003   0.16327   0.21838   0.22316   0.30038
     Eigenvalues ---    0.33518   0.33931   0.34091   0.34151   0.34502
     Eigenvalues ---    0.34890   0.35130   0.35813   0.52265   0.64057
 RFO step:  Lambda=-7.43464027D-05 EMin= 2.58162098D-03
 Quartic linear search produced a step of -0.17485.
 Iteration  1 RMS(Cart)=  0.00700156 RMS(Int)=  0.00002118
 Iteration  2 RMS(Cart)=  0.00002642 RMS(Int)=  0.00000338
 Iteration  3 RMS(Cart)=  0.00000000 RMS(Int)=  0.00000338
 Variable       Old X    -DE/DX   Delta X   Delta X   Delta X     New X
                                 (Linear)    (Quad)   (Total)
    R1        2.51713  -0.00224  -0.00039  -0.00232  -0.00271   2.51443
    R2        2.80947  -0.00335  -0.00519   0.00029  -0.00490   2.80457
    R3        2.08755  -0.00122  -0.00039  -0.00240  -0.00279   2.08476
    R4        2.07548  -0.00058  -0.00033  -0.00102  -0.00135   2.07413
    R5        2.07641  -0.00076  -0.00003  -0.00186  -0.00188   2.07453
    R6        2.86196  -0.00419  -0.00513  -0.00284  -0.00797   2.85399
    R7        2.12948  -0.00180  -0.00112  -0.00299  -0.00411   2.12537
    R8        2.12693  -0.00208  -0.00102  -0.00379  -0.00481   2.12211
    R9        2.11446  -0.00179  -0.00054  -0.00375  -0.00429   2.11017
   R10        2.11421  -0.00185  -0.00033  -0.00419  -0.00452   2.10970
   R11        2.11486  -0.00190  -0.00035  -0.00427  -0.00462   2.11024
    A1        2.16720  -0.00028  -0.00066   0.00033  -0.00033   2.16687
    A2        2.11229   0.00039   0.00019   0.00091   0.00110   2.11339
    A3        2.00366  -0.00011   0.00047  -0.00122  -0.00074   2.00292
    A4        2.13059   0.00027  -0.00067   0.00229   0.00162   2.13222
    A5        2.14208   0.00016  -0.00079   0.00171   0.00093   2.14301
    A6        2.01051  -0.00044   0.00145  -0.00401  -0.00255   2.00796
    A7        1.94690  -0.00019  -0.00321   0.00479   0.00159   1.94849
    A8        1.89550   0.00007   0.00100  -0.00088   0.00013   1.89563
    A9        1.93142  -0.00003  -0.00016  -0.00060  -0.00076   1.93066
   A10        1.90591   0.00013  -0.00023   0.00122   0.00099   1.90689
   A11        1.90970   0.00018   0.00059   0.00016   0.00076   1.91047
   A12        1.87270  -0.00016   0.00219  -0.00506  -0.00287   1.86984
   A13        1.91989   0.00015  -0.00161   0.00357   0.00196   1.92185
   A14        1.93040   0.00004  -0.00114   0.00189   0.00075   1.93115
   A15        1.93049   0.00007  -0.00136   0.00254   0.00119   1.93168
   A16        1.89498  -0.00009   0.00164  -0.00303  -0.00139   1.89359
   A17        1.89500  -0.00009   0.00128  -0.00239  -0.00111   1.89389
   A18        1.89221  -0.00009   0.00130  -0.00285  -0.00154   1.89066
    D1        3.13261  -0.00002  -0.00021   0.00141   0.00120   3.13381
    D2       -0.00905   0.00003   0.00103   0.00096   0.00199  -0.00706
    D3       -0.00030  -0.00009  -0.00086  -0.00218  -0.00305  -0.00335
    D4        3.14123  -0.00004   0.00038  -0.00263  -0.00225   3.13897
    D5        2.13436   0.00011  -0.00415   0.01466   0.01050   2.14485
    D6       -2.04748   0.00020  -0.00578   0.01857   0.01280  -2.03468
    D7        0.00385   0.00003  -0.00260   0.01156   0.00896   0.01281
    D8       -1.01543   0.00018  -0.00354   0.01805   0.01451  -1.00092
    D9        1.08592   0.00026  -0.00516   0.02197   0.01681   1.10273
   D10        3.13725   0.00010  -0.00199   0.01495   0.01297  -3.13297
   D11        3.10948   0.00004  -0.00067   0.00055  -0.00012   3.10936
   D12       -1.08047   0.00005  -0.00038   0.00028  -0.00010  -1.08057
   D13        1.01617   0.00001  -0.00037  -0.00039  -0.00076   1.01540
   D14        1.01424  -0.00000   0.00024  -0.00218  -0.00193   1.01231
   D15        3.10748  -0.00000   0.00053  -0.00245  -0.00191   3.10556
   D16       -1.07907  -0.00004   0.00054  -0.00312  -0.00258  -1.08165
   D17       -1.03073   0.00001  -0.00260   0.00312   0.00052  -1.03021
   D18        1.06250   0.00001  -0.00231   0.00285   0.00054   1.06304
   D19       -3.12404  -0.00003  -0.00230   0.00218  -0.00012  -3.12417
         Item               Value     Threshold  Converged?
 Maximum Force            0.004189     0.000450     NO 
 RMS     Force            0.001069     0.000300     NO 
 Maximum Displacement     0.021359     0.001800     NO 
 RMS     Displacement     0.007002     0.001200     NO 
 Predicted change in Energy=-6.111552D-05
 GradGradGradGradGradGradGradGradGradGradGradGradGradGradGradGradGradGrad

                          Input orientation:                          
 ---------------------------------------------------------------------
 Center     Atomic      Atomic             Coordinates (Angstroms)
 Number     Number       Type             X           Y           Z
 ---------------------------------------------------------------------
      1          6           0        1.342517    2.144086    1.665810
      2          6           0        0.484559    2.862996    0.946428
      3          6           0        1.971862    0.884306    1.197333
      4          6           0        3.479392    0.969316    1.229537
      5          1           0        1.635788    2.456889    2.682279
      6          1           0        0.032596    3.787382    1.328433
      7          1           0        0.175424    2.579208   -0.067992
      8          1           0        1.633379    0.044326    1.864273
      9          1           0        1.633252    0.636642    0.155663
     10          1           0        3.925772   -0.001301    0.904629
     11          1           0        3.843055    1.773029    0.545321
     12          1           0        3.839502    1.197321    2.261687
 ---------------------------------------------------------------------
                    Distance matrix (angstroms):
                    1          2          3          4          5
     1  C    0.000000
     2  C    1.330577   0.000000
     3  C    1.484113   2.488019   0.000000
     4  C    2.477227   3.554603   1.510268   0.000000
     5  H    1.103206   2.122129   2.188842   2.778886   0.000000
     6  H    2.128413   1.097583   3.493679   4.453278   2.484620
     7  H    2.134832   1.097793   2.775055   3.897633   3.116347
     8  H    2.129079   3.179171   1.124698   2.160153   2.547470
     9  H    2.153475   2.627062   1.122974   2.161507   3.114016
    10  H    3.443151   4.477488   2.165119   1.116655   3.800890
    11  H    2.765117   3.553648   2.171707   1.116404   3.147424
    12  H    2.736123   3.969890   2.172305   1.116691   2.572890
                    6          7          8          9         10
     6  H    0.000000
     7  H    1.852050   0.000000
     8  H    4.106105   3.504983   0.000000
     9  H    3.723527   2.439026   1.808365   0.000000
    10  H    5.448904   4.655119   2.485571   2.494709   0.000000
    11  H    4.380694   3.804943   3.100116   2.515242   1.812235
    12  H    4.698076   4.556587   2.520777   3.101168   1.812663
                   11         12
    11  H    0.000000
    12  H    1.810350   0.000000
 Stoichiometry    C4H8
 Framework group  C1[X(C4H8)]
 Deg. of freedom    30
 Full point group                 C1      NOp   1
 Largest Abelian subgroup         C1      NOp   1
 Largest concise Abelian subgroup C1      NOp   1
                         Standard orientation:                         
 ---------------------------------------------------------------------
 Center     Atomic      Atomic             Coordinates (Angstroms)
 Number     Number       Type             X           Y           Z
 ---------------------------------------------------------------------
      1          6           0        0.697603   -0.333219    0.305202
      2          6           0        1.843207    0.040189   -0.259237
      3          6           0       -0.531332    0.498591    0.325292
      4          6           0       -1.701503   -0.221394   -0.301791
      5          1           0        0.601889   -1.311077    0.806895
      6          1           0        2.735421   -0.598974   -0.248702
      7          1           0        1.968695    1.005096   -0.767524
      8          1           0       -0.778589    0.747917    1.393770
      9          1           0       -0.359672    1.470702   -0.210061
     10          1           0       -2.618722    0.412795   -0.243200
     11          1           0       -1.495175   -0.447360   -1.375442
     12          1           0       -1.901690   -1.184103    0.227468
 ---------------------------------------------------------------------
 Rotational constants (GHZ):     22.7860970      4.2290625      4.1166581
 Standard basis: VSTO-6G (5D, 7F)
 There are    24 symmetry adapted cartesian basis functions of A   symmetry.
 There are    24 symmetry adapted basis functions of A   symmetry.
    24 basis functions,   144 primitive gaussians,    24 cartesian basis functions
    12 alpha electrons       12 beta electrons
       nuclear repulsion energy        79.6194533435 Hartrees.
 Integral buffers will be    131072 words long.
 Regular integral format.
 Two-electron integral symmetry is turned off.
 Do NDO integrals.
 One-electron integrals computed using PRISM.
 NBasis=    24 RedAO= F EigKep=  0.00D+00  NBF=    24
 NBsUse=    24 1.00D-04 EigRej=  0.00D+00 NBFU=    24
 Initial guess from the checkpoint file:  "1-but-ene-opt.chk"
 B after Tr=    -0.000000    0.000000    0.000000
         Rot=    1.000000   -0.000739   -0.000026    0.000394 Ang=  -0.10 deg.
 Overlap will be assumed to be unity.
 Keep J ints in memory in canonical form, NReq=889405.
 Requested convergence on RMS density matrix=1.00D-08 within 128 cycles.
 Requested convergence on MAX density matrix=1.00D-06.
 Requested convergence on             energy=1.00D-06.
 No special actions if energy rises.
 SCF Done:  E(RAM1) =  0.234574094549E-03 A.U. after   10 cycles
            NFock=  9  Conv=0.21D-08     -V/T= 1.0000
 Calling FoFJK, ICntrl=      2127 FMM=F ISym2X=0 I1Cent= 0 IOpClX= 0 NMat=1 NMatS=1 NMatT=0.
 ***** Axes restored to original set *****
 -------------------------------------------------------------------
 Center     Atomic                   Forces (Hartrees/Bohr)
 Number     Number              X              Y              Z
 -------------------------------------------------------------------
      1        6           0.000344035   -0.000223015    0.000046364
      2        6          -0.000036106   -0.000184184    0.000129295
      3        6           0.000376414    0.000198438    0.000106299
      4        6          -0.000544192   -0.000046467    0.000152479
      5        1           0.000183024    0.000033269   -0.000120046
      6        1          -0.000145669    0.000009282   -0.000130100
      7        1          -0.000120168    0.000138141   -0.000061716
      8        1          -0.000185708   -0.000000876   -0.000160423
      9        1           0.000030193    0.000011997    0.000054821
     10        1           0.000000911    0.000040167   -0.000000173
     11        1           0.000052158    0.000030445   -0.000014736
     12        1           0.000045108   -0.000007196   -0.000002063
 -------------------------------------------------------------------
 Cartesian Forces:  Max     0.000544192 RMS     0.000160947

 GradGradGradGradGradGradGradGradGradGradGradGradGradGradGradGradGradGrad
 Berny optimization.
 Using GEDIIS/GDIIS optimizer.
 FormGI is forming the generalized inverse of G from B-inverse, IUseBI=4.
 Internal  Forces:  Max     0.000441363 RMS     0.000116610
 Search for a local minimum.
 Step number   4 out of a maximum of   58
 All quantities printed in internal units (Hartrees-Bohrs-Radians)
 Mixed Optimization -- En-DIIS/RFO-DIIS
 Update second derivatives using D2CorX and points    1    2    3    4
 DE= -6.88D-05 DEPred=-6.11D-05 R= 1.13D+00
 TightC=F SS=  1.41D+00  RLast= 3.60D-02 DXNew= 8.4853D-01 1.0795D-01
 Trust test= 1.13D+00 RLast= 3.60D-02 DXMaxT set to 5.05D-01
 ITU=  1  1  1  0
 Use linear search instead of GDIIS.
     Eigenvalues ---    0.00258   0.00518   0.01688   0.02963   0.02970
     Eigenvalues ---    0.04167   0.05463   0.05530   0.05572   0.09124
     Eigenvalues ---    0.12578   0.14566   0.15987   0.16000   0.16000
     Eigenvalues ---    0.16008   0.16366   0.21828   0.22406   0.29943
     Eigenvalues ---    0.33455   0.33903   0.34092   0.34140   0.34519
     Eigenvalues ---    0.34887   0.35124   0.37996   0.50613   0.65726
 RFO step:  Lambda=-2.46471770D-05 EMin= 2.58123759D-03
 Quartic linear search produced a step of  0.16619.
 Iteration  1 RMS(Cart)=  0.01549219 RMS(Int)=  0.00009464
 Iteration  2 RMS(Cart)=  0.00013399 RMS(Int)=  0.00000061
 Iteration  3 RMS(Cart)=  0.00000001 RMS(Int)=  0.00000061
 Variable       Old X    -DE/DX   Delta X   Delta X   Delta X     New X
                                 (Linear)    (Quad)   (Total)
    R1        2.51443   0.00021  -0.00045   0.00037  -0.00008   2.51435
    R2        2.80457  -0.00033  -0.00081   0.00007  -0.00074   2.80382
    R3        2.08476  -0.00005  -0.00046   0.00004  -0.00042   2.08434
    R4        2.07413   0.00002  -0.00022   0.00036   0.00014   2.07427
    R5        2.07453   0.00006  -0.00031   0.00029  -0.00002   2.07451
    R6        2.85399  -0.00044  -0.00132  -0.00091  -0.00224   2.85176
    R7        2.12537  -0.00004  -0.00068   0.00059  -0.00010   2.12528
    R8        2.12211  -0.00006  -0.00080   0.00045  -0.00035   2.12177
    R9        2.11017  -0.00003  -0.00071   0.00029  -0.00042   2.10975
   R10        2.10970   0.00005  -0.00075   0.00049  -0.00026   2.10944
   R11        2.11024   0.00001  -0.00077   0.00034  -0.00043   2.10981
    A1        2.16687  -0.00003  -0.00006  -0.00019  -0.00025   2.16662
    A2        2.11339   0.00009   0.00018   0.00107   0.00126   2.11465
    A3        2.00292  -0.00006  -0.00012  -0.00089  -0.00102   2.00190
    A4        2.13222   0.00013   0.00027   0.00140   0.00167   2.13389
    A5        2.14301   0.00013   0.00015   0.00157   0.00173   2.14474
    A6        2.00796  -0.00026  -0.00042  -0.00298  -0.00340   2.00455
    A7        1.94849  -0.00010   0.00026   0.00075   0.00101   1.94950
    A8        1.89563  -0.00000   0.00002  -0.00086  -0.00084   1.89479
    A9        1.93066   0.00001  -0.00013   0.00021   0.00008   1.93075
   A10        1.90689   0.00008   0.00016   0.00102   0.00118   1.90807
   A11        1.91047   0.00010   0.00013   0.00080   0.00093   1.91140
   A12        1.86984  -0.00008  -0.00048  -0.00204  -0.00252   1.86732
   A13        1.92185   0.00000   0.00033   0.00054   0.00086   1.92272
   A14        1.93115   0.00004   0.00013   0.00078   0.00091   1.93206
   A15        1.93168   0.00005   0.00020   0.00095   0.00114   1.93282
   A16        1.89359  -0.00003  -0.00023  -0.00096  -0.00120   1.89240
   A17        1.89389  -0.00003  -0.00018  -0.00066  -0.00085   1.89305
   A18        1.89066  -0.00004  -0.00026  -0.00072  -0.00098   1.88968
    D1        3.13381  -0.00007   0.00020  -0.00347  -0.00328   3.13053
    D2       -0.00706  -0.00002   0.00033  -0.00201  -0.00168  -0.00874
    D3       -0.00335  -0.00003  -0.00051  -0.00050  -0.00101  -0.00436
    D4        3.13897   0.00001  -0.00037   0.00095   0.00058   3.13955
    D5        2.14485   0.00016   0.00174   0.02758   0.02932   2.17418
    D6       -2.03468   0.00020   0.00213   0.02875   0.03087  -2.00380
    D7        0.01281   0.00011   0.00149   0.02588   0.02737   0.04018
    D8       -1.00092   0.00013   0.00241   0.02478   0.02719  -0.97373
    D9        1.10273   0.00017   0.00279   0.02595   0.02875   1.13148
   D10       -3.13297   0.00007   0.00216   0.02309   0.02524  -3.10773
   D11        3.10936   0.00000  -0.00002   0.00251   0.00249   3.11185
   D12       -1.08057  -0.00001  -0.00002   0.00216   0.00214  -1.07843
   D13        1.01540   0.00000  -0.00013   0.00238   0.00225   1.01766
   D14        1.01231   0.00001  -0.00032   0.00243   0.00211   1.01442
   D15        3.10556   0.00001  -0.00032   0.00208   0.00176   3.10732
   D16       -1.08165   0.00001  -0.00043   0.00230   0.00187  -1.07978
   D17       -1.03021   0.00001   0.00009   0.00385   0.00393  -1.02628
   D18        1.06304   0.00000   0.00009   0.00349   0.00358   1.06663
   D19       -3.12417   0.00001  -0.00002   0.00372   0.00370  -3.12047
         Item               Value     Threshold  Converged?
 Maximum Force            0.000441     0.000450     YES
 RMS     Force            0.000117     0.000300     YES
 Maximum Displacement     0.047307     0.001800     NO 
 RMS     Displacement     0.015486     0.001200     NO 
 Predicted change in Energy=-1.405021D-05
 GradGradGradGradGradGradGradGradGradGradGradGradGradGradGradGradGradGrad

                          Input orientation:                          
 ---------------------------------------------------------------------
 Center     Atomic      Atomic             Coordinates (Angstroms)
 Number     Number       Type             X           Y           Z
 ---------------------------------------------------------------------
      1          6           0        1.348977    2.150806    1.659917
      2          6           0        0.475791    2.859737    0.949077
      3          6           0        1.974951    0.889683    1.191783
      4          6           0        3.481534    0.965053    1.234971
      5          1           0        1.657642    2.471686    2.669042
      6          1           0        0.023438    3.784394    1.330176
      7          1           0        0.150391    2.567884   -0.057930
      8          1           0        1.625250    0.049556    1.852636
      9          1           0        1.641359    0.646402    0.147662
     10          1           0        3.924965   -0.005798    0.907505
     11          1           0        3.855868    1.770027    0.558259
     12          1           0        3.836935    1.184771    2.270302
 ---------------------------------------------------------------------
                    Distance matrix (angstroms):
                    1          2          3          4          5
     1  C    0.000000
     2  C    1.330537   0.000000
     3  C    1.483719   2.487468   0.000000
     4  C    2.476770   3.564555   1.509085   0.000000
     5  H    1.102984   2.122648   2.187627   2.766421   0.000000
     6  H    2.129411   1.097657   3.493838   4.462754   2.487246
     7  H    2.135781   1.097783   2.776177   3.916271   3.117281
     8  H    2.128079   3.167774   1.124648   2.159962   2.556224
     9  H    2.153052   2.626722   1.122790   2.161023   3.112761
    10  H    3.442787   4.484397   2.164545   1.116430   3.792320
    11  H    2.764624   3.572831   2.171222   1.116266   3.127288
    12  H    2.737833   3.981009   2.171926   1.116466   2.562121
                    6          7          8          9         10
     6  H    0.000000
     7  H    1.850094   0.000000
     8  H    4.097290   3.488187   0.000000
     9  H    3.723305   2.440768   1.806494   0.000000
    10  H    5.455833   4.669402   2.486972   2.493508   0.000000
    11  H    4.397846   3.840159   3.100176   2.516976   1.811160
    12  H    4.710057   4.574306   2.520855   3.100966   1.811745
                   11         12
    11  H    0.000000
    12  H    1.809413   0.000000
 Stoichiometry    C4H8
 Framework group  C1[X(C4H8)]
 Deg. of freedom    30
 Full point group                 C1      NOp   1
 Largest Abelian subgroup         C1      NOp   1
 Largest concise Abelian subgroup C1      NOp   1
                         Standard orientation:                         
 ---------------------------------------------------------------------
 Center     Atomic      Atomic             Coordinates (Angstroms)
 Number     Number       Type             X           Y           Z
 ---------------------------------------------------------------------
      1          6           0        0.695848   -0.337770    0.295342
      2          6           0        1.848171    0.040194   -0.252036
      3          6           0       -0.529166    0.499033    0.318255
      4          6           0       -1.706711   -0.218764   -0.294518
      5          1           0        0.590642   -1.322316    0.781318
      6          1           0        2.739382   -0.600511   -0.242549
      7          1           0        1.983827    1.012038   -0.744220
      8          1           0       -0.766028    0.757864    1.386775
      9          1           0       -0.356861    1.467317   -0.223404
     10          1           0       -2.620029    0.420661   -0.236186
     11          1           0       -1.509692   -0.455524   -1.367448
     12          1           0       -1.910091   -1.175694    0.243455
 ---------------------------------------------------------------------
 Rotational constants (GHZ):     23.0560657      4.2220317      4.0981763
 Standard basis: VSTO-6G (5D, 7F)
 There are    24 symmetry adapted cartesian basis functions of A   symmetry.
 There are    24 symmetry adapted basis functions of A   symmetry.
    24 basis functions,   144 primitive gaussians,    24 cartesian basis functions
    12 alpha electrons       12 beta electrons
       nuclear repulsion energy        79.6164532390 Hartrees.
 Integral buffers will be    131072 words long.
 Regular integral format.
 Two-electron integral symmetry is turned off.
 Do NDO integrals.
 One-electron integrals computed using PRISM.
 NBasis=    24 RedAO= F EigKep=  0.00D+00  NBF=    24
 NBsUse=    24 1.00D-04 EigRej=  0.00D+00 NBFU=    24
 Initial guess from the checkpoint file:  "1-but-ene-opt.chk"
 B after Tr=    -0.000000   -0.000000   -0.000000
         Rot=    1.000000    0.000000   -0.000220    0.000968 Ang=   0.11 deg.
 Overlap will be assumed to be unity.
 Keep J ints in memory in canonical form, NReq=889405.
 Requested convergence on RMS density matrix=1.00D-08 within 128 cycles.
 Requested convergence on MAX density matrix=1.00D-06.
 Requested convergence on             energy=1.00D-06.
 No special actions if energy rises.
 SCF Done:  E(RAM1) =  0.211669642084E-03 A.U. after   10 cycles
            NFock=  9  Conv=0.60D-08     -V/T= 1.0000
 Calling FoFJK, ICntrl=      2127 FMM=F ISym2X=0 I1Cent= 0 IOpClX= 0 NMat=1 NMatS=1 NMatT=0.
 ***** Axes restored to original set *****
 -------------------------------------------------------------------
 Center     Atomic                   Forces (Hartrees/Bohr)
 Number     Number              X              Y              Z
 -------------------------------------------------------------------
      1        6           0.000104249   -0.000041785    0.000000822
      2        6          -0.000301655    0.000016095    0.000099778
      3        6          -0.000254221   -0.000128466   -0.000042810
      4        6           0.000231996   -0.000008104    0.000088794
      5        1           0.000134972    0.000217376    0.000010231
      6        1           0.000042886    0.000006759    0.000050079
      7        1           0.000048695   -0.000057095   -0.000094896
      8        1          -0.000106725   -0.000097043    0.000052829
      9        1           0.000053110    0.000066927   -0.000198407
     10        1           0.000013395   -0.000195071   -0.000059040
     11        1           0.000014236    0.000186803   -0.000138990
     12        1           0.000019062    0.000033603    0.000231611
 -------------------------------------------------------------------
 Cartesian Forces:  Max     0.000301655 RMS     0.000125244

 GradGradGradGradGradGradGradGradGradGradGradGradGradGradGradGradGradGrad
 Berny optimization.
 Using GEDIIS/GDIIS optimizer.
 FormGI is forming the generalized inverse of G from B-inverse, IUseBI=4.
 Internal  Forces:  Max     0.000282590 RMS     0.000098564
 Search for a local minimum.
 Step number   5 out of a maximum of   58
 All quantities printed in internal units (Hartrees-Bohrs-Radians)
 Mixed Optimization -- En-DIIS/RFO-DIIS
 Swapping is turned off.
 Update second derivatives using D2CorX and points    1    2    3    4    5
 DE= -2.29D-05 DEPred=-1.41D-05 R= 1.63D+00
 TightC=F SS=  1.41D+00  RLast= 6.99D-02 DXNew= 8.4853D-01 2.0982D-01
 Trust test= 1.63D+00 RLast= 6.99D-02 DXMaxT set to 5.05D-01
 ITU=  1  1  1  1  0
     Eigenvalues ---    0.00125   0.00261   0.01708   0.02959   0.03032
     Eigenvalues ---    0.04158   0.05512   0.05562   0.05754   0.09320
     Eigenvalues ---    0.12646   0.15965   0.15974   0.16000   0.16007
     Eigenvalues ---    0.16161   0.17269   0.21910   0.22568   0.30062
     Eigenvalues ---    0.33489   0.33908   0.34092   0.34162   0.34516
     Eigenvalues ---    0.34947   0.35140   0.41124   0.55967   0.69783
 En-DIIS/RFO-DIIS IScMMF=        0 using points:     5    4
 RFO step:  Lambda=-2.76049211D-06.
 DidBck=F Rises=F RFO-DIIS coefs:    2.86748   -1.86748
 Iteration  1 RMS(Cart)=  0.04820157 RMS(Int)=  0.00093328
 Iteration  2 RMS(Cart)=  0.00128798 RMS(Int)=  0.00000235
 Iteration  3 RMS(Cart)=  0.00000056 RMS(Int)=  0.00000229
 Variable       Old X    -DE/DX   Delta X   Delta X   Delta X     New X
                                 (Linear)    (Quad)   (Total)
    R1        2.51435   0.00009  -0.00014  -0.00105  -0.00120   2.51315
    R2        2.80382   0.00013  -0.00139   0.00079  -0.00060   2.80323
    R3        2.08434   0.00011  -0.00079   0.00024  -0.00055   2.08379
    R4        2.07427   0.00001   0.00026  -0.00015   0.00011   2.07438
    R5        2.07451   0.00009  -0.00004   0.00001  -0.00002   2.07449
    R6        2.85176   0.00028  -0.00418   0.00116  -0.00302   2.84874
    R7        2.12528   0.00014  -0.00018   0.00052   0.00034   2.12562
    R8        2.12177   0.00015  -0.00065   0.00042  -0.00023   2.12153
    R9        2.10975   0.00019  -0.00079   0.00055  -0.00024   2.10951
   R10        2.10944   0.00022  -0.00049   0.00042  -0.00007   2.10937
   R11        2.10981   0.00023  -0.00080   0.00048  -0.00031   2.10950
    A1        2.16662  -0.00002  -0.00047  -0.00045  -0.00092   2.16570
    A2        2.11465  -0.00009   0.00234  -0.00086   0.00148   2.11613
    A3        2.00190   0.00011  -0.00190   0.00133  -0.00057   2.00133
    A4        2.13389  -0.00004   0.00313  -0.00034   0.00279   2.13668
    A5        2.14474  -0.00005   0.00323  -0.00054   0.00268   2.14742
    A6        2.00455   0.00009  -0.00636   0.00089  -0.00547   1.99908
    A7        1.94950  -0.00006   0.00189   0.00048   0.00236   1.95186
    A8        1.89479   0.00002  -0.00156  -0.00035  -0.00191   1.89288
    A9        1.93075   0.00000   0.00016  -0.00020  -0.00005   1.93070
   A10        1.90807  -0.00001   0.00221  -0.00028   0.00193   1.91001
   A11        1.91140   0.00003   0.00173  -0.00033   0.00140   1.91280
   A12        1.86732   0.00002  -0.00471   0.00068  -0.00402   1.86329
   A13        1.92272  -0.00007   0.00161  -0.00014   0.00148   1.92419
   A14        1.93206  -0.00006   0.00169  -0.00059   0.00110   1.93316
   A15        1.93282  -0.00006   0.00214  -0.00054   0.00160   1.93442
   A16        1.89240   0.00008  -0.00223   0.00061  -0.00163   1.89077
   A17        1.89305   0.00006  -0.00158   0.00035  -0.00123   1.89182
   A18        1.88968   0.00006  -0.00183   0.00035  -0.00149   1.88819
    D1        3.13053   0.00002  -0.00612   0.00406  -0.00206   3.12848
    D2       -0.00874  -0.00004  -0.00314  -0.00201  -0.00516  -0.01390
    D3       -0.00436   0.00001  -0.00189   0.00052  -0.00136  -0.00572
    D4        3.13955  -0.00004   0.00109  -0.00555  -0.00446   3.13509
    D5        2.17418   0.00013   0.05476   0.03556   0.09032   2.26450
    D6       -2.00380   0.00010   0.05766   0.03528   0.09294  -1.91087
    D7        0.04018   0.00014   0.05112   0.03579   0.08691   0.12709
    D8       -0.97373   0.00013   0.05078   0.03889   0.08967  -0.88405
    D9        1.13148   0.00010   0.05368   0.03861   0.09229   1.22377
   D10       -3.10773   0.00014   0.04714   0.03912   0.08626  -3.02146
   D11        3.11185  -0.00000   0.00465   0.00330   0.00795   3.11980
   D12       -1.07843   0.00001   0.00400   0.00359   0.00759  -1.07084
   D13        1.01766   0.00001   0.00421   0.00329   0.00750   1.02515
   D14        1.01442   0.00002   0.00394   0.00362   0.00755   1.02197
   D15        3.10732   0.00003   0.00328   0.00391   0.00719   3.11451
   D16       -1.07978   0.00003   0.00349   0.00361   0.00710  -1.07268
   D17       -1.02628  -0.00002   0.00735   0.00314   0.01049  -1.01579
   D18        1.06663  -0.00001   0.00669   0.00343   0.01013   1.07675
   D19       -3.12047  -0.00001   0.00690   0.00313   0.01003  -3.11044
         Item               Value     Threshold  Converged?
 Maximum Force            0.000283     0.000450     YES
 RMS     Force            0.000099     0.000300     YES
 Maximum Displacement     0.141310     0.001800     NO 
 RMS     Displacement     0.048138     0.001200     NO 
 Predicted change in Energy=-3.137986D-05
 GradGradGradGradGradGradGradGradGradGradGradGradGradGradGradGradGradGrad

                          Input orientation:                          
 ---------------------------------------------------------------------
 Center     Atomic      Atomic             Coordinates (Angstroms)
 Number     Number       Type             X           Y           Z
 ---------------------------------------------------------------------
      1          6           0        1.366636    2.170523    1.641233
      2          6           0        0.448010    2.848407    0.959144
      3          6           0        1.983317    0.904932    1.173829
      4          6           0        3.488047    0.952238    1.251714
      5          1           0        1.724127    2.521327    2.623613
      6          1           0        0.000693    3.776956    1.336878
      7          1           0        0.075612    2.529603   -0.023091
      8          1           0        1.601527    0.064282    1.816312
      9          1           0        1.667794    0.676633    0.120877
     10          1           0        3.923026   -0.019418    0.915841
     11          1           0        3.892768    1.762368    0.599133
     12          1           0        3.825544    1.146349    2.297917
 ---------------------------------------------------------------------
                    Distance matrix (angstroms):
                    1          2          3          4          5
     1  C    0.000000
     2  C    1.329904   0.000000
     3  C    1.483403   2.486032   0.000000
     4  C    2.477162   3.594841   1.507486   0.000000
     5  H    1.102694   2.122714   2.186730   2.730488   0.000000
     6  H    2.130506   1.097715   3.493696   4.488644   2.490485
     7  H    2.136739   1.097772   2.776961   3.969624   3.118127
     8  H    2.126518   3.133160   1.124829   2.160138   2.589176
     9  H    2.152647   2.628150   1.122667   2.160572   3.109623
    10  H    3.443424   4.505778   2.164128   1.116303   3.769221
    11  H    2.762953   3.629800   2.170593   1.116231   3.062277
    12  H    2.743428   4.012113   2.171556   1.116300   2.532310
                    6          7          8          9         10
     6  H    0.000000
     7  H    1.846895   0.000000
     8  H    4.071422   3.433603   0.000000
     9  H    3.724230   2.447298   1.803847   0.000000
    10  H    5.474890   4.709744   2.491428   2.490487   0.000000
    11  H    4.444219   3.942904   3.100775   2.521520   1.809967
    12  H    4.740588   4.621954   2.519735   3.100971   1.810705
                   11         12
    11  H    0.000000
    12  H    1.808277   0.000000
 Stoichiometry    C4H8
 Framework group  C1[X(C4H8)]
 Deg. of freedom    30
 Full point group                 C1      NOp   1
 Largest Abelian subgroup         C1      NOp   1
 Largest concise Abelian subgroup C1      NOp   1
                         Standard orientation:                         
 ---------------------------------------------------------------------
 Center     Atomic      Atomic             Coordinates (Angstroms)
 Number     Number       Type             X           Y           Z
 ---------------------------------------------------------------------
      1          6           0        0.691609   -0.348169    0.267526
      2          6           0        1.862997    0.038702   -0.229290
      3          6           0       -0.522664    0.503519    0.293134
      4          6           0       -1.722716   -0.213992   -0.270397
      5          1           0        0.559534   -1.351224    0.706126
      6          1           0        2.748132   -0.610511   -0.223337
      7          1           0        2.025746    1.027368   -0.677794
      8          1           0       -0.728887    0.797604    1.359073
      9          1           0       -0.350468    1.454827   -0.277607
     10          1           0       -2.624721    0.441558   -0.217714
     11          1           0       -1.552384   -0.491700   -1.338028
     12          1           0       -1.932304   -1.148287    0.303441
 ---------------------------------------------------------------------
 Rotational constants (GHZ):     23.8613560      4.2012776      4.0415228
 Standard basis: VSTO-6G (5D, 7F)
 There are    24 symmetry adapted cartesian basis functions of A   symmetry.
 There are    24 symmetry adapted basis functions of A   symmetry.
    24 basis functions,   144 primitive gaussians,    24 cartesian basis functions
    12 alpha electrons       12 beta electrons
       nuclear repulsion energy        79.5969564604 Hartrees.
 Integral buffers will be    131072 words long.
 Regular integral format.
 Two-electron integral symmetry is turned off.
 Do NDO integrals.
 One-electron integrals computed using PRISM.
 NBasis=    24 RedAO= F EigKep=  0.00D+00  NBF=    24
 NBsUse=    24 1.00D-04 EigRej=  0.00D+00 NBFU=    24
 Initial guess from the checkpoint file:  "1-but-ene-opt.chk"
 B after Tr=     0.000000    0.000000    0.000000
         Rot=    0.999989    0.003753   -0.000767    0.002723 Ang=   0.54 deg.
 Overlap will be assumed to be unity.
 Keep J ints in memory in canonical form, NReq=889405.
 Requested convergence on RMS density matrix=1.00D-08 within 128 cycles.
 Requested convergence on MAX density matrix=1.00D-06.
 Requested convergence on             energy=1.00D-06.
 No special actions if energy rises.
 SCF Done:  E(RAM1) =  0.172017159429E-03 A.U. after   11 cycles
            NFock= 10  Conv=0.59D-08     -V/T= 1.0000
 Calling FoFJK, ICntrl=      2127 FMM=F ISym2X=0 I1Cent= 0 IOpClX= 0 NMat=1 NMatS=1 NMatT=0.
 ***** Axes restored to original set *****
 -------------------------------------------------------------------
 Center     Atomic                   Forces (Hartrees/Bohr)
 Number     Number              X              Y              Z
 -------------------------------------------------------------------
[...]
 
 Zero-point correction=                           0.108876 (Hartree/Particle)
 Thermal correction to Energy=                    0.114292
 Thermal correction to Enthalpy=                  0.115236
 Thermal correction to Gibbs Free Energy=         0.080726
 Sum of electronic and zero-point Energies=              0.109021
 Sum of electronic and thermal Energies=                 0.114437
 Sum of electronic and thermal Enthalpies=               0.115381
 Sum of electronic and thermal Free Energies=            0.080872
 
                     E (Thermal)             CV                S
                      KCal/Mol        Cal/Mol-Kelvin    Cal/Mol-Kelvin
 Total                   71.719             17.524             72.631
 Electronic               0.000              0.000              0.000
 Translational            0.889              2.981             37.993
 Rotational               0.889              2.981             24.175
 Vibrational             69.942             11.562             10.463
 Vibration     1          0.596              1.975              4.573
 Vibration     2          0.620              1.896              2.602
 Vibration     3          0.719              1.598              1.217
 Vibration     4          0.816              1.344              0.773
 Vibration     5          0.971              1.007              0.430
                       Q            Log10(Q)             Ln(Q)
 Total Bot       0.738743D-37        -37.131507        -85.498454
 Total V=0       0.886916D+13         12.947883         29.813601
 Vib (Bot)       0.104500D-48        -48.980885       -112.782656
 Vib (Bot)    1  0.365136D+01          0.562454          1.295099
 Vib (Bot)    2  0.130061D+01          0.114146          0.262831
 Vib (Bot)    3  0.548184D+00         -0.261074         -0.601145
 Vib (Bot)    4  0.372299D+00         -0.429109         -0.988059
 Vib (Bot)    5  0.241094D+00         -0.617814         -1.422569
 Vib (V=0)       0.125460D+02          1.098504          2.529400
 Vib (V=0)    1  0.418543D+01          0.621740          1.431610
 Vib (V=0)    2  0.189341D+01          0.277244          0.638377
 Vib (V=0)    3  0.124196D+01          0.094108          0.216691
 Vib (V=0)    4  0.112338D+01          0.050528          0.116345
 Vib (V=0)    5  0.105509D+01          0.023290          0.053627
 Electronic      0.100000D+01          0.000000          0.000000
 Translational   0.164993D+08          7.217465         16.618827
 Rotational      0.428463D+05          4.631913         10.665374
 ***** Axes restored to original set *****
 -------------------------------------------------------------------
 Center     Atomic                   Forces (Hartrees/Bohr)
 Number     Number              X              Y              Z
 -------------------------------------------------------------------
      1        6           0.000046693   -0.000055583    0.000033857
      2        6          -0.000080697    0.000024776   -0.000040674
      3        6           0.000010491    0.000019174    0.000005608
      4        6          -0.000014405    0.000002903    0.000000424
      5        1           0.000009157   -0.000006480   -0.000004243
      6        1           0.000014701    0.000009204    0.000006700
      7        1           0.000013369   -0.000004241   -0.000004142
      8        1          -0.000002783    0.000007108   -0.000003161
      9        1          -0.000001643    0.000003688    0.000007252
     10        1           0.000001681    0.000004606    0.000001774
     11        1           0.000001629   -0.000006215    0.000002724
     12        1           0.000001809    0.000001060   -0.000006119
 -------------------------------------------------------------------
 Cartesian Forces:  Max     0.000080697 RMS     0.000021654
 FormGI is forming the generalized inverse of G from B-inverse, IUseBI=4.

 GradGradGradGradGradGradGradGradGradGradGradGradGradGradGradGradGradGrad
 Berny optimization.
 Internal  Forces:  Max     0.000071213 RMS     0.000012628
 Search for a local minimum.
 Step number   1 out of a maximum of    2
 All quantities printed in internal units (Hartrees-Bohrs-Radians)
 Second derivative matrix not updated -- analytic derivatives used.
 ITU=  0
     Eigenvalues ---    0.00059   0.00108   0.02140   0.02272   0.04166
     Eigenvalues ---    0.04397   0.04637   0.04641   0.04919   0.08492
     Eigenvalues ---    0.09934   0.10735   0.11496   0.12169   0.13236
     Eigenvalues ---    0.13856   0.14349   0.15858   0.19165   0.31917
     Eigenvalues ---    0.33161   0.33190   0.34355   0.35432   0.35967
     Eigenvalues ---    0.36513   0.37634   0.44762   0.53488   0.83784
 Angle between quadratic step and forces=  83.73 degrees.
 Linear search not attempted -- first point.
 Iteration  1 RMS(Cart)=  0.00082309 RMS(Int)=  0.00000031
 Iteration  2 RMS(Cart)=  0.00000042 RMS(Int)=  0.00000000
 Variable       Old X    -DE/DX   Delta X   Delta X   Delta X     New X
                                 (Linear)    (Quad)   (Total)
    R1        2.51466   0.00007   0.00000   0.00010   0.00010   2.51476
    R2        2.80385  -0.00003   0.00000  -0.00006  -0.00006   2.80379
    R3        2.08463  -0.00000   0.00000  -0.00001  -0.00001   2.08462
    R4        2.07415   0.00000   0.00000   0.00000   0.00000   2.07415
    R5        2.07468  -0.00000   0.00000  -0.00002  -0.00002   2.07466
    R6        2.85189  -0.00001   0.00000  -0.00003  -0.00003   2.85187
    R7        2.12603  -0.00001   0.00000  -0.00001  -0.00001   2.12602
    R8        2.12229  -0.00001   0.00000  -0.00001  -0.00001   2.12227
    R9        2.11021  -0.00000   0.00000  -0.00001  -0.00001   2.11020
   R10        2.11001  -0.00001   0.00000  -0.00001  -0.00001   2.11000
   R11        2.11045  -0.00001   0.00000  -0.00001  -0.00001   2.11044
    A1        2.16449   0.00000   0.00000   0.00002   0.00002   2.16451
    A2        2.11356   0.00001   0.00000   0.00006   0.00006   2.11362
    A3        2.00510  -0.00001   0.00000  -0.00008  -0.00008   2.00502
    A4        2.13364  -0.00001   0.00000  -0.00013  -0.00013   2.13351
    A5        2.14413  -0.00001   0.00000  -0.00008  -0.00008   2.14405
    A6        2.00542   0.00002   0.00000   0.00021   0.00021   2.00563
    A7        1.95212   0.00000   0.00000  -0.00000  -0.00000   1.95212
    A8        1.89357  -0.00000   0.00000  -0.00004  -0.00004   1.89353
    A9        1.92926  -0.00000   0.00000   0.00000   0.00000   1.92926
   A10        1.90831   0.00000   0.00000   0.00004   0.00004   1.90835
   A11        1.91118   0.00000   0.00000   0.00001   0.00001   1.91120
   A12        1.86727  -0.00000   0.00000  -0.00001  -0.00001   1.86726
   A13        1.92235   0.00000   0.00000   0.00002   0.00002   1.92237
   A14        1.93145   0.00000   0.00000   0.00002   0.00002   1.93148
   A15        1.93275   0.00000   0.00000   0.00004   0.00004   1.93279
   A16        1.89304  -0.00000   0.00000  -0.00004  -0.00004   1.89300
   A17        1.89311  -0.00000   0.00000  -0.00002  -0.00002   1.89310
   A18        1.89005  -0.00000   0.00000  -0.00003  -0.00003   1.89003
    D1        3.12538   0.00001   0.00000   0.00032   0.00032   3.12570
    D2       -0.01586  -0.00001   0.00000  -0.00001  -0.00001  -0.01587
    D3       -0.00530   0.00001   0.00000   0.00013   0.00013  -0.00517
    D4        3.13665  -0.00001   0.00000  -0.00021  -0.00021   3.13644
    D5        2.36152  -0.00000   0.00000  -0.00133  -0.00133   2.36019
    D6       -1.81534  -0.00000   0.00000  -0.00131  -0.00131  -1.81664
    D7        0.22703  -0.00001   0.00000  -0.00134  -0.00134   0.22568
    D8       -0.79037   0.00000   0.00000  -0.00115  -0.00115  -0.79151
    D9        1.31596   0.00000   0.00000  -0.00112  -0.00112   1.31483
   D10       -2.92487   0.00000   0.00000  -0.00116  -0.00116  -2.92603
   D11        3.12856  -0.00000   0.00000  -0.00083  -0.00083   3.12772
   D12       -1.06155  -0.00000   0.00000  -0.00086  -0.00086  -1.06241
   D13        1.03456  -0.00000   0.00000  -0.00085  -0.00085   1.03371
   D14        1.03083   0.00000   0.00000  -0.00081  -0.00081   1.03002
   D15        3.12391   0.00000   0.00000  -0.00083  -0.00083   3.12307
   D16       -1.06317   0.00000   0.00000  -0.00083  -0.00083  -1.06399
   D17       -1.00983  -0.00000   0.00000  -0.00082  -0.00082  -1.01065
   D18        1.08325  -0.00000   0.00000  -0.00085  -0.00085   1.08240
   D19       -3.10382  -0.00000   0.00000  -0.00084  -0.00084  -3.10467
         Item               Value     Threshold  Converged?
 Maximum Force            0.000071     0.000450     YES
 RMS     Force            0.000013     0.000300     YES
 Maximum Displacement     0.002190     0.001800     NO 
 RMS     Displacement     0.000823     0.001200     YES
 Predicted change in Energy=-1.896255D-08
 GradGradGradGradGradGradGradGradGradGradGradGradGradGradGradGradGradGrad

 1\1\GINC-GTX1080DELTA\Freq\RAM1\ZDO\C4H8\MVEROT\16-Apr-2022\0\\#N Geom
 =AllCheck Guess=TCheck SCRF=Check GenChk RAM1/ZDO Freq\\Optimisation d
 e geometrie\\0,1\C,1.3852880318,2.1919608874,1.6187687824\C,0.41933996
 35,2.8376692704,0.9701055026\C,1.9908280537,0.9198362817,1.1534816273\
 C,3.4954143902,0.9385945252,1.2693462384\H,1.7894747245,2.577866355,2.
 5698875816\H,-0.0184212083,3.7702143281,1.3488289272\H,-0.000622602,2.
 482273202,0.0200266694\H,1.579523232,0.0793676889,1.7781172602\H,1.699
 3107806,0.710765372,0.0892516658\H,3.9197659697,-0.0352472343,0.925085
 0726\H,3.9287494338,1.7545572085,0.6423260721\H,3.8084492304,1.1063421
 152,2.3281746004\\Version=AM64L-G09RevD.01\State=1-A\HF=0.0001452\RMSD
 =2.368e-10\RMSF=2.165e-05\ZeroPoint=0.108876\Thermal=0.1142918\Dipole=
 0.0547194,-0.0649932,0.0138415\DipoleDeriv=-0.137356,-0.0774546,0.0400
 229,-0.1388212,0.0180776,0.0169268,0.0242245,0.0569706,-0.1192471,-0.2
 637608,-0.0194767,0.0548531,-0.0201275,-0.2212976,0.0676042,0.0617496,
 0.0721667,-0.1652042,0.0503352,-0.0230265,-0.0265207,-0.0213694,-0.036
 3994,-0.0125863,-0.0713019,0.0103622,-0.0621082,-0.0092927,0.001204,0.
 0104018,0.0327663,-0.0895004,0.0087406,0.0278024,-0.0192599,-0.0561218
 ,0.0961524,0.0334233,-0.0129287,0.0688359,0.0398198,-0.0051204,0.01132
 93,-0.0337499,0.1112726,0.1117987,0.0174312,-0.0365696,-0.0071977,0.12
 30023,-0.044925,-0.0734012,-0.0058508,0.0502018,0.1118332,0.0335061,-0
 .0127809,0.0630423,0.0454138,-0.0219055,0.0169984,-0.0615524,0.1049452
 ,-0.000637,0.019267,-0.0007879,0.021008,0.0154352,0.0069522,0.0178055,
 -0.0154419,0.0407438,0.0076964,0.013911,-0.0172532,0.0051474,0.0245655
 ,-0.0093431,-0.0034366,-0.0033862,0.0229108,-0.001656,0.0230874,0.0010
 97,0.0030792,0.018427,-0.0047143,-0.0040549,-0.0023461,0.0322427,0.016
 4463,-0.0150689,0.0091437,-0.0012245,0.0285384,0.0042089,-0.0077213,0.
 0104461,0.0271194,0.0184415,-0.0068029,-0.0086785,-0.0051366,0.0339169
 ,-0.0058355,0.0000089,-0.0083593,0.0132454\Polar=35.6570163,-11.882206
 6,35.0866132,9.2128997,-1.4697232,31.8632756\HyperPolar=-19.5381849,16
 .5715152,-17.7341946,19.384932,1.0594968,-0.8105693,0.9193756,4.016430
 1,-2.5044971,2.4028606\PG=C01 [X(C4H8)]\NImag=0\\0.61896963,-0.3172515
 7,0.59997269,0.28309448,0.02393265,0.56967488,-0.37991587,0.21163833,-
 0.21869021,0.57935375,0.21367845,-0.20915829,0.13517615,-0.30852221,0.
 55181220,-0.21698250,0.13287605,-0.21704039,0.29238080,0.01846358,0.55
 186960,-0.10371574,0.08062702,0.03250900,-0.02116784,0.03843976,0.0011
 9444,0.58413838,0.07910649,-0.24582751,-0.06822728,0.03172680,-0.03401
 237,0.00088723,-0.03962873,0.57410618,0.03392266,-0.07071286,-0.094751
 20,-0.00720515,0.01133896,0.00807655,0.00358911,0.02857420,0.53491263,
 -0.03852536,0.02324645,0.00567771,-0.00031275,0.00035699,0.00067568,-0
 .27017002,-0.00625933,-0.01685356,0.56374705,0.03651126,-0.00760709,-0
 .00193471,0.00111632,-0.00263355,-0.00116957,-0.00423300,-0.06539323,-
 0.00101730,-0.00611302,0.52516329,0.01071165,-0.00191927,0.00350627,0.
 00057523,-0.00114064,-0.00001649,-0.01645559,-0.00084333,-0.06999655,0
 .00037440,0.00338418,0.51825049,-0.07634636,-0.03634680,-0.08154516,-0
 .01255443,-0.00186837,-0.02882245,0.00712626,0.00652587,0.00572656,-0.
 00018848,0.00035117,0.00063933,0.08211469,-0.03808886,-0.07210294,-0.0
 8061851,0.00793840,0.00724950,0.01100305,-0.00159436,-0.01672013,-0.02
 790176,0.00039373,-0.00023604,-0.00048847,0.02632984,0.08383019,-0.083
 11219,-0.07865679,-0.23925836,-0.01905281,-0.00208252,-0.02105718,-0.0
 0223749,-0.01633727,-0.01215407,0.00034881,-0.00002601,-0.00003039,0.1
 0643112,0.09870746,0.27132451,-0.01451368,0.02833117,0.00316037,-0.083
 38502,0.09044779,0.03818940,0.00314126,0.00423914,-0.00474141,0.000280
 00,-0.00053658,-0.00012335,-0.00211477,-0.00122106,0.00123161,0.089274
 92,0.01764921,-0.02043893,-0.00205058,0.09267307,-0.24032762,-0.081052
 00,0.00443722,0.00286345,-0.00166723,0.00034660,-0.00084173,-0.0001643
 8,-0.00124168,-0.00090320,0.00143292,-0.11853927,0.26926838,-0.0079951
 9,0.01272326,0.00709661,0.04070095,-0.08415886,-0.07446038,-0.00460793
 ,-0.00215440,0.00133526,-0.00026453,0.00097384,0.00034226,0.00116442,0
 .00149645,-0.00076294,-0.03329587,0.09610949,0.07807662,-0.01297739,-0
 .00148241,-0.02960553,-0.08066207,-0.03504891,-0.08768493,-0.00223956,
 -0.00170026,0.00139205,-0.00011711,0.00021795,-0.00000681,0.00284959,0
 .00459316,-0.00399515,0.00775813,0.00495200,0.00424257,0.08551354,0.00
 880133,0.00783107,0.01259137,-0.03702048,-0.07060625,-0.07939041,-0.00
 138268,-0.00114099,0.00177532,-0.00007223,0.00019275,-0.00001497,0.004
 57250,0.00161603,-0.00168362,-0.00356049,-0.01027387,-0.02451557,0.028
 30257,0.07301743,-0.01845482,-0.00184159,-0.01997390,-0.08981593,-0.07
 669293,-0.24764807,0.00151154,0.00149419,-0.00061087,0.00010440,-0.000
 34693,-0.00010797,-0.00394664,-0.00168756,0.00207887,-0.00469459,-0.01
 286679,-0.01148111,0.11550152,0.09156802,0.27778844,0.00621194,0.00712
 977,-0.00368705,-0.00073583,0.00095545,0.00025506,-0.06771497,-0.06198
 336,0.04654960,-0.02643330,-0.02370297,0.01676688,-0.00013938,-0.00004
 711,0.00007167,-0.00053880,-0.00038676,0.00022961,0.00027206,0.0002014
 6,-0.00007868,0.08809894,-0.00091161,-0.03884384,0.01177064,-0.0000504
 3,-0.00124163,-0.00095772,-0.06478522,-0.16811680,0.09822123,-0.010761
 33,-0.00180270,0.00393950,0.00019730,-0.00015469,-0.00031337,0.0011300
 2,0.00069536,-0.00054722,-0.00049062,-0.00030118,0.00018455,0.07627560
 ,0.20718795,-0.00229921,-0.00097095,0.00722966,0.00066910,-0.00080738,
 -0.00005914,0.04746561,0.09713996,-0.11365207,0.00498062,0.00202525,0.
 00305659,0.00021225,-0.00003825,-0.00018179,0.00042875,0.00026483,-0.0
 0013754,-0.00012124,-0.00008553,0.00000402,-0.05829193,-0.11747167,0.1
 3043927,0.00521795,0.00428324,0.00989691,-0.00045886,0.00102620,0.0005
 3106,-0.05501773,-0.01122450,-0.05695044,-0.02127376,-0.00494548,-0.03
 034814,-0.00028082,0.00140720,0.00015255,0.00004088,-0.00004175,-0.000
 02850,-0.00035189,0.00024869,-0.00023063,0.00514119,-0.00054034,0.0073
 1640,0.07116617,-0.00006548,-0.01415233,-0.03090770,0.00047837,-0.0010
 9757,-0.00066985,-0.01076701,-0.04687217,-0.03846171,-0.00293736,0.003
 52208,-0.00296046,0.00132001,-0.00236975,-0.00088567,-0.00028542,-0.00
 003979,0.00007323,0.00064379,-0.00034091,0.00019176,0.00176323,0.00207
 323,0.02020501,0.00986587,0.05912080,0.00113567,-0.01534811,-0.0168832
 9,0.00038692,-0.00011747,0.00031439,-0.05712261,-0.04052670,-0.2536352
 7,-0.01319523,-0.00202303,-0.00696128,0.00035979,-0.00060937,0.0001273
 9,-0.00018472,-0.00001892,0.00001677,0.00028351,-0.00022467,-0.0000805
 3,-0.00165309,0.00545619,-0.02710217,0.07033820,0.05337284,0.30356811,
 -0.00409744,-0.00058491,-0.00060158,-0.00021239,0.00066760,0.00031002,
 -0.02579644,0.02809899,0.00906502,-0.07378054,0.07903233,0.02804947,0.
 00003472,-0.00009268,-0.00012222,0.00010876,0.00017715,-0.00024296,-0.
 00003605,-0.00004573,0.00010908,-0.00032376,0.00014984,0.00035949,-0.0
 0034952,0.00036655,-0.00023811,0.09348446,-0.00006125,0.00033431,-0.00
 006497,0.00000367,0.00009419,0.00006433,0.01035369,-0.00213080,-0.0015
 1401,0.08065059,-0.22972316,-0.06671753,-0.00005930,0.00003381,0.00004
 533,-0.00001768,0.00002361,-0.00001112,-0.00000052,-0.00001915,0.00000
 808,-0.00001332,0.00022139,-0.00003181,0.00027259,-0.00001544,0.000188
 25,-0.09888416,0.27022333,-0.00028041,-0.00014685,0.00029575,0.0000146
 0,0.00005066,0.00004708,0.00177040,-0.00022975,0.00384462,0.02868941,-
 0.06667214,-0.06506094,-0.00001851,0.00003322,-0.00001159,0.00002757,0
 .00002618,-0.00003647,-0.00001109,-0.00001336,0.00002873,0.00042526,-0
 .00009915,-0.00011211,-0.00037350,0.00024540,0.00002297,-0.03436572,0.
 08071281,0.07061814,0.00002970,0.00005254,0.00023607,-0.00001176,-0.00
 005311,-0.00006314,-0.02672013,-0.02385734,0.01700339,-0.07525126,-0.0
 6781193,0.05236889,-0.00005777,-0.00003513,0.00003372,-0.00003824,-0.0
 0003083,0.00005067,-0.00001623,-0.00001591,-0.00000606,-0.00380590,0.0
 0002047,-0.00050462,-0.00004283,-0.00028638,-0.00004003,0.00578918,0.0
 0514331,-0.00286997,0.09487816,0.00014765,0.00008218,-0.00003520,-0.00
 001085,-0.00003556,-0.00002446,-0.00936664,-0.00040822,0.00284020,-0.0
 6890605,-0.17378116,0.10179686,-0.00001147,-0.00001556,-0.00000810,-0.
 00000449,-0.00002003,0.00001459,0.00001214,0.00002313,-0.00001066,0.00
 018497,0.00039263,-0.00002862,-0.00031311,-0.00013059,-0.00012444,-0.0
 0617208,-0.03092196,0.01368956,0.08478599,0.20226549,0.00028235,-0.000
 25333,-0.00004045,-0.00000591,0.00003152,-0.00004985,0.00509958,0.0018
 8397,0.00291488,0.05330542,0.10188550,-0.11979312,0.00000623,0.0000136
 7,-0.00001980,0.00001060,-0.00001681,-0.00001833,0.00000008,0.00001710
 ,0.00002424,-0.00050467,-0.00006010,0.00036193,-0.00022450,-0.00017855
 ,0.00015286,-0.00122371,-0.00166575,0.00628765,-0.06445568,-0.12320787
 ,0.13690128,-0.00033740,0.00035719,-0.00044497,0.00006320,-0.00007967,
 0.00001659,-0.02186347,-0.00504386,-0.03149774,-0.05797449,-0.00988604
 ,-0.06255202,-0.00044330,0.00041686,0.00025037,-0.00001342,0.00000508,
 0.00004672,0.00000692,-0.00002900,0.00000078,-0.00003212,-0.00023372,-
 0.00021522,-0.00379081,-0.00009615,-0.00007028,0.00517902,0.00261241,0
 .00699196,0.00524706,-0.00034602,0.00771024,0.07395882,0.00048435,-0.0
 0008934,0.00036820,0.00002896,-0.00004303,-0.00003021,-0.00210016,0.00
 365265,-0.00147499,-0.00994507,-0.04685935,-0.03487156,0.00023098,-0.0
 0022717,-0.00019239,0.00001692,-0.00000561,-0.00000377,0.00000106,0.00
 000186,-0.00000008,-0.00037688,-0.00010980,-0.00020087,-0.00003860,0.0
 0030242,-0.00002454,-0.00271289,-0.00812012,-0.02759662,0.00208832,0.0
 0254966,0.02155065,0.01232300,0.04894778,-0.00002251,0.00031773,0.0001
 4454,0.00004242,-0.00006100,0.00002386,-0.01271607,-0.00166074,-0.0062
 8399,-0.06384314,-0.03507920,-0.26318871,-0.00020696,0.00009013,-0.000
 05474,-0.00000831,0.00000327,0.00002924,0.00000501,-0.00002372,-0.0000
 2193,-0.00008269,-0.00012283,0.00015338,-0.00007937,-0.00002433,0.0004
 6004,-0.00109876,-0.01101365,-0.01592378,-0.00175310,0.00509816,-0.026
 72133,0.07976349,0.04247620,0.31138341\\-0.00004669,0.00005558,-0.0000
 3386,0.00008070,-0.00002478,0.00004067,-0.00001049,-0.00001917,-0.0000
 0561,0.00001440,-0.00000290,-0.00000042,-0.00000916,0.00000648,0.00000
 424,-0.00001470,-0.00000920,-0.00000670,-0.00001337,0.00000424,0.00000
 414,0.00000278,-0.00000711,0.00000316,0.00000164,-0.00000369,-0.000007
 25,-0.00000168,-0.00000461,-0.00000177,-0.00000163,0.00000622,-0.00000
 272,-0.00000181,-0.00000106,0.00000612\\\@


 Some scientists claim that hydrogen, because it is so
 plentiful, is the basic building block of the universe. 
 I dispute that. I say that stupidity is far more
 abundant than hydrogen, and THAT is the basic building 
 block of the universe.
                   --Frank Zappa
 Job cpu time:       0 days  0 hours  0 minutes  1.0 seconds.
 File lengths (MBytes):  RWF=     82 Int=      0 D2E=      0 Chk=      2 Scr=      2
 Normal termination of Gaussian 09 at Sat Apr 16 11:42:45 2022.
