 Entering Gaussian System, Link 0=g09
 Input=/scratch/mverot/dedoubl-s-pm6-opt/dedoubl-s-pm6-opt.com
 Output=/scratch/mverot/dedoubl-s-pm6-opt/dedoubl-s-pm6-opt.log
 Initial command:
 /opt/g09/l1.exe "/scratch/mverot/dedoubl-s-pm6-opt/Gau-1936936.inp" -scrdir="/scratch/mverot/dedoubl-s-pm6-opt/"
 Entering Link 1 = /opt/g09/l1.exe PID=   1936938.
  
 Copyright (c) 1988,1990,1992,1993,1995,1998,2003,2009,2013,
            Gaussian, Inc.  All Rights Reserved.
  
 This is part of the Gaussian(R) 09 program.  It is based on
 the Gaussian(R) 03 system (copyright 2003, Gaussian, Inc.),
 the Gaussian(R) 98 system (copyright 1998, Gaussian, Inc.),
 the Gaussian(R) 94 system (copyright 1995, Gaussian, Inc.),
 the Gaussian 92(TM) system (copyright 1992, Gaussian, Inc.),
 the Gaussian 90(TM) system (copyright 1990, Gaussian, Inc.),
 the Gaussian 88(TM) system (copyright 1988, Gaussian, Inc.),
 the Gaussian 86(TM) system (copyright 1986, Carnegie Mellon
 University), and the Gaussian 82(TM) system (copyright 1983,
 Carnegie Mellon University). Gaussian is a federally registered
 trademark of Gaussian, Inc.
  
 This software contains proprietary and confidential information,
 including trade secrets, belonging to Gaussian, Inc.
  
 This software is provided under written license and may be
 used, copied, transmitted, or stored only in accord with that
 written license.
  
 The following legend is applicable only to US Government
 contracts under FAR:
  
                    RESTRICTED RIGHTS LEGEND
  
 Use, reproduction and disclosure by the US Government is
 subject to restrictions as set forth in subparagraphs (a)
 and (c) of the Commercial Computer Software - Restricted
 Rights clause in FAR 52.227-19.
  
 Gaussian, Inc.
 340 Quinnipiac St., Bldg. 40, Wallingford CT 06492
  
  
 ---------------------------------------------------------------
 Warning -- This program may not be used in any manner that
 competes with the business of Gaussian, Inc. or will provide
 assistance to any competitor of Gaussian, Inc.  The licensee
 of this program is prohibited from giving any competitor of
 Gaussian, Inc. access to this program.  By using this program,
 the user acknowledges that Gaussian, Inc. is engaged in the
 business of creating and licensing software in the field of
 computational chemistry and represents and warrants to the
 licensee that it is not a competitor of Gaussian, Inc. and that
 it will not use this program in any manner prohibited above.
 ---------------------------------------------------------------
  

 Cite this work as:
 Gaussian 09, Revision D.01,
 M. J. Frisch, G. W. Trucks, H. B. Schlegel, G. E. Scuseria, 
 M. A. Robb, J. R. Cheeseman, G. Scalmani, V. Barone, B. Mennucci, 
 G. A. Petersson, H. Nakatsuji, M. Caricato, X. Li, H. P. Hratchian, 
 A. F. Izmaylov, J. Bloino, G. Zheng, J. L. Sonnenberg, M. Hada, 
 M. Ehara, K. Toyota, R. Fukuda, J. Hasegawa, M. Ishida, T. Nakajima, 
 Y. Honda, O. Kitao, H. Nakai, T. Vreven, J. A. Montgomery, Jr., 
 J. E. Peralta, F. Ogliaro, M. Bearpark, J. J. Heyd, E. Brothers, 
 K. N. Kudin, V. N. Staroverov, T. Keith, R. Kobayashi, J. Normand, 
 K. Raghavachari, A. Rendell, J. C. Burant, S. S. Iyengar, J. Tomasi, 
 M. Cossi, N. Rega, J. M. Millam, M. Klene, J. E. Knox, J. B. Cross, 
 V. Bakken, C. Adamo, J. Jaramillo, R. Gomperts, R. E. Stratmann, 
 O. Yazyev, A. J. Austin, R. Cammi, C. Pomelli, J. W. Ochterski, 
 R. L. Martin, K. Morokuma, V. G. Zakrzewski, G. A. Voth, 
 P. Salvador, J. J. Dannenberg, S. Dapprich, A. D. Daniels, 
 O. Farkas, J. B. Foresman, J. V. Ortiz, J. Cioslowski, 
 and D. J. Fox, Gaussian, Inc., Wallingford CT, 2013.
 
 ******************************************
 Gaussian 09:  AM64L-G09RevD.01 24-Apr-2013
                18-Apr-2022 
 ******************************************
 %chk=dedoubl-s-opt
 ----------
 #n PM6 Opt
 ----------
 1/14=-1,18=20,19=15,26=1,38=1/1,3;
 2/9=110,12=2,17=6,18=5,40=1/2;
 3/5=2,16=1,25=1,41=3900000,71=1/1,2,3;
 4/35=1/1;
 5/5=2,35=1,38=5/2;
 6/7=2,8=2,9=2,10=2,28=1/1;
 7//1,2,3,16;
 1/14=-1,18=20,19=15,26=1/3(2);
 2/9=110/2;
 99//99;
 2/9=110/2;
 3/5=2,16=1,25=1,41=3900000,71=1,135=20/1,2,3;
 4/5=5,16=3,35=1/1;
 5/5=2,35=1,38=5/2;
 7//1,2,3,16;
 1/14=-1,18=20,19=15,26=1/3(-5);
 2/9=110/2;
 6/7=2,8=2,9=2,10=2,19=2,28=1/1;
 99/9=1/99;
 -------------------------
 Optimisation de geometrie
 -------------------------
 Symbolic Z-matrix:
 Charge =  0 Multiplicity = 1
 O                    -1.88176  -5.10266  -3.57628 
 O                    -0.43545  -8.51423  -3.89381 
 C                    -0.64069  -5.00452  -4.14932 
 C                    -0.44182  -4.11439  -5.1999 
 C                     0.81864  -3.99494  -5.78164 
 C                     1.8969   -4.76665  -5.32919 
 C                     3.16332  -4.62952  -5.9254 
 C                     4.25157  -5.38324  -5.48767 
 C                     4.0877   -6.28523  -4.44656 
 C                     2.83647  -6.42892  -3.8437 
 C                     1.70878  -5.68001  -4.2612 
 C                     0.41641  -5.79321  -3.65416 
 C                     0.21653  -6.67453  -2.4743 
 C                    -0.13834  -8.02576  -2.64587 
 C                    -0.20596  -8.8976   -1.56362 
 C                     0.04961  -8.43082  -0.27922 
 C                     0.3704   -7.08905  -0.05439 
 C                     0.60529  -6.64109   1.25562 
 C                     0.91538  -5.3079    1.51348 
 C                     0.99104  -4.40535   0.46197 
 C                     0.76526  -4.83988  -0.847 
 C                     0.45181  -6.18807  -1.14721 
 H                    -1.25785  -3.49905  -5.56941 
 H                     0.94758  -3.28439  -6.59455 
 H                     3.30986  -3.92533  -6.74109 
 H                     5.22256  -5.26518  -5.95898 
 H                     4.92518  -6.88113  -4.09554 
 H                     2.74429  -7.14667  -3.03035 
 H                    -0.50387  -9.9375   -1.68488 
 H                     0.53639  -7.33665   2.08926 
 H                     1.08379  -4.97674   2.5335 
 H                     1.21276  -3.35924   0.65139 
 H                     0.81415  -4.10022  -1.644 
 H                    -2.48735  -4.40473  -3.93628 
 H                    -0.83239  -9.39341  -3.75684 
 Cl                   -4.21323  -3.04186  -4.64647 
 O                    -3.89416  -6.98254  -3.05818 
 N                    -6.46767  -7.52664  -4.56807 
 N                    -3.38221  -11.2073  -0.27252 
 C                    -7.82998  -8.13351  -4.87862 
 C                    -8.55445  -8.47186  -3.57696 
 C                    -7.87009  -7.79256  -2.38806 
 C                    -6.48972  -8.42771  -2.2039 
 C                    -5.72976  -8.51478  -3.54722 
 C                    -7.68469  -6.28972  -2.70553 
 C                    -6.68341  -6.14267  -3.88212 
 C                    -7.39926  -5.50481  -1.44136 
 C                    -6.39842  -4.6485   -1.20878 
 C                    -5.62172  -7.33539  -5.84331 
 C                    -6.31454  -6.69894  -7.03282 
 C                    -7.049    -7.46116  -7.95601 
 C                    -7.7114   -6.84494  -9.02267 
 C                    -7.63543  -5.46386  -9.1914 
 C                    -6.89043  -4.69959  -8.3002 
 C                    -6.23488  -5.31473  -7.23373 
 C                    -4.17991  -8.32712  -3.41757 
 C                    -3.61647  -9.30149  -2.42216 
 C                    -3.52017  -10.75283  -2.70469 
 C                    -3.55201  -11.29639  -3.99978 
 C                    -3.48929  -12.67774  -4.19271 
 C                    -3.38251  -13.52425  -3.09674 
 C                    -3.34084  -12.98977  -1.80939 
 C                    -3.41161  -11.60606  -1.57349 
 C                    -3.40691  -9.89054   0.00987 
 C                    -3.46757  -8.90706  -1.03916 
 H                    -8.40837  -7.39995  -5.45021 
 H                    -7.67767  -9.0334   -5.48475 
 H                    -9.60297  -8.16004  -3.64938 
 H                    -8.56944  -9.55958  -3.43099 
 H                    -8.4721   -7.93884  -1.48342 
 H                    -6.59723  -9.43897  -1.7912 
 H                    -5.92911  -7.85161  -1.46128 
 H                    -8.65405  -5.90762  -3.05831 
 H                    -5.70795  -5.75879  -3.60315 
 H                    -7.11667  -5.47195  -4.63033 
 H                    -8.10762  -5.66126  -0.62719 
 H                    -5.62858  -4.40206  -1.93636 
 H                    -6.30514  -4.15162  -0.24679 
 H                    -7.1131   -8.54194  -7.85727 
 H                    -8.28363  -7.44137  -9.72851 
 H                    -8.14497  -4.98103  -10.02085 
 H                    -6.80751  -3.62178  -8.42566 
 H                    -5.6515   -4.69123  -6.55853 
 H                    -3.70266  -8.48988  -4.38872 
 H                    -3.6143   -10.66248  -4.87539 
 H                    -3.51631  -13.09432  -5.19385 
 H                    -3.32613  -14.59971  -3.22761 
 H                    -3.25246  -13.66098  -0.95594 
 H                    -3.39033  -9.50508   1.02493 
 H                    -3.44656  -7.85922  -0.76169 
 H                    -2.92052  -6.85647  -3.03361 
 H                    -5.906    -9.50886  -3.98059 
 H                    -4.73517  -6.75143  -5.57245 
 H                    -5.28083  -8.33589  -6.13876 
 H                    -0.05253  -9.13134   0.54757 
 
 Add virtual bond connecting atoms H91        and O1         Dist= 3.99D+00.
 Add virtual bond connecting atoms Cl36       and H34        Dist= 4.37D+00.

 GradGradGradGradGradGradGradGradGradGradGradGradGradGradGradGradGradGrad
 Berny optimization.
 Initialization pass.
                           ----------------------------
                           !    Initial Parameters    !
                           ! (Angstroms and Degrees)  !
 --------------------------                            --------------------------
 ! Name  Definition              Value          Derivative Info.                !
 --------------------------------------------------------------------------------
 ! R1    R(1,3)                  1.3705         estimate D2E/DX2                !
 ! R2    R(1,34)                 0.9917         estimate D2E/DX2                !
 ! R3    R(1,91)                 2.1094         estimate D2E/DX2                !
 ! R4    R(2,14)                 1.3727         estimate D2E/DX2                !
 ! R5    R(2,35)                 0.9743         estimate D2E/DX2                !
 ! R6    R(3,4)                  1.3913         estimate D2E/DX2                !
 ! R7    R(3,12)                 1.4088         estimate D2E/DX2                !
 ! R8    R(4,5)                  1.3934         estimate D2E/DX2                !
 ! R9    R(4,23)                 1.0868         estimate D2E/DX2                !
 ! R10   R(5,6)                  1.401          estimate D2E/DX2                !
 ! R11   R(5,24)                 1.0873         estimate D2E/DX2                !
 ! R12   R(6,7)                  1.4064         estimate D2E/DX2                !
 ! R13   R(6,11)                 1.4178         estimate D2E/DX2                !
 ! R14   R(7,8)                  1.3943         estimate D2E/DX2                !
 ! R15   R(7,25)                 1.0875         estimate D2E/DX2                !
 ! R16   R(8,9)                  1.3872         estimate D2E/DX2                !
 ! R17   R(8,26)                 1.0858         estimate D2E/DX2                !
 ! R18   R(9,10)                 1.3963         estimate D2E/DX2                !
 ! R19   R(9,27)                 1.0861         estimate D2E/DX2                !
 ! R20   R(10,11)                1.4166         estimate D2E/DX2                !
 ! R21   R(10,28)                1.0887         estimate D2E/DX2                !
 ! R22   R(11,12)                1.4323         estimate D2E/DX2                !
 ! R23   R(12,13)                1.4862         estimate D2E/DX2                !
 ! R24   R(13,14)                1.4075         estimate D2E/DX2                !
 ! R25   R(13,22)                1.4329         estimate D2E/DX2                !
 ! R26   R(14,15)                1.3914         estimate D2E/DX2                !
 ! R27   R(15,16)                1.3903         estimate D2E/DX2                !
 ! R28   R(15,29)                1.0885         estimate D2E/DX2                !
 ! R29   R(16,17)                1.3978         estimate D2E/DX2                !
 ! R30   R(16,95)                1.0885         estimate D2E/DX2                !
 ! R31   R(17,18)                1.4043         estimate D2E/DX2                !
 ! R32   R(17,22)                1.4187         estimate D2E/DX2                !
 ! R33   R(18,19)                1.3929         estimate D2E/DX2                !
 ! R34   R(18,30)                1.0879         estimate D2E/DX2                !
 ! R35   R(19,20)                1.3878         estimate D2E/DX2                !
 ! R36   R(19,31)                1.0856         estimate D2E/DX2                !
 ! R37   R(20,21)                1.3976         estimate D2E/DX2                !
 ! R38   R(20,32)                1.086          estimate D2E/DX2                !
 ! R39   R(21,22)                1.4163         estimate D2E/DX2                !
 ! R40   R(21,33)                1.0884         estimate D2E/DX2                !
 ! R41   R(34,36)                2.3109         estimate D2E/DX2                !
 ! R42   R(37,56)                1.4208         estimate D2E/DX2                !
 ! R43   R(37,91)                0.9821         estimate D2E/DX2                !
 ! R44   R(38,40)                1.5234         estimate D2E/DX2                !
 ! R45   R(38,44)                1.601          estimate D2E/DX2                !
 ! R46   R(38,46)                1.5596         estimate D2E/DX2                !
 ! R47   R(38,49)                1.5422         estimate D2E/DX2                !
 ! R48   R(39,63)                1.361          estimate D2E/DX2                !
 ! R49   R(39,64)                1.3469         estimate D2E/DX2                !
 ! R50   R(40,41)                1.5276         estimate D2E/DX2                !
 ! R51   R(40,66)                1.0952         estimate D2E/DX2                !
 ! R52   R(40,67)                1.0956         estimate D2E/DX2                !
 ! R53   R(41,42)                1.5308         estimate D2E/DX2                !
 ! R54   R(41,68)                1.0963         estimate D2E/DX2                !
 ! R55   R(41,69)                1.0976         estimate D2E/DX2                !
 ! R56   R(42,43)                1.5306         estimate D2E/DX2                !
 ! R57   R(42,45)                1.5472         estimate D2E/DX2                !
 ! R58   R(42,70)                1.0964         estimate D2E/DX2                !
 ! R59   R(43,44)                1.5458         estimate D2E/DX2                !
 ! R60   R(43,71)                1.0975         estimate D2E/DX2                !
 ! R61   R(43,72)                1.0944         estimate D2E/DX2                !
 ! R62   R(44,56)                1.5665         estimate D2E/DX2                !
 ! R63   R(44,92)                1.0987         estimate D2E/DX2                !
 ! R64   R(45,46)                1.552          estimate D2E/DX2                !
 ! R65   R(45,47)                1.5152         estimate D2E/DX2                !
 ! R66   R(45,73)                1.1001         estimate D2E/DX2                !
 ! R67   R(46,74)                1.0848         estimate D2E/DX2                !
 ! R68   R(46,75)                1.0943         estimate D2E/DX2                !
 ! R69   R(47,48)                1.3376         estimate D2E/DX2                !
 ! R70   R(47,76)                1.0905         estimate D2E/DX2                !
 ! R71   R(48,77)                1.0875         estimate D2E/DX2                !
 ! R72   R(48,78)                1.0867         estimate D2E/DX2                !
 ! R73   R(49,50)                1.5166         estimate D2E/DX2                !
 ! R74   R(49,93)                1.0956         estimate D2E/DX2                !
 ! R75   R(49,94)                1.0975         estimate D2E/DX2                !
 ! R76   R(50,51)                1.4045         estimate D2E/DX2                !
 ! R77   R(50,55)                1.401          estimate D2E/DX2                !
 ! R78   R(51,52)                1.3987         estimate D2E/DX2                !
 ! R79   R(51,79)                1.0872         estimate D2E/DX2                !
 ! R80   R(52,53)                1.3934         estimate D2E/DX2                !
 ! R81   R(52,80)                1.0869         estimate D2E/DX2                !
 ! R82   R(53,54)                1.3905         estimate D2E/DX2                !
 ! R83   R(53,81)                1.0866         estimate D2E/DX2                !
 ! R84   R(54,55)                1.3948         estimate D2E/DX2                !
 ! R85   R(54,82)                1.0883         estimate D2E/DX2                !
 ! R86   R(55,83)                1.0886         estimate D2E/DX2                !
 ! R87   R(56,57)                1.5026         estimate D2E/DX2                !
 ! R88   R(56,84)                1.0943         estimate D2E/DX2                !
 ! R89   R(57,58)                1.4817         estimate D2E/DX2                !
 ! R90   R(57,65)                1.4458         estimate D2E/DX2                !
 ! R91   R(58,59)                1.4049         estimate D2E/DX2                !
 ! R92   R(58,63)                1.4211         estimate D2E/DX2                !
 ! R93   R(59,60)                1.3962         estimate D2E/DX2                !
 ! R94   R(59,85)                1.0828         estimate D2E/DX2                !
 ! R95   R(60,61)                1.3889         estimate D2E/DX2                !
 ! R96   R(60,86)                1.0847         estimate D2E/DX2                !
 ! R97   R(61,62)                1.3945         estimate D2E/DX2                !
 ! R98   R(61,87)                1.0849         estimate D2E/DX2                !
 ! R99   R(62,63)                1.4055         estimate D2E/DX2                !
 ! R100  R(62,88)                1.0894         estimate D2E/DX2                !
 ! R101  R(64,65)                1.4392         estimate D2E/DX2                !
 ! R102  R(64,89)                1.0859         estimate D2E/DX2                !
 ! R103  R(65,90)                1.0842         estimate D2E/DX2                !
 ! A1    A(3,1,34)             110.537          estimate D2E/DX2                !
 ! A2    A(3,1,91)             127.811          estimate D2E/DX2                !
 ! A3    A(34,1,91)            112.1988         estimate D2E/DX2                !
 ! A4    A(14,2,35)            106.3487         estimate D2E/DX2                !
 ! A5    A(1,3,4)              119.4062         estimate D2E/DX2                !
 ! A6    A(1,3,12)             119.5016         estimate D2E/DX2                !
 ! A7    A(4,3,12)             121.087          estimate D2E/DX2                !
 ! A8    A(3,4,5)              119.9624         estimate D2E/DX2                !
 ! A9    A(3,4,23)             120.7755         estimate D2E/DX2                !
 ! A10   A(5,4,23)             119.259          estimate D2E/DX2                !
 ! A11   A(4,5,6)              120.9414         estimate D2E/DX2                !
 ! A12   A(4,5,24)             118.387          estimate D2E/DX2                !
 ! A13   A(6,5,24)             120.6712         estimate D2E/DX2                !
 ! A14   A(5,6,7)              120.1583         estimate D2E/DX2                !
 ! A15   A(5,6,11)             119.7343         estimate D2E/DX2                !
 ! A16   A(7,6,11)             120.1059         estimate D2E/DX2                !
 ! A17   A(6,7,8)              121.1321         estimate D2E/DX2                !
 ! A18   A(6,7,25)             120.1601         estimate D2E/DX2                !
 ! A19   A(8,7,25)             118.7077         estimate D2E/DX2                !
 ! A20   A(7,8,9)              119.6643         estimate D2E/DX2                !
 ! A21   A(7,8,26)             120.1952         estimate D2E/DX2                !
 ! A22   A(9,8,26)             120.1405         estimate D2E/DX2                !
 ! A23   A(8,9,10)             119.7887         estimate D2E/DX2                !
 ! A24   A(8,9,27)             120.5443         estimate D2E/DX2                !
 ! A25   A(10,9,27)            119.667          estimate D2E/DX2                !
 ! A26   A(9,10,11)            122.1191         estimate D2E/DX2                !
 ! A27   A(9,10,28)            117.7935         estimate D2E/DX2                !
 ! A28   A(11,10,28)           120.0871         estimate D2E/DX2                !
 ! A29   A(6,11,10)            117.1895         estimate D2E/DX2                !
 ! A30   A(6,11,12)            119.3324         estimate D2E/DX2                !
 ! A31   A(10,11,12)           123.4749         estimate D2E/DX2                !
 ! A32   A(3,12,11)            118.9364         estimate D2E/DX2                !
 ! A33   A(3,12,13)            120.6708         estimate D2E/DX2                !
 ! A34   A(11,12,13)           120.3101         estimate D2E/DX2                !
 ! A35   A(12,13,14)           120.4257         estimate D2E/DX2                !
 ! A36   A(12,13,22)           120.7878         estimate D2E/DX2                !
 ! A37   A(14,13,22)           118.6987         estimate D2E/DX2                !
 ! A38   A(2,14,13)            120.4643         estimate D2E/DX2                !
 ! A39   A(2,14,15)            118.2713         estimate D2E/DX2                !
 ! A40   A(13,14,15)           121.2632         estimate D2E/DX2                !
 ! A41   A(14,15,16)           119.952          estimate D2E/DX2                !
 ! A42   A(14,15,29)           121.6865         estimate D2E/DX2                !
 ! A43   A(16,15,29)           118.2929         estimate D2E/DX2                !
 ! A44   A(15,16,17)           120.8689         estimate D2E/DX2                !
 ! A45   A(15,16,95)           117.9315         estimate D2E/DX2                !
 ! A46   A(17,16,95)           121.1416         estimate D2E/DX2                !
 ! A47   A(16,17,18)           119.647          estimate D2E/DX2                !
 ! A48   A(16,17,22)           119.9273         estimate D2E/DX2                !
 ! A49   A(18,17,22)           120.4253         estimate D2E/DX2                !
 ! A50   A(17,18,19)           121.016          estimate D2E/DX2                !
 ! A51   A(17,18,30)           120.0201         estimate D2E/DX2                !
 ! A52   A(19,18,30)           118.961          estimate D2E/DX2                !
 ! A53   A(18,19,20)           119.6272         estimate D2E/DX2                !
 ! A54   A(18,19,31)           120.0316         estimate D2E/DX2                !
 ! A55   A(20,19,31)           120.3365         estimate D2E/DX2                !
 ! A56   A(19,20,21)           119.9098         estimate D2E/DX2                !
 ! A57   A(19,20,32)           120.3602         estimate D2E/DX2                !
 ! A58   A(21,20,32)           119.7256         estimate D2E/DX2                !
 ! A59   A(20,21,22)           122.0216         estimate D2E/DX2                !
 ! A60   A(20,21,33)           117.8577         estimate D2E/DX2                !
 ! A61   A(22,21,33)           120.1059         estimate D2E/DX2                !
 ! A62   A(13,22,17)           119.2356         estimate D2E/DX2                !
 ! A63   A(13,22,21)           123.7669         estimate D2E/DX2                !
 ! A64   A(17,22,21)           116.9976         estimate D2E/DX2                !
 ! A65   A(56,37,91)           109.099          estimate D2E/DX2                !
 ! A66   A(40,38,44)           107.2352         estimate D2E/DX2                !
 ! A67   A(40,38,46)           108.6305         estimate D2E/DX2                !
 ! A68   A(40,38,49)           111.8002         estimate D2E/DX2                !
 ! A69   A(44,38,46)           109.3301         estimate D2E/DX2                !
 ! A70   A(44,38,49)           110.5471         estimate D2E/DX2                !
 ! A71   A(46,38,49)           109.2391         estimate D2E/DX2                !
 ! A72   A(63,39,64)           119.1062         estimate D2E/DX2                !
 ! A73   A(38,40,41)           109.794          estimate D2E/DX2                !
 ! A74   A(38,40,66)           108.1713         estimate D2E/DX2                !
 ! A75   A(38,40,67)           108.401          estimate D2E/DX2                !
 ! A76   A(41,40,66)           110.0362         estimate D2E/DX2                !
 ! A77   A(41,40,67)           110.8181         estimate D2E/DX2                !
 ! A78   A(66,40,67)           109.5625         estimate D2E/DX2                !
 ! A79   A(40,41,42)           110.5774         estimate D2E/DX2                !
 ! A80   A(40,41,68)           109.5294         estimate D2E/DX2                !
 ! A81   A(40,41,69)           109.834          estimate D2E/DX2                !
 ! A82   A(42,41,68)           110.6507         estimate D2E/DX2                !
 ! A83   A(42,41,69)           110.0349         estimate D2E/DX2                !
 ! A84   A(68,41,69)           106.117          estimate D2E/DX2                !
 ! A85   A(41,42,43)           108.2091         estimate D2E/DX2                !
 ! A86   A(41,42,45)           108.9811         estimate D2E/DX2                !
 ! A87   A(41,42,70)           109.6414         estimate D2E/DX2                !
 ! A88   A(43,42,45)           108.6447         estimate D2E/DX2                !
 ! A89   A(43,42,70)           109.9093         estimate D2E/DX2                !
 ! A90   A(45,42,70)           111.3884         estimate D2E/DX2                !
 ! A91   A(42,43,44)           111.2341         estimate D2E/DX2                !
 ! A92   A(42,43,71)           109.8316         estimate D2E/DX2                !
 ! A93   A(42,43,72)           108.9767         estimate D2E/DX2                !
 ! A94   A(44,43,71)           108.8461         estimate D2E/DX2                !
 ! A95   A(44,43,72)           111.5609         estimate D2E/DX2                !
 ! A96   A(71,43,72)           106.2639         estimate D2E/DX2                !
 ! A97   A(38,44,43)           107.0227         estimate D2E/DX2                !
 ! A98   A(38,44,56)           115.7752         estimate D2E/DX2                !
 ! A99   A(38,44,92)           103.474          estimate D2E/DX2                !
 ! A100  A(43,44,56)           114.0611         estimate D2E/DX2                !
 ! A101  A(43,44,92)           108.3533         estimate D2E/DX2                !
 ! A102  A(56,44,92)           107.4419         estimate D2E/DX2                !
 ! A103  A(42,45,46)           108.9606         estimate D2E/DX2                !
 ! A104  A(42,45,47)           110.7672         estimate D2E/DX2                !
 ! A105  A(42,45,73)           107.314          estimate D2E/DX2                !
 ! A106  A(46,45,47)           117.5115         estimate D2E/DX2                !
 ! A107  A(46,45,73)           107.0067         estimate D2E/DX2                !
 ! A108  A(47,45,73)           104.6927         estimate D2E/DX2                !
 ! A109  A(38,46,45)           109.792          estimate D2E/DX2                !
 ! A110  A(38,46,74)           107.6225         estimate D2E/DX2                !
 ! A111  A(38,46,75)           107.3346         estimate D2E/DX2                !
 ! A112  A(45,46,74)           114.7542         estimate D2E/DX2                !
 ! A113  A(45,46,75)           108.7241         estimate D2E/DX2                !
 ! A114  A(74,46,75)           108.3594         estimate D2E/DX2                !
 ! A115  A(45,47,48)           128.1481         estimate D2E/DX2                !
 ! A116  A(45,47,76)           115.2299         estimate D2E/DX2                !
 ! A117  A(48,47,76)           116.6212         estimate D2E/DX2                !
 ! A118  A(47,48,77)           123.9461         estimate D2E/DX2                !
 ! A119  A(47,48,78)           120.7215         estimate D2E/DX2                !
 ! A120  A(77,48,78)           115.3308         estimate D2E/DX2                !
 ! A121  A(38,49,50)           116.7447         estimate D2E/DX2                !
 ! A122  A(38,49,93)           107.7903         estimate D2E/DX2                !
 ! A123  A(38,49,94)           106.2559         estimate D2E/DX2                !
 ! A124  A(50,49,93)           109.8702         estimate D2E/DX2                !
 ! A125  A(50,49,94)           108.2595         estimate D2E/DX2                !
 ! A126  A(93,49,94)           107.5243         estimate D2E/DX2                !
 ! A127  A(49,50,51)           121.7818         estimate D2E/DX2                !
 ! A128  A(49,50,55)           120.0756         estimate D2E/DX2                !
 ! A129  A(51,50,55)           118.1424         estimate D2E/DX2                !
 ! A130  A(50,51,52)           120.6525         estimate D2E/DX2                !
 ! A131  A(50,51,79)           120.7059         estimate D2E/DX2                !
 ! A132  A(52,51,79)           118.6415         estimate D2E/DX2                !
 ! A133  A(51,52,53)           120.212          estimate D2E/DX2                !
 ! A134  A(51,52,80)           120.1868         estimate D2E/DX2                !
 ! A135  A(53,52,80)           119.6001         estimate D2E/DX2                !
 ! A136  A(52,53,54)           119.7612         estimate D2E/DX2                !
 ! A137  A(52,53,81)           120.4823         estimate D2E/DX2                !
 ! A138  A(54,53,81)           119.753          estimate D2E/DX2                !
 ! A139  A(53,54,55)           119.9651         estimate D2E/DX2                !
 ! A140  A(53,54,82)           120.7514         estimate D2E/DX2                !
 ! A141  A(55,54,82)           119.2831         estimate D2E/DX2                !
 ! A142  A(50,55,54)           121.2428         estimate D2E/DX2                !
 ! A143  A(50,55,83)           120.4932         estimate D2E/DX2                !
 ! A144  A(54,55,83)           118.2634         estimate D2E/DX2                !
 ! A145  A(37,56,44)           109.4676         estimate D2E/DX2                !
 ! A146  A(37,56,57)           111.7582         estimate D2E/DX2                !
 ! A147  A(37,56,84)           106.1131         estimate D2E/DX2                !
 ! A148  A(44,56,57)           110.3733         estimate D2E/DX2                !
 ! A149  A(44,56,84)           109.8906         estimate D2E/DX2                !
 ! A150  A(57,56,84)           109.1441         estimate D2E/DX2                !
 ! A151  A(56,57,58)           122.2239         estimate D2E/DX2                !
 ! A152  A(56,57,65)           119.6959         estimate D2E/DX2                !
 ! A153  A(58,57,65)           116.2897         estimate D2E/DX2                !
 ! A154  A(57,58,59)           123.5919         estimate D2E/DX2                !
 ! A155  A(57,58,63)           116.1863         estimate D2E/DX2                !
 ! A156  A(59,58,63)           120.2144         estimate D2E/DX2                !
 ! A157  A(58,59,60)           120.6082         estimate D2E/DX2                !
 ! A158  A(58,59,85)           121.3494         estimate D2E/DX2                !
 ! A159  A(60,59,85)           118.0389         estimate D2E/DX2                !
 ! A160  A(59,60,61)           119.8291         estimate D2E/DX2                !
 ! A161  A(59,60,86)           120.4244         estimate D2E/DX2                !
 ! A162  A(61,60,86)           119.745          estimate D2E/DX2                !
 ! A163  A(60,61,62)           119.8109         estimate D2E/DX2                !
 ! A164  A(60,61,87)           120.8635         estimate D2E/DX2                !
 ! A165  A(62,61,87)           119.3249         estimate D2E/DX2                !
 ! A166  A(61,62,63)           122.0585         estimate D2E/DX2                !
 ! A167  A(61,62,88)           119.308          estimate D2E/DX2                !
 ! A168  A(63,62,88)           118.6334         estimate D2E/DX2                !
 ! A169  A(39,63,58)           125.9188         estimate D2E/DX2                !
 ! A170  A(39,63,62)           116.6028         estimate D2E/DX2                !
 ! A171  A(58,63,62)           117.4753         estimate D2E/DX2                !
 ! A172  A(39,64,65)           121.0638         estimate D2E/DX2                !
 ! A173  A(39,64,89)           122.8684         estimate D2E/DX2                !
 ! A174  A(65,64,89)           116.0663         estimate D2E/DX2                !
 ! A175  A(57,65,64)           121.0062         estimate D2E/DX2                !
 ! A176  A(57,65,90)           120.6952         estimate D2E/DX2                !
 ! A177  A(64,65,90)           118.2348         estimate D2E/DX2                !
 ! A178  A(1,91,37)            126.0522         estimate D2E/DX2                !
 ! A179  L(1,34,36,23,-1)      189.3626         estimate D2E/DX2                !
 ! A180  L(1,34,36,23,-2)      174.808          estimate D2E/DX2                !
 ! D1    D(34,1,3,4)            -7.1996         estimate D2E/DX2                !
 ! D2    D(34,1,3,12)          171.9814         estimate D2E/DX2                !
 ! D3    D(91,1,3,4)           136.0634         estimate D2E/DX2                !
 ! D4    D(91,1,3,12)          -44.7556         estimate D2E/DX2                !
 ! D5    D(3,1,91,37)         -147.0054         estimate D2E/DX2                !
 ! D6    D(34,1,91,37)          -4.2321         estimate D2E/DX2                !
 ! D7    D(35,2,14,13)        -168.0349         estimate D2E/DX2                !
 ! D8    D(35,2,14,15)          11.5838         estimate D2E/DX2                !
 ! D9    D(1,3,4,5)            179.3197         estimate D2E/DX2                !
 ! D10   D(1,3,4,23)            -0.0337         estimate D2E/DX2                !
 ! D11   D(12,3,4,5)             0.1521         estimate D2E/DX2                !
 ! D12   D(12,3,4,23)         -179.2014         estimate D2E/DX2                !
 ! D13   D(1,3,12,11)         -179.9385         estimate D2E/DX2                !
 ! D14   D(1,3,12,13)           -3.2342         estimate D2E/DX2                !
 ! D15   D(4,3,12,11)           -0.7716         estimate D2E/DX2                !
 ! D16   D(4,3,12,13)          175.9327         estimate D2E/DX2                !
 ! D17   D(3,4,5,6)              0.3607         estimate D2E/DX2                !
 ! D18   D(3,4,5,24)          -179.4097         estimate D2E/DX2                !
 ! D19   D(23,4,5,6)           179.724          estimate D2E/DX2                !
 ! D20   D(23,4,5,24)           -0.0464         estimate D2E/DX2                !
 ! D21   D(4,5,6,7)           -179.7865         estimate D2E/DX2                !
 ! D22   D(4,5,6,11)            -0.2309         estimate D2E/DX2                !
 ! D23   D(24,5,6,7)            -0.0213         estimate D2E/DX2                !
 ! D24   D(24,5,6,11)          179.5343         estimate D2E/DX2                !
 ! D25   D(5,6,7,8)            179.7383         estimate D2E/DX2                !
 ! D26   D(5,6,7,25)            -0.1167         estimate D2E/DX2                !
 ! D27   D(11,6,7,8)             0.1844         estimate D2E/DX2                !
 ! D28   D(11,6,7,25)         -179.6706         estimate D2E/DX2                !
 ! D29   D(5,6,11,10)         -179.7624         estimate D2E/DX2                !
 ! D30   D(5,6,11,12)           -0.3963         estimate D2E/DX2                !
 ! D31   D(7,6,11,10)           -0.2065         estimate D2E/DX2                !
 ! D32   D(7,6,11,12)          179.1595         estimate D2E/DX2                !
 ! D33   D(6,7,8,9)             -0.0022         estimate D2E/DX2                !
 ! D34   D(6,7,8,26)           179.996          estimate D2E/DX2                !
 ! D35   D(25,7,8,9)           179.8548         estimate D2E/DX2                !
 ! D36   D(25,7,8,26)           -0.147          estimate D2E/DX2                !
 ! D37   D(7,8,9,10)            -0.1488         estimate D2E/DX2                !
 ! D38   D(7,8,9,27)           179.8737         estimate D2E/DX2                !
 ! D39   D(26,8,9,10)          179.853          estimate D2E/DX2                !
 ! D40   D(26,8,9,27)           -0.1244         estimate D2E/DX2                !
 ! D41   D(8,9,10,11)            0.1214         estimate D2E/DX2                !
 ! D42   D(8,9,10,28)          179.9425         estimate D2E/DX2                !
 ! D43   D(27,9,10,11)        -179.901          estimate D2E/DX2                !
 ! D44   D(27,9,10,28)          -0.0799         estimate D2E/DX2                !
 ! D45   D(9,10,11,6)            0.0572         estimate D2E/DX2                !
 ! D46   D(9,10,11,12)        -179.2802         estimate D2E/DX2                !
 ! D47   D(28,10,11,6)        -179.7599         estimate D2E/DX2                !
 ! D48   D(28,10,11,12)          0.9027         estimate D2E/DX2                !
 ! D49   D(6,11,12,3)            0.8855         estimate D2E/DX2                !
 ! D50   D(6,11,12,13)        -175.831          estimate D2E/DX2                !
 ! D51   D(10,11,12,3)        -179.7906         estimate D2E/DX2                !
 ! D52   D(10,11,12,13)          3.4929         estimate D2E/DX2                !
 ! D53   D(3,12,13,14)          93.64           estimate D2E/DX2                !
 ! D54   D(3,12,13,22)         -89.8118         estimate D2E/DX2                !
 ! D55   D(11,12,13,14)        -89.701          estimate D2E/DX2                !
 ! D56   D(11,12,13,22)         86.8472         estimate D2E/DX2                !
 ! D57   D(12,13,14,2)          -6.5669         estimate D2E/DX2                !
 ! D58   D(12,13,14,15)        173.826          estimate D2E/DX2                !
 ! D59   D(22,13,14,2)         176.8136         estimate D2E/DX2                !
 ! D60   D(22,13,14,15)         -2.7935         estimate D2E/DX2                !
 ! D61   D(12,13,22,17)       -174.2522         estimate D2E/DX2                !
 ! D62   D(12,13,22,21)          5.82           estimate D2E/DX2                !
 ! D63   D(14,13,22,17)          2.3546         estimate D2E/DX2                !
 ! D64   D(14,13,22,21)       -177.5732         estimate D2E/DX2                !
 ! D65   D(2,14,15,16)        -178.1167         estimate D2E/DX2                !
 ! D66   D(2,14,15,29)          -1.1799         estimate D2E/DX2                !
 ! D67   D(13,14,15,16)          1.4988         estimate D2E/DX2                !
 ! D68   D(13,14,15,29)        178.4356         estimate D2E/DX2                !
 ! D69   D(14,15,16,17)          0.2673         estimate D2E/DX2                !
 ! D70   D(14,15,16,95)        177.5286         estimate D2E/DX2                !
 ! D71   D(29,15,16,17)       -176.7725         estimate D2E/DX2                !
 ! D72   D(29,15,16,95)          0.4888         estimate D2E/DX2                !
 ! D73   D(15,16,17,18)        179.1065         estimate D2E/DX2                !
 ! D74   D(15,16,17,22)         -0.654          estimate D2E/DX2                !
 ! D75   D(95,16,17,18)          1.9337         estimate D2E/DX2                !
 ! D76   D(95,16,17,22)       -177.8269         estimate D2E/DX2                !
 ! D77   D(16,17,18,19)       -179.4305         estimate D2E/DX2                !
 ! D78   D(16,17,18,30)         -0.055          estimate D2E/DX2                !
 ! D79   D(22,17,18,19)          0.3289         estimate D2E/DX2                !
 ! D80   D(22,17,18,30)        179.7044         estimate D2E/DX2                !
 ! D81   D(16,17,22,13)         -0.6769         estimate D2E/DX2                !
 ! D82   D(16,17,22,21)        179.2558         estimate D2E/DX2                !
 ! D83   D(18,17,22,13)        179.5644         estimate D2E/DX2                !
 ! D84   D(18,17,22,21)         -0.5029         estimate D2E/DX2                !
 ! D85   D(17,18,19,20)          0.1515         estimate D2E/DX2                !
 ! D86   D(17,18,19,31)        179.3626         estimate D2E/DX2                !
 ! D87   D(30,18,19,20)       -179.2305         estimate D2E/DX2                !
 ! D88   D(30,18,19,31)         -0.0194         estimate D2E/DX2                !
 ! D89   D(18,19,20,21)         -0.4338         estimate D2E/DX2                !
 ! D90   D(18,19,20,32)        178.7994         estimate D2E/DX2                !
 ! D91   D(31,19,20,21)       -179.6424         estimate D2E/DX2                !
 ! D92   D(31,19,20,32)         -0.4092         estimate D2E/DX2                !
 ! D93   D(19,20,21,22)          0.245          estimate D2E/DX2                !
 ! D94   D(19,20,21,33)        178.8472         estimate D2E/DX2                !
 ! D95   D(32,20,21,22)       -178.9931         estimate D2E/DX2                !
 ! D96   D(32,20,21,33)         -0.391          estimate D2E/DX2                !
 ! D97   D(20,21,22,13)       -179.8478         estimate D2E/DX2                !
 ! D98   D(20,21,22,17)          0.2228         estimate D2E/DX2                !
 ! D99   D(33,21,22,13)          1.5807         estimate D2E/DX2                !
 ! D100  D(33,21,22,17)       -178.3486         estimate D2E/DX2                !
 ! D101  D(91,37,56,44)       -176.4752         estimate D2E/DX2                !
 ! D102  D(91,37,56,57)         60.9328         estimate D2E/DX2                !
 ! D103  D(91,37,56,84)        -57.9382         estimate D2E/DX2                !
 ! D104  D(56,37,91,1)         145.3178         estimate D2E/DX2                !
 ! D105  D(44,38,40,41)         51.3084         estimate D2E/DX2                !
 ! D106  D(44,38,40,66)        171.3991         estimate D2E/DX2                !
 ! D107  D(44,38,40,67)        -69.8767         estimate D2E/DX2                !
 ! D108  D(46,38,40,41)        -66.747          estimate D2E/DX2                !
 ! D109  D(46,38,40,66)         53.3438         estimate D2E/DX2                !
 ! D110  D(46,38,40,67)        172.0679         estimate D2E/DX2                !
 ! D111  D(49,38,40,41)        172.6317         estimate D2E/DX2                !
 ! D112  D(49,38,40,66)        -67.2776         estimate D2E/DX2                !
 ! D113  D(49,38,40,67)         51.4466         estimate D2E/DX2                !
 ! D114  D(40,38,44,43)        -69.0327         estimate D2E/DX2                !
 ! D115  D(40,38,44,56)        162.553          estimate D2E/DX2                !
 ! D116  D(40,38,44,92)         45.2966         estimate D2E/DX2                !
 ! D117  D(46,38,44,43)         48.5668         estimate D2E/DX2                !
 ! D118  D(46,38,44,56)        -79.8475         estimate D2E/DX2                !
 ! D119  D(46,38,44,92)        162.8961         estimate D2E/DX2                !
 ! D120  D(49,38,44,43)        168.8585         estimate D2E/DX2                !
 ! D121  D(49,38,44,56)         40.4443         estimate D2E/DX2                !
 ! D122  D(49,38,44,92)        -76.8122         estimate D2E/DX2                !
 ! D123  D(40,38,46,45)         50.4006         estimate D2E/DX2                !
 ! D124  D(40,38,46,74)        175.9382         estimate D2E/DX2                !
 ! D125  D(40,38,46,75)        -67.6156         estimate D2E/DX2                !
 ! D126  D(44,38,46,45)        -66.3188         estimate D2E/DX2                !
 ! D127  D(44,38,46,74)         59.2189         estimate D2E/DX2                !
 ! D128  D(44,38,46,75)        175.6651         estimate D2E/DX2                !
 ! D129  D(49,38,46,45)        172.592          estimate D2E/DX2                !
 ! D130  D(49,38,46,74)        -61.8703         estimate D2E/DX2                !
 ! D131  D(49,38,46,75)         54.5759         estimate D2E/DX2                !
 ! D132  D(40,38,49,50)         46.7266         estimate D2E/DX2                !
 ! D133  D(40,38,49,93)        170.8806         estimate D2E/DX2                !
 ! D134  D(40,38,49,94)        -74.0975         estimate D2E/DX2                !
 ! D135  D(44,38,49,50)        166.1143         estimate D2E/DX2                !
 ! D136  D(44,38,49,93)        -69.7316         estimate D2E/DX2                !
 ! D137  D(44,38,49,94)         45.2903         estimate D2E/DX2                !
 ! D138  D(46,38,49,50)        -73.5395         estimate D2E/DX2                !
 ! D139  D(46,38,49,93)         50.6145         estimate D2E/DX2                !
 ! D140  D(46,38,49,94)        165.6364         estimate D2E/DX2                !
 ! D141  D(64,39,63,58)         -2.6216         estimate D2E/DX2                !
 ! D142  D(64,39,63,62)        178.0421         estimate D2E/DX2                !
 ! D143  D(63,39,64,65)          0.1849         estimate D2E/DX2                !
 ! D144  D(63,39,64,89)        179.7187         estimate D2E/DX2                !
 ! D145  D(38,40,41,42)         14.208          estimate D2E/DX2                !
 ! D146  D(38,40,41,68)        136.4069         estimate D2E/DX2                !
 ! D147  D(38,40,41,69)       -107.4218         estimate D2E/DX2                !
 ! D148  D(66,40,41,42)       -104.742          estimate D2E/DX2                !
 ! D149  D(66,40,41,68)         17.4569         estimate D2E/DX2                !
 ! D150  D(66,40,41,69)        133.6282         estimate D2E/DX2                !
 ! D151  D(67,40,41,42)        133.9283         estimate D2E/DX2                !
 ! D152  D(67,40,41,68)       -103.8728         estimate D2E/DX2                !
 ! D153  D(67,40,41,69)         12.2984         estimate D2E/DX2                !
 ! D154  D(40,41,42,43)        -67.3068         estimate D2E/DX2                !
 ! D155  D(40,41,42,45)         50.6661         estimate D2E/DX2                !
 ! D156  D(40,41,42,70)        172.823          estimate D2E/DX2                !
 ! D157  D(68,41,42,43)        171.1539         estimate D2E/DX2                !
 ! D158  D(68,41,42,45)        -70.8732         estimate D2E/DX2                !
 ! D159  D(68,41,42,70)         51.2838         estimate D2E/DX2                !
 ! D160  D(69,41,42,43)         54.2045         estimate D2E/DX2                !
 ! D161  D(69,41,42,45)        172.1773         estimate D2E/DX2                !
 ! D162  D(69,41,42,70)        -65.6657         estimate D2E/DX2                !
 ! D163  D(41,42,43,44)         47.9277         estimate D2E/DX2                !
 ! D164  D(41,42,43,71)        -72.6387         estimate D2E/DX2                !
 ! D165  D(41,42,43,72)        171.3311         estimate D2E/DX2                !
 ! D166  D(45,42,43,44)        -70.2599         estimate D2E/DX2                !
 ! D167  D(45,42,43,71)        169.1737         estimate D2E/DX2                !
 ! D168  D(45,42,43,72)         53.1435         estimate D2E/DX2                !
 ! D169  D(70,42,43,44)        167.6296         estimate D2E/DX2                !
 ! D170  D(70,42,43,71)         47.0632         estimate D2E/DX2                !
 ! D171  D(70,42,43,72)        -68.967          estimate D2E/DX2                !
 ! D172  D(41,42,45,46)        -65.9816         estimate D2E/DX2                !
 ! D173  D(41,42,45,47)        163.2769         estimate D2E/DX2                !
 ! D174  D(41,42,45,73)         49.552          estimate D2E/DX2                !
 ! D175  D(43,42,45,46)         51.7164         estimate D2E/DX2                !
 ! D176  D(43,42,45,47)        -79.0251         estimate D2E/DX2                !
 ! D177  D(43,42,45,73)        167.25           estimate D2E/DX2                !
 ! D178  D(70,42,45,46)        172.923          estimate D2E/DX2                !
 ! D179  D(70,42,45,47)         42.1814         estimate D2E/DX2                !
 ! D180  D(70,42,45,73)        -71.5434         estimate D2E/DX2                !
 ! D181  D(42,43,44,38)         16.504          estimate D2E/DX2                !
 ! D182  D(42,43,44,56)        145.905          estimate D2E/DX2                !
 ! D183  D(42,43,44,92)        -94.4924         estimate D2E/DX2                !
 ! D184  D(71,43,44,38)        137.6493         estimate D2E/DX2                !
 ! D185  D(71,43,44,56)        -92.9498         estimate D2E/DX2                !
 ! D186  D(71,43,44,92)         26.6529         estimate D2E/DX2                !
 ! D187  D(72,43,44,38)       -105.4103         estimate D2E/DX2                !
 ! D188  D(72,43,44,56)         23.9906         estimate D2E/DX2                !
 ! D189  D(72,43,44,92)        143.5932         estimate D2E/DX2                !
 ! D190  D(38,44,56,37)         55.9786         estimate D2E/DX2                !
 ! D191  D(38,44,56,57)        179.3919         estimate D2E/DX2                !
 ! D192  D(38,44,56,84)        -60.1847         estimate D2E/DX2                !
 ! D193  D(43,44,56,37)        -68.8862         estimate D2E/DX2                !
 ! D194  D(43,44,56,57)         54.5271         estimate D2E/DX2                !
 ! D195  D(43,44,56,84)        174.9505         estimate D2E/DX2                !
 ! D196  D(92,44,56,37)        170.9984         estimate D2E/DX2                !
 ! D197  D(92,44,56,57)        -65.5882         estimate D2E/DX2                !
 ! D198  D(92,44,56,84)         54.8351         estimate D2E/DX2                !
 ! D199  D(42,45,46,38)         13.5385         estimate D2E/DX2                !
 ! D200  D(42,45,46,74)       -107.8098         estimate D2E/DX2                !
 ! D201  D(42,45,46,75)        130.6889         estimate D2E/DX2                !
 ! D202  D(47,45,46,38)        140.5265         estimate D2E/DX2                !
 ! D203  D(47,45,46,74)         19.1782         estimate D2E/DX2                !
 ! D204  D(47,45,46,75)       -102.3231         estimate D2E/DX2                !
 ! D205  D(73,45,46,38)       -102.1929         estimate D2E/DX2                !
 ! D206  D(73,45,46,74)        136.4588         estimate D2E/DX2                !
 ! D207  D(73,45,46,75)         14.9575         estimate D2E/DX2                !
 ! D208  D(42,45,47,48)        128.4094         estimate D2E/DX2                !
 ! D209  D(42,45,47,76)        -51.9313         estimate D2E/DX2                !
 ! D210  D(46,45,47,48)          2.302          estimate D2E/DX2                !
 ! D211  D(46,45,47,76)       -178.0388         estimate D2E/DX2                !
 ! D212  D(73,45,47,48)       -116.2195         estimate D2E/DX2                !
 ! D213  D(73,45,47,76)         63.4397         estimate D2E/DX2                !
 ! D214  D(45,47,48,77)         -0.1456         estimate D2E/DX2                !
 ! D215  D(45,47,48,78)       -179.6595         estimate D2E/DX2                !
 ! D216  D(76,47,48,77)       -179.8008         estimate D2E/DX2                !
 ! D217  D(76,47,48,78)          0.6854         estimate D2E/DX2                !
 ! D218  D(38,49,50,51)        -86.4016         estimate D2E/DX2                !
 ! D219  D(38,49,50,55)         93.4699         estimate D2E/DX2                !
 ! D220  D(93,49,50,51)        150.5112         estimate D2E/DX2                !
 ! D221  D(93,49,50,55)        -29.6173         estimate D2E/DX2                !
 ! D222  D(94,49,50,51)         33.3569         estimate D2E/DX2                !
 ! D223  D(94,49,50,55)       -146.7716         estimate D2E/DX2                !
 ! D224  D(49,50,51,52)        178.1032         estimate D2E/DX2                !
 ! D225  D(49,50,51,79)         -1.9933         estimate D2E/DX2                !
 ! D226  D(55,50,51,52)         -1.7707         estimate D2E/DX2                !
 ! D227  D(55,50,51,79)        178.1328         estimate D2E/DX2                !
 ! D228  D(49,50,55,54)       -178.3627         estimate D2E/DX2                !
 ! D229  D(49,50,55,83)          1.9383         estimate D2E/DX2                !
 ! D230  D(51,50,55,54)          1.5134         estimate D2E/DX2                !
 ! D231  D(51,50,55,83)       -178.1855         estimate D2E/DX2                !
 ! D232  D(50,51,52,53)          0.8203         estimate D2E/DX2                !
 ! D233  D(50,51,52,80)       -179.5518         estimate D2E/DX2                !
 ! D234  D(79,51,52,53)       -179.0851         estimate D2E/DX2                !
 ! D235  D(79,51,52,80)          0.5427         estimate D2E/DX2                !
 ! D236  D(51,52,53,54)          0.4415         estimate D2E/DX2                !
 ! D237  D(51,52,53,81)        179.7494         estimate D2E/DX2                !
 ! D238  D(80,52,53,54)       -179.1886         estimate D2E/DX2                !
 ! D239  D(80,52,53,81)          0.1194         estimate D2E/DX2                !
 ! D240  D(52,53,54,55)         -0.7049         estimate D2E/DX2                !
 ! D241  D(52,53,54,82)        179.0494         estimate D2E/DX2                !
 ! D242  D(81,53,54,55)        179.9821         estimate D2E/DX2                !
 ! D243  D(81,53,54,82)         -0.2637         estimate D2E/DX2                !
 ! D244  D(53,54,55,50)         -0.2915         estimate D2E/DX2                !
 ! D245  D(53,54,55,83)        179.414          estimate D2E/DX2                !
 ! D246  D(82,54,55,50)        179.9506         estimate D2E/DX2                !
 ! D247  D(82,54,55,83)         -0.3439         estimate D2E/DX2                !
 ! D248  D(37,56,57,58)       -166.6412         estimate D2E/DX2                !
 ! D249  D(37,56,57,65)         29.1685         estimate D2E/DX2                !
 ! D250  D(44,56,57,58)         71.2854         estimate D2E/DX2                !
 ! D251  D(44,56,57,65)        -92.9049         estimate D2E/DX2                !
 ! D252  D(84,56,57,58)        -49.5845         estimate D2E/DX2                !
 ! D253  D(84,56,57,65)        146.2252         estimate D2E/DX2                !
 ! D254  D(56,57,58,59)         19.731          estimate D2E/DX2                !
 ! D255  D(56,57,58,63)       -159.2793         estimate D2E/DX2                !
 ! D256  D(65,57,58,59)       -175.5745         estimate D2E/DX2                !
 ! D257  D(65,57,58,63)          5.4152         estimate D2E/DX2                !
 ! D258  D(56,57,65,64)        157.2466         estimate D2E/DX2                !
 ! D259  D(56,57,65,90)        -19.7966         estimate D2E/DX2                !
 ! D260  D(58,57,65,64)         -7.8572         estimate D2E/DX2                !
 ! D261  D(58,57,65,90)        175.0995         estimate D2E/DX2                !
 ! D262  D(57,58,59,60)       -178.4205         estimate D2E/DX2                !
 ! D263  D(57,58,59,85)          2.2711         estimate D2E/DX2                !
 ! D264  D(63,58,59,60)          0.5517         estimate D2E/DX2                !
 ! D265  D(63,58,59,85)       -178.7566         estimate D2E/DX2                !
 ! D266  D(57,58,63,39)         -0.3561         estimate D2E/DX2                !
 ! D267  D(57,58,63,62)        178.9751         estimate D2E/DX2                !
 ! D268  D(59,58,63,39)       -179.402          estimate D2E/DX2                !
 ! D269  D(59,58,63,62)         -0.0708         estimate D2E/DX2                !
 ! D270  D(58,59,60,61)         -0.5718         estimate D2E/DX2                !
 ! D271  D(58,59,60,86)        179.8644         estimate D2E/DX2                !
 ! D272  D(85,59,60,61)        178.7589         estimate D2E/DX2                !
 ! D273  D(85,59,60,86)         -0.8049         estimate D2E/DX2                !
 ! D274  D(59,60,61,62)          0.1096         estimate D2E/DX2                !
 ! D275  D(59,60,61,87)       -179.6037         estimate D2E/DX2                !
 ! D276  D(86,60,61,62)        179.6764         estimate D2E/DX2                !
 ! D277  D(86,60,61,87)         -0.0369         estimate D2E/DX2                !
 ! D278  D(60,61,62,63)          0.382          estimate D2E/DX2                !
 ! D279  D(60,61,62,88)       -179.7252         estimate D2E/DX2                !
 ! D280  D(87,61,62,63)       -179.9003         estimate D2E/DX2                !
 ! D281  D(87,61,62,88)         -0.0074         estimate D2E/DX2                !
 ! D282  D(61,62,63,39)        178.9991         estimate D2E/DX2                !
 ! D283  D(61,62,63,58)         -0.3951         estimate D2E/DX2                !
 ! D284  D(88,62,63,39)         -0.8944         estimate D2E/DX2                !
 ! D285  D(88,62,63,58)        179.7113         estimate D2E/DX2                !
 ! D286  D(39,64,65,57)          5.2177         estimate D2E/DX2                !
 ! D287  D(39,64,65,90)       -177.6681         estimate D2E/DX2                !
 ! D288  D(89,64,65,57)       -174.3464         estimate D2E/DX2                !
 ! D289  D(89,64,65,90)          2.7678         estimate D2E/DX2                !
 --------------------------------------------------------------------------------
 Trust Radius=3.00D-01 FncErr=1.00D-07 GrdErr=1.00D-07
 Number of steps in this run=    570 maximum allowed number of steps=    570.
 GradGradGradGradGradGradGradGradGradGradGradGradGradGradGradGradGradGrad

 Stoichiometry    C46H43ClN2O3
 Framework group  C1[X(C46H43ClN2O3)]
 Deg. of freedom   279
 Full point group                 C1      NOp   1
 Largest Abelian subgroup         C1      NOp   1
 Largest concise Abelian subgroup C1      NOp   1
                         Standard orientation:                         
 ---------------------------------------------------------------------
 Center     Atomic      Atomic             Coordinates (Angstroms)
 Number     Number       Type             X           Y           Z
 ---------------------------------------------------------------------
      1          8           0       -1.298448   -1.698272    0.870475
      2          8           0       -2.054634    0.624828   -1.933600
      3          6           0       -2.328919   -2.218519    0.131737
      4          6           0       -2.360015   -3.584550   -0.130164
      5          6           0       -3.409701   -4.127941   -0.867954
      6          6           0       -4.439335   -3.316033   -1.361463
      7          6           0       -5.493336   -3.882604   -2.100496
      8          6           0       -6.531081   -3.094531   -2.596497
      9          6           0       -6.528668   -1.727679   -2.359734
     10          6           0       -5.489913   -1.152802   -1.624772
     11          6           0       -4.419727   -1.921756   -1.104899
     12          6           0       -3.347857   -1.364981   -0.335075
     13          6           0       -3.353385    0.076825    0.025359
     14          6           0       -2.761033    1.027053   -0.827505
     15          6           0       -2.865988    2.390857   -0.572618
     16          6           0       -3.539905    2.835643    0.559143
     17          6           0       -4.113433    1.928830    1.454999
     18          6           0       -4.772034    2.405719    2.599896
     19          6           0       -5.343357    1.527246    3.517457
     20          6           0       -5.259362    0.158970    3.301214
     21          6           0       -4.611752   -0.328145    2.162568
     22          6           0       -4.023069    0.535039    1.206346
     23          1           0       -1.578013   -4.240316    0.243374
     24          1           0       -3.413487   -5.200067   -1.049231
     25          1           0       -5.512039   -4.952748   -2.293239
     26          1           0       -7.337219   -3.547896   -3.165262
     27          1           0       -7.328806   -1.099999   -2.741156
     28          1           0       -5.519973   -0.077221   -1.459176
     29          1           0       -2.389636    3.130611   -1.213476
     30          1           0       -4.833254    3.475726    2.786564
     31          1           0       -5.839728    1.913031    4.402474
     32          1           0       -5.683578   -0.537196    4.018696
     33          1           0       -4.548629   -1.407342    2.035897
     34          1           0       -0.731221   -2.424812    1.236315
     35          1           0       -1.581551    1.412306   -2.258179
     36         17           0        0.893248   -3.813399    2.115732
     37          8           0        0.752576    0.203628    0.702532
     38          7           0        3.697860   -0.177422    0.087007
     39          7           0        0.137374    5.190169   -0.089006
     40          6           0        5.169117    0.177329   -0.086700
     41          6           0        5.542921    1.313690    0.863359
     42          6           0        4.456761    1.507035    1.924562
     43          6           0        3.195025    2.023671    1.228960
     44          6           0        2.864764    1.184947   -0.026866
     45          6           0        4.138674    0.139322    2.574077
     46          6           0        3.496996   -0.788146    1.507962
     47          6           0        3.393154    0.325149    3.879967
     48          6           0        2.247839   -0.247653    4.266220
     49          6           0        3.224196   -1.191809   -0.973704
     50          6           0        4.115973   -2.394756   -1.213817
     51          6           0        5.187917   -2.351757   -2.120337
     52          6           0        6.019562   -3.462755   -2.294448
     53          6           0        5.782230   -4.635141   -1.579741
     54          6           0        4.708947   -4.700794   -0.698193
     55          6           0        3.883680   -3.590309   -0.521401
     56          6           0        1.331040    1.024517   -0.302570
     57          6           0        0.668266    2.371249   -0.371468
     58          6           0        0.879632    3.298666   -1.507561
     59          6           0        1.356378    2.891675   -2.764860
     60          6           0        1.563680    3.824686   -3.782603
     61          6           0        1.285734    5.166649   -3.556742
     62          6           0        0.803241    5.575042   -2.313725
     63          6           0        0.591163    4.668146   -1.261169
     64          6           0       -0.121075    4.361364    0.940799
     65          6           0        0.078931    2.941281    0.819407
     66          1           0        5.764375   -0.713273    0.141019
     67          1           0        5.333188    0.471529   -1.129255
     68          1           0        6.508693    1.095247    1.333931
     69          1           0        5.683686    2.242522    0.295800
     70          1           0        4.796209    2.234893    2.671011
     71          1           0        3.336943    3.069897    0.929297
     72          1           0        2.367058    2.019436    1.944580
     73          1           0        5.097179   -0.316968    2.862487
     74          1           0        2.435464   -0.967172    1.641417
     75          1           0        4.013905   -1.752476    1.524418
     76          1           0        3.860287    1.009899    4.588506
     77          1           0        1.684336   -0.950159    3.656541
     78          1           0        1.813401   -0.021262    5.236285
     79          1           0        5.387379   -1.455240   -2.702071
     80          1           0        6.851363   -3.418712   -2.992698
     81          1           0        6.423107   -5.502224   -1.714600
     82          1           0        4.499597   -5.613282   -0.143370
     83          1           0        3.045732   -3.675386    0.168226
     84          1           0        1.176019    0.499379   -1.249982
     85          1           0        1.563154    1.850598   -2.978906
     86          1           0        1.933943    3.507457   -4.751531
     87          1           0        1.434560    5.904904   -4.337607
     88          1           0        0.583697    6.628939   -2.146961
     89          1           0       -0.480555    4.712024    1.903614
     90          1           0       -0.180049    2.312793    1.663997
     91          1           0       -0.196255    0.060282    0.493621
     92          1           0        3.306233    1.682652   -0.901200
     93          1           0        2.218376   -1.523870   -0.693693
     94          1           0        3.138020   -0.634267   -1.915096
     95          1           0       -3.566947    3.907212    0.748223
 ---------------------------------------------------------------------
 Rotational constants (GHZ):      0.0627931      0.0418162      0.0336741
 Standard basis: VSTO-6G (5D, 7F)
 There are   257 symmetry adapted cartesian basis functions of A   symmetry.
 There are   256 symmetry adapted basis functions of A   symmetry.
   256 basis functions,  1542 primitive gaussians,   257 cartesian basis functions
   131 alpha electrons      131 beta electrons
       nuclear repulsion energy      3613.1811037767 Hartrees.
 Integral buffers will be    131072 words long.
 Regular integral format.
 Two-electron integral symmetry is turned off.
 Do NDO integrals.
 One-electron integrals computed using PRISM.
 NBasis=   256 RedAO= F EigKep=  0.00D+00  NBF=   256
 NBsUse=   256 1.00D-04 EigRej=  0.00D+00 NBFU=   256
 Nonelectrostatic core Hamiltonian diagonalized for initial guess.
 Overlap will be assumed to be unity.
 Keep J ints in memory in canonical form, NReq=2312328.
 Requested convergence on RMS density matrix=1.00D-08 within 128 cycles.
 Requested convergence on MAX density matrix=1.00D-06.
 Requested convergence on             energy=1.00D-06.
 No special actions if energy rises.
 EnCoef did     7 forward-backward iterations
 EnCoef did     1 forward-backward iterations
 SCF Done:  E(RPM6) =  0.908385886246E-01 A.U. after   32 cycles
            NFock= 31  Conv=0.50D-08     -V/T= 1.0004

 **********************************************************************

            Population analysis using the SCF density.

 **********************************************************************

 Orbital symmetries:
       Occupied  (A) (A) (A) (A) (A) (A) (A) (A) (A) (A) (A) (A)
                 (A) (A) (A) (A) (A) (A) (A) (A) (A) (A) (A) (A)
                 (A) (A) (A) (A) (A) (A) (A) (A) (A) (A) (A) (A)
                 (A) (A) (A) (A) (A) (A) (A) (A) (A) (A) (A) (A)
                 (A) (A) (A) (A) (A) (A) (A) (A) (A) (A) (A) (A)
                 (A) (A) (A) (A) (A) (A) (A) (A) (A) (A) (A) (A)
                 (A) (A) (A) (A) (A) (A) (A) (A) (A) (A) (A) (A)
                 (A) (A) (A) (A) (A) (A) (A) (A) (A) (A) (A) (A)
                 (A) (A) (A) (A) (A) (A) (A) (A) (A) (A) (A) (A)
                 (A) (A) (A) (A) (A) (A) (A) (A) (A) (A) (A) (A)
                 (A) (A) (A) (A) (A) (A) (A) (A) (A) (A) (A)
       Virtual   (A) (A) (A) (A) (A) (A) (A) (A) (A) (A) (A) (A)
                 (A) (A) (A) (A) (A) (A) (A) (A) (A) (A) (A) (A)
                 (A) (A) (A) (A) (A) (A) (A) (A) (A) (A) (A) (A)
                 (A) (A) (A) (A) (A) (A) (A) (A) (A) (A) (A) (A)
                 (A) (A) (A) (A) (A) (A) (A) (A) (A) (A) (A) (A)
                 (A) (A) (A) (A) (A) (A) (A) (A) (A) (A) (A) (A)
                 (A) (A) (A) (A) (A) (A) (A) (A) (A) (A) (A) (A)
                 (A) (A) (A) (A) (A) (A) (A) (A) (A) (A) (A) (A)
                 (A) (A) (A) (A) (A) (A) (A) (A) (A) (A) (A) (A)
                 (A) (A) (A) (A) (A) (A) (A) (A) (A) (A) (A) (A)
                 (A) (A) (A) (A) (A)
 The electronic state is 1-A.
 Alpha  occ. eigenvalues --   -1.26496  -1.20156  -1.14913  -1.14229  -1.13362
 Alpha  occ. eigenvalues --   -1.12684  -1.11424  -1.11149  -1.10440  -1.09289
 Alpha  occ. eigenvalues --   -1.06661  -1.05794  -1.05081  -1.04052  -1.02450
 Alpha  occ. eigenvalues --   -1.01220  -1.00347  -0.99511  -0.98066  -0.97056
 Alpha  occ. eigenvalues --   -0.96887  -0.95577  -0.93857  -0.93688  -0.92582
 Alpha  occ. eigenvalues --   -0.92256  -0.91619  -0.89163  -0.88416  -0.87282
 Alpha  occ. eigenvalues --   -0.86725  -0.85722  -0.84231  -0.83037  -0.81273
 Alpha  occ. eigenvalues --   -0.80837  -0.79907  -0.78999  -0.78690  -0.78198
 Alpha  occ. eigenvalues --   -0.78011  -0.77256  -0.73978  -0.72202  -0.71743
 Alpha  occ. eigenvalues --   -0.70253  -0.69475  -0.68890  -0.68502  -0.68293
 Alpha  occ. eigenvalues --   -0.67705  -0.66928  -0.66682  -0.65112  -0.64238
 Alpha  occ. eigenvalues --   -0.64089  -0.62085  -0.61356  -0.61050  -0.60731
 Alpha  occ. eigenvalues --   -0.60025  -0.59781  -0.59320  -0.59114  -0.58843
 Alpha  occ. eigenvalues --   -0.58680  -0.58146  -0.57345  -0.57134  -0.56943
 Alpha  occ. eigenvalues --   -0.56792  -0.56165  -0.55517  -0.55395  -0.54846
 Alpha  occ. eigenvalues --   -0.54784  -0.54409  -0.54003  -0.53931  -0.53596
 Alpha  occ. eigenvalues --   -0.53459  -0.53307  -0.52957  -0.52850  -0.52460
 Alpha  occ. eigenvalues --   -0.52124  -0.51216  -0.50989  -0.50688  -0.50369
 Alpha  occ. eigenvalues --   -0.50125  -0.49875  -0.49600  -0.49154  -0.48725
 Alpha  occ. eigenvalues --   -0.48686  -0.48567  -0.48230  -0.47911  -0.47623
 Alpha  occ. eigenvalues --   -0.47165  -0.46870  -0.46313  -0.46182  -0.45955
 Alpha  occ. eigenvalues --   -0.45790  -0.44614  -0.44285  -0.43964  -0.43637
 Alpha  occ. eigenvalues --   -0.42863  -0.42607  -0.41866  -0.41519  -0.40626
 Alpha  occ. eigenvalues --   -0.39946  -0.39662  -0.38394  -0.38352  -0.38223
 Alpha  occ. eigenvalues --   -0.37897  -0.37386  -0.36360  -0.36270  -0.33562
 Alpha  occ. eigenvalues --   -0.31752  -0.30228  -0.28974  -0.28341  -0.28057
 Alpha  occ. eigenvalues --   -0.27958
 Alpha virt. eigenvalues --   -0.06839  -0.04394  -0.04055  -0.01910  -0.01480
 Alpha virt. eigenvalues --   -0.01065  -0.00848  -0.00469   0.00720   0.02495
 Alpha virt. eigenvalues --    0.02624   0.03251   0.03713   0.04044   0.04330
 Alpha virt. eigenvalues --    0.05227   0.05266   0.05615   0.06371   0.06970
 Alpha virt. eigenvalues --    0.07048   0.07288   0.07611   0.08252   0.08380
 Alpha virt. eigenvalues --    0.08650   0.08830   0.09188   0.09229   0.09590
 Alpha virt. eigenvalues --    0.09710   0.09831   0.09905   0.11389   0.11616
 Alpha virt. eigenvalues --    0.11757   0.11986   0.12311   0.12590   0.12664
 Alpha virt. eigenvalues --    0.12677   0.12986   0.13373   0.13478   0.13917
 Alpha virt. eigenvalues --    0.14095   0.14220   0.14262   0.14416   0.14620
 Alpha virt. eigenvalues --    0.14718   0.14769   0.15048   0.15285   0.15532
 Alpha virt. eigenvalues --    0.15837   0.16135   0.16195   0.16395   0.16418
 Alpha virt. eigenvalues --    0.16564   0.16716   0.16835   0.16959   0.16989
 Alpha virt. eigenvalues --    0.17047   0.17211   0.17492   0.17687   0.17701
 Alpha virt. eigenvalues --    0.17711   0.17936   0.18006   0.18459   0.18650
 Alpha virt. eigenvalues --    0.18682   0.18706   0.18867   0.18948   0.18960
 Alpha virt. eigenvalues --    0.19060   0.19294   0.19350   0.19413   0.19584
 Alpha virt. eigenvalues --    0.19610   0.19737   0.19825   0.19838   0.19956
 Alpha virt. eigenvalues --    0.19959   0.20190   0.20236   0.20448   0.20459
 Alpha virt. eigenvalues --    0.20629   0.20789   0.20955   0.21098   0.21323
 Alpha virt. eigenvalues --    0.21573   0.21589   0.21858   0.21943   0.21963
 Alpha virt. eigenvalues --    0.22503   0.22630   0.22997   0.23089   0.23372
 Alpha virt. eigenvalues --    0.23436   0.23739   0.23761   0.24226   0.24451
 Alpha virt. eigenvalues --    0.24538   0.24684   0.25057   0.25165   0.25783
 Alpha virt. eigenvalues --    3.80853   3.80913   3.81103   3.81601   3.81612
          Condensed to atoms (all electrons):
 Mulliken charges:
               1
     1  O   -0.520885
     2  O   -0.455050
     3  C    0.357687
     4  C   -0.328371
     5  C   -0.051292
     6  C   -0.091591
     7  C   -0.109528
     8  C   -0.194297
     9  C   -0.108206
    10  C   -0.201714
    11  C    0.123471
    12  C   -0.194728
    13  C   -0.053377
    14  C    0.247865
    15  C   -0.333201
    16  C   -0.081343
    17  C   -0.055340
    18  C   -0.149110
    19  C   -0.155071
    20  C   -0.128437
    21  C   -0.149996
    22  C    0.070398
    23  H    0.204796
    24  H    0.145818
    25  H    0.141327
    26  H    0.145514
    27  H    0.139599
    28  H    0.157497
    29  H    0.163380
    30  H    0.143511
    31  H    0.146013
    32  H    0.149602
    33  H    0.168730
    34  H    0.384966
    35  H    0.308938
    36  Cl  -0.974259
    37  O   -0.538656
    38  N    0.071162
    39  N   -0.289723
    40  C   -0.193657
    41  C   -0.322257
    42  C   -0.066399
    43  C   -0.320738
    44  C   -0.007553
    45  C   -0.096893
    46  C   -0.185336
    47  C   -0.197139
    48  C   -0.264735
    49  C   -0.219395
    50  C   -0.047587
    51  C   -0.173593
    52  C   -0.145153
    53  C   -0.124897
    54  C   -0.124676
    55  C   -0.126049
    56  C    0.124938
    57  C   -0.054369
    58  C   -0.068652
    59  C   -0.186430
    60  C   -0.115641
    61  C   -0.144658
    62  C   -0.131447
    63  C    0.118342
    64  C    0.031944
    65  C   -0.198292
    66  H    0.180240
    67  H    0.155494
    68  H    0.162392
    69  H    0.155785
    70  H    0.146697
    71  H    0.157828
    72  H    0.190103
    73  H    0.141429
    74  H    0.223577
    75  H    0.175420
    76  H    0.140838
    77  H    0.189321
    78  H    0.152655
    79  H    0.138192
    80  H    0.150081
    81  H    0.153442
    82  H    0.170246
    83  H    0.207680
    84  H    0.126039
    85  H    0.146577
    86  H    0.152727
    87  H    0.158958
    88  H    0.175269
    89  H    0.175965
    90  H    0.188747
    91  H    0.362324
    92  H    0.142415
    93  H    0.213317
    94  H    0.155634
    95  H    0.144830
 Sum of Mulliken charges =  -0.00000
 Mulliken charges with hydrogens summed into heavy atoms:
               1
     1  O   -0.135919
     2  O   -0.146112
     3  C    0.357687
     4  C   -0.123575
     5  C    0.094526
     6  C   -0.091591
     7  C    0.031800
     8  C   -0.048783
     9  C    0.031393
    10  C   -0.044217
    11  C    0.123471
    12  C   -0.194728
    13  C   -0.053377
    14  C    0.247865
    15  C   -0.169821
    16  C    0.063487
    17  C   -0.055340
    18  C   -0.005599
    19  C   -0.009058
    20  C    0.021164
    21  C    0.018734
    22  C    0.070398
    36  Cl  -0.974259
    37  O   -0.176332
    38  N    0.071162
    39  N   -0.289723
    40  C    0.142077
    41  C   -0.004080
    42  C    0.080297
    43  C    0.027194
    44  C    0.134862
    45  C    0.044535
    46  C    0.213661
    47  C   -0.056300
    48  C    0.077241
    49  C    0.149556
    50  C   -0.047587
    51  C   -0.035401
    52  C    0.004928
    53  C    0.028545
    54  C    0.045570
    55  C    0.081631
    56  C    0.250977
    57  C   -0.054369
    58  C   -0.068652
    59  C   -0.039852
    60  C    0.037086
    61  C    0.014300
    62  C    0.043822
    63  C    0.118342
    64  C    0.207908
    65  C   -0.009544
 Charge=              0.0000 electrons
 Dipole moment (field-independent basis, Debye):
    X=             12.8153    Y=             12.7108    Z=             -7.2756  Tot=             19.4610
 N-N= 3.613181103777D+03 E-N=-6.848207030712D+03  KE=-2.055494245136D+02
 Calling FoFJK, ICntrl=      2127 FMM=F ISym2X=0 I1Cent= 0 IOpClX= 0 NMat=1 NMatS=1 NMatT=0.
 ***** Axes restored to original set *****
 -------------------------------------------------------------------
 Center     Atomic                   Forces (Hartrees/Bohr)
 Number     Number              X              Y              Z
 -------------------------------------------------------------------
      1        8           0.014996414   -0.014779136    0.005510111
      2        8          -0.001283423    0.006201410   -0.005489794
      3        6           0.007396945   -0.024511824    0.024978272
      4        6           0.024292771    0.019855333   -0.031646011
      5        6          -0.039119687    0.011902514    0.000773243
      6        6           0.004847962   -0.003167326    0.001419360
      7        6           0.029164531   -0.006009520   -0.003807752
      8        6          -0.006917790    0.022717908   -0.022485334
      9        6          -0.020197393   -0.015511330    0.024072766
     10        6           0.019768006   -0.008281319    0.001657416
     11        6          -0.005907038   -0.005229546    0.007324409
     12        6          -0.014094427    0.001343026    0.010051586
     13        6           0.001132905   -0.006651800   -0.017592186
     14        6           0.010158104    0.037770572   -0.002918029
     15        6          -0.003980813   -0.014009548    0.038331214
     16        6          -0.011838095   -0.030711520   -0.018784395
     17        6           0.001613812    0.003971575   -0.000789461
     18        6           0.006437042    0.021300628    0.024622038
     19        6          -0.004901847   -0.028812612    0.016011895
     20        6          -0.002508294    0.007306621   -0.035475820
     21        6           0.004146016    0.018243230    0.012654945
     22        6           0.000566555    0.001067263   -0.009156969
     23        1          -0.006265816    0.002686033   -0.000032094
     24        1           0.001522271    0.001039915   -0.001714124
     25        1          -0.001456285    0.001145162   -0.000891559
     26        1           0.000949689    0.000557227   -0.000887345
     27        1           0.001093303   -0.000704091    0.000460749
     28        1          -0.003038087    0.000134747    0.001097295
     29        1           0.001873381   -0.000682665   -0.002893987
     30        1           0.000182595   -0.001426009   -0.000036691
     31        1           0.000713110    0.000470731    0.001761091
     32        1           0.000804002    0.001933666   -0.000106165
     33        1           0.000040912   -0.000734198   -0.004230651
     34        1          -0.018552970    0.013831133   -0.004349396
     35        1          -0.003534819   -0.012116896   -0.009703445
     36       17           0.001579009   -0.011716947   -0.000171786
     37        8          -0.017141044   -0.001866836    0.003193704
     38        7           0.020650808    0.011578548    0.015998795
     39        7          -0.001773462    0.033936049    0.038253362
     40        6           0.007997500   -0.000699350    0.003096082
     41        6          -0.004485145   -0.002746138   -0.001323310
     42        6           0.006583591    0.001833441   -0.003826458
     43        6           0.004295579   -0.003273279   -0.006466399
     44        6          -0.008562995    0.019063739   -0.003410566
     45        6           0.005249903    0.005654031    0.009303618
     46        6          -0.013472838   -0.020789949    0.000104408
     47        6           0.012868158    0.002966256   -0.000549865
     48        6          -0.006005113   -0.009291969   -0.005773395
     49        6          -0.014471657   -0.007938155   -0.005606970
     50        6          -0.007238861    0.001911252    0.006375206
     51        6          -0.001278511   -0.004643197    0.001495561
     52        6           0.001586349   -0.006021563    0.002198360
     53        6          -0.002192889    0.002491281   -0.004394619
     54        6           0.002062315    0.001858109    0.001484134
     55        6           0.002465335   -0.001024668    0.005033406
     56        6           0.000072301    0.001787388   -0.003006424
     57        6          -0.006734978   -0.024518371    0.070807821
     58        6          -0.003610802    0.053527017    0.006777094
     59        6          -0.000747633   -0.015176652   -0.011532324
     60        6          -0.001569451    0.024759011   -0.012369235
[...]
     18          6           0       -4.468561    1.263712    3.027729
     19          6           0       -4.500785    0.260328    3.961903
     20          6           0       -3.912424   -1.006551    3.673271
     21          6           0       -3.311173   -1.235113    2.462526
     22          6           0       -3.257560   -0.206380    1.465372
     23          1           0        0.550857   -3.848579    0.311574
     24          1           0       -0.887464   -5.388375   -1.028926
     25          1           0       -2.962403   -5.817643   -2.258017
     26          1           0       -5.209575   -5.072642   -3.033192
     27          1           0       -6.028562   -2.808395   -2.468094
     28          1           0       -4.624056   -1.253443   -1.139171
     29          1           0       -3.147065    2.684617   -1.180086
     30          1           0       -4.914879    2.234328    3.235126
     31          1           0       -4.971052    0.410444    4.931327
     32          1           0       -3.948829   -1.786177    4.432872
     33          1           0       -2.857478   -2.202584    2.234157
     34          1           0        0.666695   -2.093634    1.912484
     35          1           0       -2.074949    1.183889   -2.521463
     36         17           0        1.605146   -2.688849    2.782939
     37          8           0        0.314613    1.019562    1.335008
     38          7           0        2.913032    0.316673   -0.049494
     39          7           0       -1.295802    5.351909   -0.529824
     40          6           0        4.325541    0.600920   -0.589259
     41          6           0        4.924966    1.834097    0.104711
     42          6           0        4.063381    2.195154    1.331031
     43          6           0        2.671688    2.640632    0.850009
     44          6           0        2.104367    1.634206   -0.174320
     45          6           0        3.907926    0.920381    2.203511
     46          6           0        3.014623   -0.077066    1.429486
     47          6           0        3.351129    1.227000    3.570544
     48          6           0        2.952026    0.292746    4.429806
     49          6           0        2.258336   -0.804511   -0.854979
     50          6           0        3.202714   -1.900206   -1.261020
     51          6           0        3.740137   -1.909127   -2.559559
     52          6           0        4.592934   -2.941465   -2.956013
     53          6           0        4.913246   -3.970917   -2.063757
     54          6           0        4.369997   -3.969526   -0.776029
     55          6           0        3.513849   -2.939727   -0.374359
     56          6           0        0.562348    1.446750    0.010337
     57          6           0       -0.100169    2.801383   -0.204335
     58          6           0       -0.259114    3.344674   -1.525196
     59          6           0        0.115691    2.664919   -2.725773
     60          6           0       -0.060986    3.256891   -3.951447
     61          6           0       -0.625420    4.562937   -4.054684
     62          6           0       -1.017917    5.239403   -2.929536
     63          6           0       -0.851704    4.636087   -1.638064
     64          6           0       -1.161609    4.796895    0.670816
     65          6           0       -0.560472    3.514652    0.876678
     66          1           0        4.960191   -0.297353   -0.408668
     67          1           0        4.279484    0.739927   -1.689056
     68          1           0        5.970085    1.631782    0.407361
     69          1           0        4.977630    2.692243   -0.591668
     70          1           0        4.547876    3.008520    1.914037
     71          1           0        2.699955    3.651609    0.406977
     72          1           0        1.982316    2.707914    1.725213
     73          1           0        4.919870    0.462134    2.353349
     74          1           0        1.965501   -0.080201    1.855907
     75          1           0        3.400197   -1.114332    1.520988
     76          1           0        3.309181    2.286148    3.826665
     77          1           0        2.955162   -0.772805    4.223651
     78          1           0        2.562680    0.521542    5.412848
     79          1           0        3.481093   -1.125508   -3.268324
     80          1           0        5.003091   -2.950033   -3.965204
     81          1           0        5.576261   -4.776853   -2.376143
     82          1           0        4.603359   -4.777739   -0.081505
     83          1           0        3.075660   -2.964383    0.629395
     84          1           0        0.137046    0.695362   -0.705954
     85          1           0        0.519162    1.655294   -2.657801
     86          1           0        0.220551    2.738253   -4.867593
     87          1           0       -0.743795    5.006013   -5.043567
     88          1           0       -1.463632    6.235567   -2.977319
     89          1           0       -1.533369    5.369333    1.531287
     90          1           0       -0.490429    3.095244    1.886434
     91          1           0       -0.259148    0.131338    1.317740
     92          1           0        2.277465    2.019662   -1.213610
     93          1           0        1.400687   -1.243267   -0.221150
     94          1           0        1.750786   -0.380011   -1.748680
     95          1           0       -4.284358    3.049535    1.006495
 ---------------------------------------------------------------------
 Rotational constants (GHZ):      0.0609661      0.0549807      0.0435667

 **********************************************************************

            Population analysis using the SCF density.

 **********************************************************************

 Orbital symmetries:
       Occupied  (A) (A) (A) (A) (A) (A) (A) (A) (A) (A) (A) (A)
                 (A) (A) (A) (A) (A) (A) (A) (A) (A) (A) (A) (A)
                 (A) (A) (A) (A) (A) (A) (A) (A) (A) (A) (A) (A)
                 (A) (A) (A) (A) (A) (A) (A) (A) (A) (A) (A) (A)
                 (A) (A) (A) (A) (A) (A) (A) (A) (A) (A) (A) (A)
                 (A) (A) (A) (A) (A) (A) (A) (A) (A) (A) (A) (A)
                 (A) (A) (A) (A) (A) (A) (A) (A) (A) (A) (A) (A)
                 (A) (A) (A) (A) (A) (A) (A) (A) (A) (A) (A) (A)
                 (A) (A) (A) (A) (A) (A) (A) (A) (A) (A) (A) (A)
                 (A) (A) (A) (A) (A) (A) (A) (A) (A) (A) (A) (A)
                 (A) (A) (A) (A) (A) (A) (A) (A) (A) (A) (A)
       Virtual   (A) (A) (A) (A) (A) (A) (A) (A) (A) (A) (A) (A)
                 (A) (A) (A) (A) (A) (A) (A) (A) (A) (A) (A) (A)
                 (A) (A) (A) (A) (A) (A) (A) (A) (A) (A) (A) (A)
                 (A) (A) (A) (A) (A) (A) (A) (A) (A) (A) (A) (A)
                 (A) (A) (A) (A) (A) (A) (A) (A) (A) (A) (A) (A)
                 (A) (A) (A) (A) (A) (A) (A) (A) (A) (A) (A) (A)
                 (A) (A) (A) (A) (A) (A) (A) (A) (A) (A) (A) (A)
                 (A) (A) (A) (A) (A) (A) (A) (A) (A) (A) (A) (A)
                 (A) (A) (A) (A) (A) (A) (A) (A) (A) (A) (A) (A)
                 (A) (A) (A) (A) (A) (A) (A) (A) (A) (A) (A) (A)
                 (A) (A) (A) (A) (A)
 The electronic state is 1-A.
 Alpha  occ. eigenvalues --   -1.24890  -1.18447  -1.12380  -1.12278  -1.10500
 Alpha  occ. eigenvalues --   -1.10268  -1.09718  -1.09485  -1.08279  -1.06090
 Alpha  occ. eigenvalues --   -1.04668  -1.04386  -1.02939  -1.01600  -1.00948
 Alpha  occ. eigenvalues --   -0.99585  -0.99339  -0.97701  -0.97098  -0.96243
 Alpha  occ. eigenvalues --   -0.96043  -0.95624  -0.94636  -0.92226  -0.91499
 Alpha  occ. eigenvalues --   -0.90785  -0.90210  -0.89932  -0.88000  -0.85291
 Alpha  occ. eigenvalues --   -0.84837  -0.83730  -0.82564  -0.80870  -0.80227
 Alpha  occ. eigenvalues --   -0.80044  -0.79216  -0.77901  -0.77582  -0.76715
 Alpha  occ. eigenvalues --   -0.75803  -0.75216  -0.73288  -0.71458  -0.69824
 Alpha  occ. eigenvalues --   -0.68685  -0.68140  -0.67664  -0.66847  -0.66450
 Alpha  occ. eigenvalues --   -0.66352  -0.64579  -0.63852  -0.63633  -0.63275
 Alpha  occ. eigenvalues --   -0.62487  -0.61370  -0.60143  -0.59985  -0.59827
 Alpha  occ. eigenvalues --   -0.58781  -0.57985  -0.57893  -0.57604  -0.57248
 Alpha  occ. eigenvalues --   -0.57061  -0.56729  -0.56596  -0.56138  -0.55312
 Alpha  occ. eigenvalues --   -0.54966  -0.54753  -0.54460  -0.54237  -0.54083
 Alpha  occ. eigenvalues --   -0.53585  -0.53455  -0.52777  -0.52650  -0.52490
 Alpha  occ. eigenvalues --   -0.52075  -0.52050  -0.52003  -0.51542  -0.51424
 Alpha  occ. eigenvalues --   -0.50742  -0.50498  -0.50306  -0.50057  -0.49734
 Alpha  occ. eigenvalues --   -0.49279  -0.48454  -0.48147  -0.47811  -0.47579
 Alpha  occ. eigenvalues --   -0.47337  -0.47157  -0.46789  -0.46596  -0.46260
 Alpha  occ. eigenvalues --   -0.46123  -0.46027  -0.45699  -0.44812  -0.44477
 Alpha  occ. eigenvalues --   -0.44262  -0.43766  -0.43385  -0.43168  -0.42284
 Alpha  occ. eigenvalues --   -0.41840  -0.41616  -0.40713  -0.40369  -0.38968
 Alpha  occ. eigenvalues --   -0.38934  -0.38225  -0.37931  -0.37816  -0.37655
 Alpha  occ. eigenvalues --   -0.37464  -0.37381  -0.36936  -0.36431  -0.35919
 Alpha  occ. eigenvalues --   -0.35539  -0.35416  -0.32642  -0.31352  -0.30141
 Alpha  occ. eigenvalues --   -0.28218
 Alpha virt. eigenvalues --   -0.03855  -0.02517  -0.02362  -0.00927  -0.00450
 Alpha virt. eigenvalues --    0.00184   0.00889   0.01224   0.01301   0.03024
 Alpha virt. eigenvalues --    0.03701   0.04650   0.04707   0.05855   0.06222
 Alpha virt. eigenvalues --    0.06530   0.07518   0.07719   0.07789   0.08545
 Alpha virt. eigenvalues --    0.08817   0.09156   0.09350   0.09469   0.09885
 Alpha virt. eigenvalues --    0.10093   0.10386   0.10843   0.10994   0.11126
 Alpha virt. eigenvalues --    0.11549   0.11810   0.11978   0.12285   0.12986
 Alpha virt. eigenvalues --    0.13179   0.13646   0.13672   0.13733   0.14254
 Alpha virt. eigenvalues --    0.14425   0.14520   0.14671   0.15057   0.15106
 Alpha virt. eigenvalues --    0.15146   0.15456   0.15598   0.15713   0.16193
 Alpha virt. eigenvalues --    0.16225   0.16352   0.16577   0.16704   0.16776
 Alpha virt. eigenvalues --    0.16851   0.16892   0.17022   0.17162   0.17337
 Alpha virt. eigenvalues --    0.17631   0.17696   0.17988   0.18110   0.18189
 Alpha virt. eigenvalues --    0.18395   0.18435   0.18539   0.18560   0.18734
 Alpha virt. eigenvalues --    0.18789   0.18953   0.19038   0.19145   0.19210
 Alpha virt. eigenvalues --    0.19263   0.19285   0.19421   0.19593   0.19751
 Alpha virt. eigenvalues --    0.20088   0.20193   0.20211   0.20217   0.20257
 Alpha virt. eigenvalues --    0.20438   0.20493   0.20672   0.20697   0.20784
 Alpha virt. eigenvalues --    0.20864   0.20890   0.20996   0.21219   0.21339
 Alpha virt. eigenvalues --    0.21411   0.21466   0.21620   0.21689   0.21751
 Alpha virt. eigenvalues --    0.22002   0.22316   0.22382   0.22648   0.22714
 Alpha virt. eigenvalues --    0.22792   0.23089   0.23273   0.23357   0.23707
 Alpha virt. eigenvalues --    0.23985   0.24015   0.24054   0.24265   0.24340
 Alpha virt. eigenvalues --    0.24610   0.25015   0.25170   0.25389   0.25568
 Alpha virt. eigenvalues --    3.47933   3.48169   3.48410   3.50649   3.50668
          Condensed to atoms (all electrons):
 Mulliken charges:
               1
     1  O   -0.784843
     2  O   -0.489369
     3  C    0.431956
     4  C   -0.343546
     5  C   -0.047750
     6  C   -0.121160
     7  C   -0.102844
     8  C   -0.206379
     9  C   -0.104846
    10  C   -0.210506
    11  C    0.154356
    12  C   -0.264921
    13  C   -0.055786
    14  C    0.248862
    15  C   -0.303651
    16  C   -0.082288
    17  C   -0.053735
    18  C   -0.148224
    19  C   -0.154410
    20  C   -0.134317
    21  C   -0.149659
    22  C    0.061750
    23  H    0.174446
    24  H    0.137146
    25  H    0.136842
    26  H    0.143624
    27  H    0.136253
    28  H    0.159665
    29  H    0.164780
    30  H    0.143263
    31  H    0.144079
    32  H    0.147146
    33  H    0.171670
    34  H    0.371941
    35  H    0.320849
    36  Cl  -0.546753
    37  O   -0.604597
    38  N    0.139304
    39  N   -0.319409
    40  C   -0.208327
    41  C   -0.311479
    42  C   -0.073296
    43  C   -0.313085
    44  C   -0.071454
    45  C   -0.105122
    46  C   -0.231137
    47  C   -0.152571
    48  C   -0.305627
    49  C   -0.304492
    50  C    0.002004
    51  C   -0.185437
    52  C   -0.129720
    53  C   -0.141552
    54  C   -0.122569
    55  C   -0.163428
    56  C    0.141289
    57  C    0.012652
    58  C   -0.102675
    59  C   -0.164954
    60  C   -0.144960
    61  C   -0.137641
    62  C   -0.146452
    63  C    0.138758
    64  C    0.045099
    65  C   -0.230277
    66  H    0.177428
    67  H    0.158323
    68  H    0.156059
    69  H    0.153430
    70  H    0.141497
    71  H    0.153756
    72  H    0.192239
    73  H    0.143464
    74  H    0.238036
    75  H    0.180085
    76  H    0.141235
    77  H    0.174884
    78  H    0.154388
    79  H    0.146229
    80  H    0.149129
    81  H    0.152229
    82  H    0.157155
    83  H    0.184962
    84  H    0.161405
    85  H    0.148068
    86  H    0.151263
    87  H    0.154290
    88  H    0.175768
    89  H    0.169122
    90  H    0.200267
    91  H    0.394337
    92  H    0.148041
    93  H    0.271532
    94  H    0.172857
    95  H    0.146034
 Sum of Mulliken charges =  -0.00000
 Mulliken charges with hydrogens summed into heavy atoms:
               1
     1  O   -0.412902
     2  O   -0.168519
     3  C    0.431956
     4  C   -0.169100
     5  C    0.089396
     6  C   -0.121160
     7  C    0.033998
     8  C   -0.062755
     9  C    0.031406
    10  C   -0.050841
    11  C    0.154356
    12  C   -0.264921
    13  C   -0.055786
    14  C    0.248862
    15  C   -0.138871
    16  C    0.063746
    17  C   -0.053735
    18  C   -0.004961
    19  C   -0.010331
    20  C    0.012828
    21  C    0.022011
    22  C    0.061750
    36  Cl  -0.546753
    37  O   -0.210260
    38  N    0.139304
    39  N   -0.319409
    40  C    0.127424
    41  C   -0.001989
    42  C    0.068200
    43  C    0.032910
    44  C    0.076587
    45  C    0.038342
    46  C    0.186984
    47  C   -0.011336
    48  C    0.023645
    49  C    0.139897
    50  C    0.002004
    51  C   -0.039209
    52  C    0.019410
    53  C    0.010677
    54  C    0.034587
    55  C    0.021534
    56  C    0.302694
    57  C    0.012652
    58  C   -0.102675
    59  C   -0.016886
    60  C    0.006304
    61  C    0.016649
    62  C    0.029316
    63  C    0.138758
    64  C    0.214221
    65  C   -0.030010
 Charge=              0.0000 electrons
 Dipole moment (field-independent basis, Debye):
    X=              9.4138    Y=              5.7555    Z=             -5.5736  Tot=             12.3617
 N-N= 3.793653565885D+03 E-N=-7.208666811416D+03  KE=-2.089711794094D+02
 1\1\GINC-GTX1050TI\FOpt\RPM6\ZDO\C46H43Cl1N2O3\MVEROT\18-Apr-2022\0\\#
 n PM6 Opt\\Optimisation de geometrie\\0,1\O,-2.7816403516,-5.549606450
 3,-3.6820134076\O,-0.966986022,-8.9340565808,-3.8666682916\C,-1.632823
 7907,-5.4795270343,-4.3438549967\C,-1.6192247269,-4.6747524042,-5.5414
 774883\C,-0.4940271336,-4.6054752656,-6.3093741546\C,0.6901716521,-5.3
 235858169,-5.9403439856\C,1.8672130338,-5.2592412829,-6.7465014694\C,3
 .0055236087,-5.9348911147,-6.3811630135\C,3.0180082015,-6.7062378461,-
 5.1842495744\C,1.9002417993,-6.7866935607,-4.3922804678\C,0.6929973852
 ,-6.0998269911,-4.749821765\C,-0.4903073351,-6.1689659961,-3.940816288
 5\C,-0.4553347251,-6.942220498,-2.6893938896\C,-0.6121921627,-8.319513
 2062,-2.677338299\C,-0.4493441488,-9.1075534372,-1.4991985974\C,-0.166
 7037671,-8.481109816,-0.3134349512\C,-0.0451924606,-7.057543497,-0.252
 5393099\C,0.2248575895,-6.3959798878,0.9883744183\C,0.3434603903,-5.03
 07600196,1.03940522\C,0.2001934906,-4.2541962253,-0.1484009404\C,-0.05
 56374014,-4.8617153433,-1.3505317287\C,-0.1885725035,-6.2865716892,-1.
 4376842327\H,-2.5230325071,-4.1234772423,-5.793395772\H,-0.4738078371,
 -3.999968373,-7.2154031782\H,1.8432524412,-4.6613470563,-7.6559913942\
 H,3.9048496911,-5.8903175287,-6.9887937271\H,3.9324789668,-7.228579487
 2,-4.909086832\H,1.9131669216,-7.3734186931,-3.4745317352\H,-0.5562318
 579,-10.1877106446,-1.5579394287\H,0.3332249626,-6.999906465,1.8871724
 131\H,0.5469389804,-4.5193984568,1.9777945295\H,0.2961771076,-3.171430
 8798,-0.0810018073\H,-0.1675500656,-4.2737420976,-2.2647276102\H,-3.44
 25225431,-4.3223457011,-3.6090993767\H,-0.8755589322,-9.9163635531,-3.
 7996594249\Cl,-4.3357154147,-3.23130952,-3.6762375525\O,-3.8567298784,
 -7.0225451945,-1.9699573983\N,-5.8217997633,-7.2583242433,-4.260283150
 8\N,-3.1654949461,-11.5759382855,-0.0649457482\C,-7.1177046386,-7.7318
 835982,-4.9412361965\C,-8.1629489713,-8.1261493065,-3.8859410101\C,-7.
 7024491218,-7.6237391658,-2.5031621622\C,-6.4210861696,-8.3738151881,-
 2.1004975535\C,-5.4017680715,-8.3668581842,-3.2602123853\C,-7.38043967
 52,-6.1096573592,-2.6227501154\C,-6.1082058542,-5.9632372299,-3.489922
 9259\C,-7.219680088,-5.4507476762,-1.2763435166\C,-6.7604347306,-4.212
 7513095,-1.1123198009\C,-4.7330316896,-7.0254844354,-5.3066374703\C,-5
 .2342687859,-6.4287638662,-6.5911419502\C,-5.4731588528,-7.2613163041,
 -7.6978922285\C,-5.9078683144,-6.7110901211,-8.9055511149\C,-6.1046608
 73,-5.3301731571,-9.0188301816\C,-5.8560213595,-4.4998068877,-7.922456
 0562\C,-5.4185200468,-5.0448815891,-6.711548064\C,-3.9389885845,-8.213
 3232388,-2.7275177503\C,-3.6482743362,-9.399461194,-1.8172403315\C,-3.
 3814834041,-10.7015860631,-2.3634971504\C,-3.3017528426,-10.9870014612
 ,-3.7621073788\C,-3.0510965603,-12.2618247114,-4.2047344119\C,-2.86165
 65137,-13.330114909,-3.2785221886\C,-2.9085568681,-13.0944777189,-1.92
 94881502\C,-3.1595921837,-11.767625598,-1.4437280702\C,-3.3814044241,-
 10.3481499463,0.3971179454\C,-3.6327266664,-9.2254318926,-0.4539018174
 \H,-7.5016972249,-6.9057344938,-5.583354323\H,-6.8898403149,-8.5799619
 189,-5.619348846\H,-9.1499422239,-7.6994957794,-4.1478805406\H,-8.3087
 70905,-9.2227076401,-3.8652904649\H,-8.500991434,-7.7928815555,-1.7482
 345745\H,-6.6377038637,-9.4131781486,-1.7972633229\H,-5.9697655423,-7.
 8807395843,-1.2066701043\H,-8.2344083888,-5.6006768295,-3.1405799305\H
 ,-5.2084576345,-5.7469515912,-2.8371020281\H,-6.2016979498,-5.11279799
 63,-4.1977175989\H,-7.5255116837,-6.0582279465,-0.4239432497\H,-6.4265
 108321,-3.5695625645,-1.9202258679\H,-6.6575090452,-3.7442414814,-0.14
 26727867\H,-5.3030615188,-8.3335218511,-7.6275237849\H,-6.0860162613,-
 7.3574581687,-9.7641786763\H,-6.4408619239,-4.9027565169,-9.9627520645
 \H,-5.9922975123,-3.4209769836,-8.0095439187\H,-5.2037400717,-4.379774
 2751,-5.8679588998\H,-3.18616734,-8.1755206623,-3.5584017303\H,-3.4149
 345711,-10.1714815318,-4.4754588228\H,-2.9860750532,-12.4799923755,-5.
 2704485854\H,-2.6725633973,-14.3315986941,-3.6651659469\H,-2.756066216
 4,-13.8894605373,-1.1959777918\H,-3.3652872972,-10.2134428184,1.487024
 3787\H,-3.7872112301,-8.2306353104,-0.0215471781\H,-3.0683773597,-6.42
 26574053,-2.3401961939\H,-5.4602595009,-9.3395244994,-3.8162358285\H,-
 3.9345731926,-6.3358287536,-4.8411842555\H,-4.1925724517,-7.9765035064
 ,-5.5065810384\H,-0.0326343802,-9.0590390835,0.6006904186\\Version=AM6
 4L-G09RevD.01\State=1-A\HF=-0.003438\RMSD=9.416e-09\RMSF=2.992e-06\Dip
 ole=-3.6608402,-2.8819629,-1.3949014\PG=C01 [X(C46H43Cl1N2O3)]\\@


 THERE ARE PEOPLE SO ADDICTED TO EXAGERATING THEY
 CAN'T TELL THE TRUTH WITHOUT LYING. -- FORTUNE COOKIE
 Job cpu time:       0 days  0 hours  1 minutes 45.1 seconds.
 File lengths (MBytes):  RWF=    143 Int=      0 D2E=      0 Chk=     14 Scr=      2
 Normal termination of Gaussian 09 at Mon Apr 18 11:08:41 2022.
