 Entering Gaussian System, Link 0=g09
 Input=/scratch/mverot/CH3Cl_SP/CH3Cl_SP.com
 Output=/scratch/mverot/CH3Cl_SP/CH3Cl_SP.log
 Initial command:
 /opt/g09/l1.exe "/scratch/mverot/CH3Cl_SP/Gau-2628092.inp" -scrdir="/scratch/mverot/CH3Cl_SP/"
 Entering Link 1 = /opt/g09/l1.exe PID=   2628094.
  
 Copyright (c) 1988,1990,1992,1993,1995,1998,2003,2009,2013,
            Gaussian, Inc.  All Rights Reserved.
  
 This is part of the Gaussian(R) 09 program.  It is based on
 the Gaussian(R) 03 system (copyright 2003, Gaussian, Inc.),
 the Gaussian(R) 98 system (copyright 1998, Gaussian, Inc.),
 the Gaussian(R) 94 system (copyright 1995, Gaussian, Inc.),
 the Gaussian 92(TM) system (copyright 1992, Gaussian, Inc.),
 the Gaussian 90(TM) system (copyright 1990, Gaussian, Inc.),
 the Gaussian 88(TM) system (copyright 1988, Gaussian, Inc.),
 the Gaussian 86(TM) system (copyright 1986, Carnegie Mellon
 University), and the Gaussian 82(TM) system (copyright 1983,
 Carnegie Mellon University). Gaussian is a federally registered
 trademark of Gaussian, Inc.
  
 This software contains proprietary and confidential information,
 including trade secrets, belonging to Gaussian, Inc.
  
 This software is provided under written license and may be
 used, copied, transmitted, or stored only in accord with that
 written license.
  
 The following legend is applicable only to US Government
 contracts under FAR:
  
                    RESTRICTED RIGHTS LEGEND
  
 Use, reproduction and disclosure by the US Government is
 subject to restrictions as set forth in subparagraphs (a)
 and (c) of the Commercial Computer Software - Restricted
 Rights clause in FAR 52.227-19.
  
 Gaussian, Inc.
 340 Quinnipiac St., Bldg. 40, Wallingford CT 06492
  
  
 ---------------------------------------------------------------
 Warning -- This program may not be used in any manner that
 competes with the business of Gaussian, Inc. or will provide
 assistance to any competitor of Gaussian, Inc.  The licensee
 of this program is prohibited from giving any competitor of
 Gaussian, Inc. access to this program.  By using this program,
 the user acknowledges that Gaussian, Inc. is engaged in the
 business of creating and licensing software in the field of
 computational chemistry and represents and warrants to the
 licensee that it is not a competitor of Gaussian, Inc. and that
 it will not use this program in any manner prohibited above.
 ---------------------------------------------------------------
  

 Cite this work as:
 Gaussian 09, Revision D.01,
 M. J. Frisch, G. W. Trucks, H. B. Schlegel, G. E. Scuseria, 
 M. A. Robb, J. R. Cheeseman, G. Scalmani, V. Barone, B. Mennucci, 
 G. A. Petersson, H. Nakatsuji, M. Caricato, X. Li, H. P. Hratchian, 
 A. F. Izmaylov, J. Bloino, G. Zheng, J. L. Sonnenberg, M. Hada, 
 M. Ehara, K. Toyota, R. Fukuda, J. Hasegawa, M. Ishida, T. Nakajima, 
 Y. Honda, O. Kitao, H. Nakai, T. Vreven, J. A. Montgomery, Jr., 
 J. E. Peralta, F. Ogliaro, M. Bearpark, J. J. Heyd, E. Brothers, 
 K. N. Kudin, V. N. Staroverov, T. Keith, R. Kobayashi, J. Normand, 
 K. Raghavachari, A. Rendell, J. C. Burant, S. S. Iyengar, J. Tomasi, 
 M. Cossi, N. Rega, J. M. Millam, M. Klene, J. E. Knox, J. B. Cross, 
 V. Bakken, C. Adamo, J. Jaramillo, R. Gomperts, R. E. Stratmann, 
 O. Yazyev, A. J. Austin, R. Cammi, C. Pomelli, J. W. Ochterski, 
 R. L. Martin, K. Morokuma, V. G. Zakrzewski, G. A. Voth, 
 P. Salvador, J. J. Dannenberg, S. Dapprich, A. D. Daniels, 
 O. Farkas, J. B. Foresman, J. V. Ortiz, J. Cioslowski, 
 and D. J. Fox, Gaussian, Inc., Wallingford CT, 2013.
 
 ******************************************
 Gaussian 09:  AM64L-G09RevD.01 24-Apr-2013
                11-Apr-2022 
 ******************************************
 ---------
 #n AM1 SP
 ---------
 1/38=1/1;
 2/12=2,17=6,18=5,40=1/2;
 3/5=2,16=1,25=1,41=700000/1,2,3;
 4/35=1/1;
 5/5=2,35=1,38=5/2;
 6/7=2,8=2,9=2,10=2,28=1/1;
 99/5=1,9=1/99;
 -------------------------------------------------
 Energy of chloromethane using the AM1 hamiltonian
 -------------------------------------------------
 Symbolic Z-matrix:
 Charge =  0 Multiplicity = 1
 6                     0.        0.        0. 
 1                     0.        0.        1.09 
 1                     1.02766   0.       -0.36333 
 1                    -0.51383  -0.88998  -0.36333 
 17                   -0.77481   1.34201  -0.54787 
 
                          Input orientation:                          
 ---------------------------------------------------------------------
 Center     Atomic      Atomic             Coordinates (Angstroms)
 Number     Number       Type             X           Y           Z
 ---------------------------------------------------------------------
      1          6           0        0.000000    0.000000    0.000000
      2          1           0        0.000000    0.000000    1.090000
      3          1           0        1.027662    0.000000   -0.363333
      4          1           0       -0.513831   -0.889981   -0.363333
      5         17           0       -0.774811    1.342012   -0.547874
 ---------------------------------------------------------------------
                    Distance matrix (angstroms):
                    1          2          3          4          5
     1  C    0.000000
     2  H    1.090000   0.000000
     3  H    1.090000   1.779962   0.000000
     4  H    1.090000   1.779962   1.779963   0.000000
     5  Cl   1.643622   2.254764   2.254764   2.254764   0.000000
 Stoichiometry    CH3Cl
 Framework group  C3V[C3(CCl),3SGV(H)]
 Deg. of freedom     3
 Full point group                 C3V     NOp   6
 Largest Abelian subgroup         CS      NOp   2
 Largest concise Abelian subgroup CS      NOp   2
                         Standard orientation:                         
 ---------------------------------------------------------------------
 Center     Atomic      Atomic             Coordinates (Angstroms)
 Number     Number       Type             X           Y           Z
 ---------------------------------------------------------------------
      1          6           0        0.000000   -0.000000   -1.032753
      2          1           0        0.000000    1.027662   -1.396086
      3          1           0       -0.889981   -0.513831   -1.396086
      4          1           0        0.889981   -0.513831   -1.396086
      5         17           0       -0.000000    0.000000    0.610869
 ---------------------------------------------------------------------
 Rotational constants (GHZ):    158.2742982     15.3673186     15.3673186
 Standard basis: VSTO-6G (5D, 7F)
 There are     8 symmetry adapted cartesian basis functions of A'  symmetry.
 There are     3 symmetry adapted cartesian basis functions of A"  symmetry.
 There are     8 symmetry adapted basis functions of A'  symmetry.
 There are     3 symmetry adapted basis functions of A"  symmetry.
    11 basis functions,    66 primitive gaussians,    11 cartesian basis functions
     7 alpha electrons        7 beta electrons
       nuclear repulsion energy        37.4430921265 Hartrees.



 Warning!  Cl atom    5 may be hypervalent but has no d functions.



 Integral buffers will be    131072 words long.
 Regular integral format.
 Two-electron integral symmetry is turned off.
 Do NDO integrals.
 One-electron integrals computed using PRISM.
 NBasis=    11 RedAO= T EigKep=  7.07D-01  NBF=     8     3
 NBsUse=    11 1.00D-06 EigRej= -1.00D+00 NBFU=     8     3
 Simple Huckel Guess.
 Initial guess orbital symmetries:
       Occupied  (A1) (A1) (E) (E) (A1) (E) (E)
       Virtual   (A1) (E) (E) (A1)
 The electronic state of the initial guess is 1-A1.
 Overlap will be assumed to be unity.
 Keep J ints in memory in canonical form, NReq=883806.
 Requested convergence on RMS density matrix=1.00D-08 within 128 cycles.
 Requested convergence on MAX density matrix=1.00D-06.
 Requested convergence on             energy=1.00D-06.
 No special actions if energy rises.
 Fock symm off for IB=2 I1=    1 I=    9 J=    4 Cut=1.00D-07 Err=3.51D-04
 Fock matrix is not symmetric: symmetry in diagonalization turned off.
 SCF Done:  E(RAM1) = -0.237017083216E-01 A.U. after   11 cycles
            NFock= 10  Conv=0.34D-08     -V/T= 0.9972

 **********************************************************************

            Population analysis using the SCF density.

 **********************************************************************

 Orbital symmetries:
       Occupied  (A1) (A1) (E) (E) (A1) (E) (E)
       Virtual   (A1) (E) (E) (A1)
 The electronic state is 1-A1.
 Alpha  occ. eigenvalues --   -1.39861  -1.07671  -0.57080  -0.57080  -0.56377
 Alpha  occ. eigenvalues --   -0.41244  -0.41244
 Alpha virt. eigenvalues --    0.07273   0.14502   0.14502   0.16492
          Condensed to atoms (all electrons):
               1          2          3          4          5
     1  C    4.201437   0.000000   0.000000   0.000000   0.000000
     2  H    0.000000   0.909223   0.000000   0.000000   0.000000
     3  H    0.000000   0.000000   0.909223   0.000000   0.000000
     4  H    0.000000   0.000000   0.000000   0.909223   0.000000
     5  Cl   0.000000   0.000000   0.000000   0.000000   7.070894
 Mulliken charges:
               1
     1  C   -0.201437
     2  H    0.090777
     3  H    0.090777
     4  H    0.090777
     5  Cl  -0.070894
 Sum of Mulliken charges =  -0.00000
 Mulliken charges with hydrogens summed into heavy atoms:
               1
     1  C    0.070894
     5  Cl  -0.070894
 Charge=             -0.0000 electrons
 Dipole moment (field-independent basis, Debye):
    X=             -0.0000    Y=             -0.0000    Z=             -1.1681  Tot=              1.1681
 N-N= 3.744309212648D+01 E-N=-5.648839351188D+01  KE=-8.434069944372D+00
 Symmetry A'   KE=-6.811785270844D+00
 Symmetry A"   KE=-1.622284673528D+00
 1\1\GINC-GTX1080DELTA\SP\RAM1\ZDO\C1H3Cl1\MVEROT\11-Apr-2022\0\\#n AM1
  SP\\Energy of chloromethane using the AM1 hamiltonian\\0,1\C,0,0.,0.,
 0.\H,0,0.,0.,1.09\H,0,1.027662,0.,-0.363333\H,0,-0.513831,-0.889981,-0
 .363333\Cl,0,-0.774811,1.342012,-0.547874\\Version=AM64L-G09RevD.01\St
 ate=1-A1\HF=-0.0237017\RMSD=3.422e-09\Dipole=0.2166374,-0.3752269,0.15
 31858\PG=C03V [C3(C1Cl1),3SGV(H1)]\\@


 THE ATTENTION SPAN OF A COMPUTER IS AS LONG
 AS ITS EXTENSION CORD.
 Job cpu time:       0 days  0 hours  0 minutes  0.8 seconds.
 File lengths (MBytes):  RWF=     67 Int=      0 D2E=      0 Chk=      2 Scr=      2
 Normal termination of Gaussian 09 at Mon Apr 11 13:16:14 2022.
