 Entering Gaussian System, Link 0=g09
 Input=/scratch/mverot/anthracene-2-7-opt/anthracene-2-7-opt.com
 Output=/scratch/mverot/anthracene-2-7-opt/anthracene-2-7-opt.log
 Initial command:
 /opt/g09/l1.exe "/scratch/mverot/anthracene-2-7-opt/Gau-2804535.inp" -scrdir="/scratch/mverot/anthracene-2-7-opt/"
 Entering Link 1 = /opt/g09/l1.exe PID=   2804537.
  
 Copyright (c) 1988,1990,1992,1993,1995,1998,2003,2009,2013,
            Gaussian, Inc.  All Rights Reserved.
  
 This is part of the Gaussian(R) 09 program.  It is based on
 the Gaussian(R) 03 system (copyright 2003, Gaussian, Inc.),
 the Gaussian(R) 98 system (copyright 1998, Gaussian, Inc.),
 the Gaussian(R) 94 system (copyright 1995, Gaussian, Inc.),
 the Gaussian 92(TM) system (copyright 1992, Gaussian, Inc.),
 the Gaussian 90(TM) system (copyright 1990, Gaussian, Inc.),
 the Gaussian 88(TM) system (copyright 1988, Gaussian, Inc.),
 the Gaussian 86(TM) system (copyright 1986, Carnegie Mellon
 University), and the Gaussian 82(TM) system (copyright 1983,
 Carnegie Mellon University). Gaussian is a federally registered
 trademark of Gaussian, Inc.
  
 This software contains proprietary and confidential information,
 including trade secrets, belonging to Gaussian, Inc.
  
 This software is provided under written license and may be
 used, copied, transmitted, or stored only in accord with that
 written license.
  
 The following legend is applicable only to US Government
 contracts under FAR:
  
                    RESTRICTED RIGHTS LEGEND
  
 Use, reproduction and disclosure by the US Government is
 subject to restrictions as set forth in subparagraphs (a)
 and (c) of the Commercial Computer Software - Restricted
 Rights clause in FAR 52.227-19.
  
 Gaussian, Inc.
 340 Quinnipiac St., Bldg. 40, Wallingford CT 06492
  
  
 ---------------------------------------------------------------
 Warning -- This program may not be used in any manner that
 competes with the business of Gaussian, Inc. or will provide
 assistance to any competitor of Gaussian, Inc.  The licensee
 of this program is prohibited from giving any competitor of
 Gaussian, Inc. access to this program.  By using this program,
 the user acknowledges that Gaussian, Inc. is engaged in the
 business of creating and licensing software in the field of
 computational chemistry and represents and warrants to the
 licensee that it is not a competitor of Gaussian, Inc. and that
 it will not use this program in any manner prohibited above.
 ---------------------------------------------------------------
  

 Cite this work as:
 Gaussian 09, Revision D.01,
 M. J. Frisch, G. W. Trucks, H. B. Schlegel, G. E. Scuseria, 
 M. A. Robb, J. R. Cheeseman, G. Scalmani, V. Barone, B. Mennucci, 
 G. A. Petersson, H. Nakatsuji, M. Caricato, X. Li, H. P. Hratchian, 
 A. F. Izmaylov, J. Bloino, G. Zheng, J. L. Sonnenberg, M. Hada, 
 M. Ehara, K. Toyota, R. Fukuda, J. Hasegawa, M. Ishida, T. Nakajima, 
 Y. Honda, O. Kitao, H. Nakai, T. Vreven, J. A. Montgomery, Jr., 
 J. E. Peralta, F. Ogliaro, M. Bearpark, J. J. Heyd, E. Brothers, 
 K. N. Kudin, V. N. Staroverov, T. Keith, R. Kobayashi, J. Normand, 
 K. Raghavachari, A. Rendell, J. C. Burant, S. S. Iyengar, J. Tomasi, 
 M. Cossi, N. Rega, J. M. Millam, M. Klene, J. E. Knox, J. B. Cross, 
 V. Bakken, C. Adamo, J. Jaramillo, R. Gomperts, R. E. Stratmann, 
 O. Yazyev, A. J. Austin, R. Cammi, C. Pomelli, J. W. Ochterski, 
 R. L. Martin, K. Morokuma, V. G. Zakrzewski, G. A. Voth, 
 P. Salvador, J. J. Dannenberg, S. Dapprich, A. D. Daniels, 
 O. Farkas, J. B. Foresman, J. V. Ortiz, J. Cioslowski, 
 and D. J. Fox, Gaussian, Inc., Wallingford CT, 2013.
 
 ******************************************
 Gaussian 09:  AM64L-G09RevD.01 24-Apr-2013
                11-Apr-2022 
 ******************************************
 %chk=anthracene-2-7-opt
 ----------
 #n AM1 Opt
 ----------
 1/14=-1,18=20,19=15,26=1,38=1/1,3;
 2/9=110,12=2,17=6,18=5,40=1/2;
 3/5=2,16=1,25=1,41=700000,71=1/1,2,3;
 4/35=1/1;
 5/5=2,35=1,38=5/2;
 6/7=2,8=2,9=2,10=2,28=1/1;
 7//1,2,3,16;
 1/14=-1,18=20,19=15,26=1/3(2);
 2/9=110/2;
 99//99;
 2/9=110/2;
 3/5=2,16=1,25=1,41=700000,71=1,135=20/1,2,3;
 4/5=5,16=3,35=1/1;
 5/5=2,35=1,38=5/2;
 7//1,2,3,16;
 1/14=-1,18=20,19=15,26=1/3(-5);
 2/9=110/2;
 6/7=2,8=2,9=2,10=2,19=2,28=1/1;
 99/9=1/99;
 ---------------------
 Geometry optimization
 ---------------------
 Symbolic Z-matrix:
 Charge =  0 Multiplicity = 1
 C                     0.00418   1.44195   0.00028 
 C                     1.27422   0.68824   0.00015 
 C                    -1.2728    0.70006   0.00011 
 O                     0.00986   2.66691   0.00052 
 C                    -0.00923  -1.44771  -0.00035 
 C                    -1.27894  -0.69447  -0.00019 
 O                    -0.01492  -2.67325  -0.00064 
 C                     1.26742  -0.70629  -0.00016 
 C                     2.49107   1.37994   0.00035 
 C                    -2.49618  -1.39026  -0.00034 
 C                     2.47815  -1.41335  -0.00028 
 C                    -2.48317   1.40302   0.00025 
 C                     3.68648   0.66825   0.00024 
 C                     3.69214  -0.7233   -0.00008 
 C                    -3.68514   0.70246   0.0001 
 C                    -3.70372  -0.68898  -0.00019 
 H                     2.51104   2.46784   0.0006 
 H                    -2.50631  -2.47911  -0.00057 
 H                     2.47817  -2.50224  -0.00052 
 H                    -2.49305   2.49106   0.00048 
 H                     4.62229  -1.28412  -0.00017 
 H                    -4.63903  -1.24115  -0.0003 
 O                     4.84768   1.3809    0.00045 
 H                     5.60069   0.76688   0.00035 
 O                    -4.83967   1.42585   0.00026 
 H                    -5.59835   0.81885   0.00013 
 

 GradGradGradGradGradGradGradGradGradGradGradGradGradGradGradGradGradGrad
 Berny optimization.
 Initialization pass.
                           ----------------------------
                           !    Initial Parameters    !
                           ! (Angstroms and Degrees)  !
 --------------------------                            --------------------------
 ! Name  Definition              Value          Derivative Info.                !
 --------------------------------------------------------------------------------
 ! R1    R(1,2)                  1.4768         estimate D2E/DX2                !
 ! R2    R(1,3)                  1.4768         estimate D2E/DX2                !
 ! R3    R(1,4)                  1.225          estimate D2E/DX2                !
 ! R4    R(2,8)                  1.3945         estimate D2E/DX2                !
 ! R5    R(2,9)                  1.3997         estimate D2E/DX2                !
 ! R6    R(3,6)                  1.3945         estimate D2E/DX2                !
 ! R7    R(3,12)                 1.3997         estimate D2E/DX2                !
 ! R8    R(5,6)                  1.4763         estimate D2E/DX2                !
 ! R9    R(5,7)                  1.2256         estimate D2E/DX2                !
 ! R10   R(5,8)                  1.4763         estimate D2E/DX2                !
 ! R11   R(6,10)                 1.4021         estimate D2E/DX2                !
 ! R12   R(8,11)                 1.4021         estimate D2E/DX2                !
 ! R13   R(9,13)                 1.3912         estimate D2E/DX2                !
 ! R14   R(9,17)                 1.0881         estimate D2E/DX2                !
 ! R15   R(10,16)                1.3964         estimate D2E/DX2                !
 ! R16   R(10,18)                1.0889         estimate D2E/DX2                !
 ! R17   R(11,14)                1.3964         estimate D2E/DX2                !
 ! R18   R(11,19)                1.0889         estimate D2E/DX2                !
 ! R19   R(12,15)                1.3912         estimate D2E/DX2                !
 ! R20   R(12,20)                1.0881         estimate D2E/DX2                !
 ! R21   R(13,14)                1.3916         estimate D2E/DX2                !
 ! R22   R(13,23)                1.3624         estimate D2E/DX2                !
 ! R23   R(14,21)                1.0861         estimate D2E/DX2                !
 ! R24   R(15,16)                1.3916         estimate D2E/DX2                !
 ! R25   R(15,25)                1.3624         estimate D2E/DX2                !
 ! R26   R(16,22)                1.0861         estimate D2E/DX2                !
 ! R27   R(23,24)                0.9716         estimate D2E/DX2                !
 ! R28   R(25,26)                0.9716         estimate D2E/DX2                !
 ! A1    A(2,1,3)              119.1574         estimate D2E/DX2                !
 ! A2    A(2,1,4)              120.4215         estimate D2E/DX2                !
 ! A3    A(3,1,4)              120.4211         estimate D2E/DX2                !
 ! A4    A(1,2,8)              120.4078         estimate D2E/DX2                !
 ! A5    A(1,2,9)              119.6974         estimate D2E/DX2                !
 ! A6    A(8,2,9)              119.8948         estimate D2E/DX2                !
 ! A7    A(1,3,6)              120.4077         estimate D2E/DX2                !
 ! A8    A(1,3,12)             119.6974         estimate D2E/DX2                !
 ! A9    A(6,3,12)             119.8949         estimate D2E/DX2                !
 ! A10   A(6,5,7)              120.412          estimate D2E/DX2                !
 ! A11   A(6,5,8)              119.1759         estimate D2E/DX2                !
 ! A12   A(7,5,8)              120.4121         estimate D2E/DX2                !
 ! A13   A(3,6,5)              120.4258         estimate D2E/DX2                !
 ! A14   A(3,6,10)             120.0051         estimate D2E/DX2                !
 ! A15   A(5,6,10)             119.5691         estimate D2E/DX2                !
 ! A16   A(2,8,5)              120.4254         estimate D2E/DX2                !
 ! A17   A(2,8,11)             120.0053         estimate D2E/DX2                !
 ! A18   A(5,8,11)             119.5692         estimate D2E/DX2                !
 ! A19   A(2,9,13)             119.617          estimate D2E/DX2                !
 ! A20   A(2,9,17)             120.667          estimate D2E/DX2                !
 ! A21   A(13,9,17)            119.7159         estimate D2E/DX2                !
 ! A22   A(6,10,16)            120.1012         estimate D2E/DX2                !
 ! A23   A(6,10,18)            120.2859         estimate D2E/DX2                !
 ! A24   A(16,10,18)           119.6129         estimate D2E/DX2                !
 ! A25   A(8,11,14)            120.1007         estimate D2E/DX2                !
 ! A26   A(8,11,19)            120.2858         estimate D2E/DX2                !
 ! A27   A(14,11,19)           119.6135         estimate D2E/DX2                !
 ! A28   A(3,12,15)            119.6173         estimate D2E/DX2                !
 ! A29   A(3,12,20)            120.6675         estimate D2E/DX2                !
 ! A30   A(15,12,20)           119.7152         estimate D2E/DX2                !
 ! A31   A(9,13,14)            121.0006         estimate D2E/DX2                !
 ! A32   A(9,13,23)            117.6942         estimate D2E/DX2                !
 ! A33   A(14,13,23)           121.3052         estimate D2E/DX2                !
 ! A34   A(11,14,13)           119.3815         estimate D2E/DX2                !
 ! A35   A(11,14,21)           119.2982         estimate D2E/DX2                !
 ! A36   A(13,14,21)           121.3203         estimate D2E/DX2                !
 ! A37   A(12,15,16)           121.0005         estimate D2E/DX2                !
 ! A38   A(12,15,25)           117.6946         estimate D2E/DX2                !
 ! A39   A(16,15,25)           121.3049         estimate D2E/DX2                !
 ! A40   A(10,16,15)           119.3809         estimate D2E/DX2                !
 ! A41   A(10,16,22)           119.2982         estimate D2E/DX2                !
 ! A42   A(15,16,22)           121.321          estimate D2E/DX2                !
 ! A43   A(13,23,24)           109.2673         estimate D2E/DX2                !
 ! A44   A(15,25,26)           109.2677         estimate D2E/DX2                !
 ! D1    D(3,1,2,8)              0.0014         estimate D2E/DX2                !
 ! D2    D(3,1,2,9)           -179.9981         estimate D2E/DX2                !
 ! D3    D(4,1,2,8)           -179.9982         estimate D2E/DX2                !
 ! D4    D(4,1,2,9)              0.0022         estimate D2E/DX2                !
 ! D5    D(2,1,3,6)             -0.001          estimate D2E/DX2                !
 ! D6    D(2,1,3,12)           179.9991         estimate D2E/DX2                !
 ! D7    D(4,1,3,6)            179.9987         estimate D2E/DX2                !
 ! D8    D(4,1,3,12)            -0.0012         estimate D2E/DX2                !
 ! D9    D(1,2,8,5)             -0.0006         estimate D2E/DX2                !
 ! D10   D(1,2,8,11)          -179.9999         estimate D2E/DX2                !
 ! D11   D(9,2,8,5)            179.999          estimate D2E/DX2                !
 ! D12   D(9,2,8,11)            -0.0004         estimate D2E/DX2                !
 ! D13   D(1,2,9,13)           179.9994         estimate D2E/DX2                !
 ! D14   D(1,2,9,17)             0.0            estimate D2E/DX2                !
 ! D15   D(8,2,9,13)            -0.0001         estimate D2E/DX2                !
 ! D16   D(8,2,9,17)          -179.9995         estimate D2E/DX2                !
 ! D17   D(1,3,6,5)             -0.0004         estimate D2E/DX2                !
 ! D18   D(1,3,6,10)           179.9995         estimate D2E/DX2                !
 ! D19   D(12,3,6,5)           179.9996         estimate D2E/DX2                !
 ! D20   D(12,3,6,10)           -0.0005         estimate D2E/DX2                !
 ! D21   D(1,3,12,15)         -179.9995         estimate D2E/DX2                !
 ! D22   D(1,3,12,20)            0.0002         estimate D2E/DX2                !
 ! D23   D(6,3,12,15)            0.0006         estimate D2E/DX2                !
 ! D24   D(6,3,12,20)         -179.9998         estimate D2E/DX2                !
 ! D25   D(7,5,6,3)           -179.9986         estimate D2E/DX2                !
 ! D26   D(7,5,6,10)             0.0015         estimate D2E/DX2                !
 ! D27   D(8,5,6,3)              0.0013         estimate D2E/DX2                !
 ! D28   D(8,5,6,10)          -179.9987         estimate D2E/DX2                !
 ! D29   D(6,5,8,2)             -0.0008         estimate D2E/DX2                !
 ! D30   D(6,5,8,11)           179.9986         estimate D2E/DX2                !
 ! D31   D(7,5,8,2)            179.999          estimate D2E/DX2                !
 ! D32   D(7,5,8,11)            -0.0016         estimate D2E/DX2                !
 ! D33   D(3,6,10,16)            0.0            estimate D2E/DX2                !
 ! D34   D(3,6,10,18)         -179.9997         estimate D2E/DX2                !
 ! D35   D(5,6,10,16)          179.9999         estimate D2E/DX2                !
 ! D36   D(5,6,10,18)            0.0002         estimate D2E/DX2                !
 ! D37   D(2,8,11,14)            0.0005         estimate D2E/DX2                !
 ! D38   D(2,8,11,19)          179.9999         estimate D2E/DX2                !
 ! D39   D(5,8,11,14)         -179.9989         estimate D2E/DX2                !
 ! D40   D(5,8,11,19)            0.0005         estimate D2E/DX2                !
 ! D41   D(2,9,13,14)            0.0007         estimate D2E/DX2                !
 ! D42   D(2,9,13,23)         -179.9996         estimate D2E/DX2                !
 ! D43   D(17,9,13,14)        -179.9999         estimate D2E/DX2                !
 ! D44   D(17,9,13,23)          -0.0002         estimate D2E/DX2                !
 ! D45   D(6,10,16,15)           0.0004         estimate D2E/DX2                !
 ! D46   D(6,10,16,22)        -179.9995         estimate D2E/DX2                !
 ! D47   D(18,10,16,15)       -179.9998         estimate D2E/DX2                !
 ! D48   D(18,10,16,22)          0.0003         estimate D2E/DX2                !
 ! D49   D(8,11,14,13)           0.0001         estimate D2E/DX2                !
 ! D50   D(8,11,14,21)         179.9996         estimate D2E/DX2                !
 ! D51   D(19,11,14,13)       -179.9994         estimate D2E/DX2                !
 ! D52   D(19,11,14,21)          0.0002         estimate D2E/DX2                !
 ! D53   D(3,12,15,16)          -0.0001         estimate D2E/DX2                !
 ! D54   D(3,12,15,25)         179.9993         estimate D2E/DX2                !
 ! D55   D(20,12,15,16)       -179.9998         estimate D2E/DX2                !
 ! D56   D(20,12,15,25)         -0.0004         estimate D2E/DX2                !
 ! D57   D(9,13,14,11)          -0.0006         estimate D2E/DX2                !
 ! D58   D(9,13,14,21)         179.9998         estimate D2E/DX2                !
 ! D59   D(23,13,14,11)        179.9997         estimate D2E/DX2                !
 ! D60   D(23,13,14,21)          0.0001         estimate D2E/DX2                !
 ! D61   D(9,13,23,24)         179.9996         estimate D2E/DX2                !
 ! D62   D(14,13,23,24)         -0.0007         estimate D2E/DX2                !
 ! D63   D(12,15,16,10)         -0.0004         estimate D2E/DX2                !
 ! D64   D(12,15,16,22)        179.9995         estimate D2E/DX2                !
 ! D65   D(25,15,16,10)       -179.9997         estimate D2E/DX2                !
 ! D66   D(25,15,16,22)          0.0001         estimate D2E/DX2                !
 ! D67   D(12,15,25,26)       -180.0            estimate D2E/DX2                !
 ! D68   D(16,15,25,26)         -0.0006         estimate D2E/DX2                !
 --------------------------------------------------------------------------------
 Trust Radius=3.00D-01 FncErr=1.00D-07 GrdErr=1.00D-07
 Number of steps in this run=    150 maximum allowed number of steps=    156.
 GradGradGradGradGradGradGradGradGradGradGradGradGradGradGradGradGradGrad

                          Input orientation:                          
 ---------------------------------------------------------------------
 Center     Atomic      Atomic             Coordinates (Angstroms)
 Number     Number       Type             X           Y           Z
 ---------------------------------------------------------------------
      1          6           0        0.004180    1.441950    0.000280
      2          6           0        1.274220    0.688240    0.000150
      3          6           0       -1.272800    0.700060    0.000110
      4          8           0        0.009860    2.666910    0.000520
      5          6           0       -0.009230   -1.447710   -0.000350
      6          6           0       -1.278940   -0.694470   -0.000190
      7          8           0       -0.014920   -2.673250   -0.000640
      8          6           0        1.267420   -0.706290   -0.000160
      9          6           0        2.491070    1.379940    0.000350
     10          6           0       -2.496180   -1.390260   -0.000340
     11          6           0        2.478150   -1.413350   -0.000280
     12          6           0       -2.483170    1.403020    0.000250
     13          6           0        3.686480    0.668250    0.000240
     14          6           0        3.692140   -0.723300   -0.000080
     15          6           0       -3.685140    0.702460    0.000100
     16          6           0       -3.703720   -0.688980   -0.000190
     17          1           0        2.511040    2.467840    0.000600
     18          1           0       -2.506310   -2.479110   -0.000570
     19          1           0        2.478170   -2.502240   -0.000520
     20          1           0       -2.493050    2.491060    0.000480
     21          1           0        4.622290   -1.284120   -0.000170
     22          1           0       -4.639030   -1.241150   -0.000300
     23          8           0        4.847680    1.380900    0.000450
     24          1           0        5.600690    0.766880    0.000350
     25          8           0       -4.839670    1.425850    0.000260
     26          1           0       -5.598350    0.818850    0.000130
 ---------------------------------------------------------------------
                    Distance matrix (angstroms):
                    1          2          3          4          5
     1  C    0.000000
     2  C    1.476848   0.000000
     3  C    1.476848   2.547047   0.000000
     4  O    1.224973   2.348136   2.348130   0.000000
     5  C    2.889691   2.491892   2.491892   4.114664   0.000000
     6  C    2.492125   2.903535   1.394544   3.599984   1.476324
     7  O    4.115244   3.600208   3.600206   5.340218   1.225553
     8  C    2.492130   1.394547   2.903539   3.599991   1.476326
     9  C    2.487663   1.399705   3.824782   2.795120   3.774534
    10  C    3.777991   4.305355   2.422003   4.768738   2.487613
    11  C    3.777998   2.422009   4.305360   4.768750   2.487617
    12  C    2.487655   3.824773   1.399696   2.795106   3.774525
    13  C    3.762704   2.412343   4.959382   4.184755   4.258587
    14  C    4.276606   2.799783   5.164938   5.005268   3.771592
    15  C    3.762702   4.959380   2.412341   4.184745   4.258585
    16  C    4.276609   5.164942   2.799786   5.005265   3.771595
    17  H    2.708652   2.167187   4.176421   2.509090   4.656532
    18  H    4.655886   4.931989   3.410083   5.728231   2.701702
    19  H    4.655885   3.410082   4.931988   5.728234   2.701702
    20  H    2.708651   4.176420   2.167185   2.509080   4.656530
    21  H    5.362686   3.885843   6.220053   6.073315   4.634408
    22  H    5.362688   6.220054   3.885846   6.073311   4.634406
    23  O    4.843885   3.639972   6.158232   5.005829   5.620552
    24  H    5.637078   4.327185   6.873815   5.904870   6.031220
    25  O    4.843877   6.158224   3.639963   5.005814   5.620543
    26  H    5.637073   6.873811   4.327181   5.904858   6.031215
                    6          7          8          9         10
     6  C    0.000000
     7  O    2.348045   0.000000
     8  C    2.546387   2.348048   0.000000
     9  C    4.303040   4.765326   2.418610   0.000000
    10  C    1.402069   2.793334   3.825245   5.704969   0.000000
    11  C    3.825247   2.793340   1.402070   2.793320   4.974384
    12  C    2.418602   4.765316   4.303035   4.974294   2.793310
    13  C    5.149019   4.986580   2.782303   1.391225   6.516345
    14  C    4.971164   4.188627   2.424780   2.422021   6.224158
    15  C    2.782303   4.986575   5.149022   6.213256   2.406887
    16  C    2.424786   4.188624   4.971170   6.531145   1.396405
    17  H    4.936006   5.728113   3.409060   1.088083   6.321170
    18  H    2.165959   2.498943   4.169404   6.313959   1.088897
    19  H    4.169401   2.498948   2.165953   3.882202   5.097122
    20  H    3.409056   5.728109   4.936009   5.106470   3.881321
    21  H    5.930616   4.840806   3.404268   3.411644   7.119261
    22  H    3.404271   4.840796   5.930618   7.596607   2.148032
    23  O    6.468588   6.330957   4.144228   2.356610   7.849306
    24  H    7.033125   6.585558   4.576839   3.169476   8.379293
    25  O    4.144219   6.330943   6.468583   7.330884   3.663662
    26  H    4.576837   6.585549   7.033125   8.108856   3.808363
                   11         12         13         14         15
    11  C    0.000000
    12  C    5.704966   0.000000
    13  C    2.406890   6.213249   0.000000
    14  C    1.396403   6.531132   1.391562   0.000000
    15  C    6.516348   1.391228   7.371699   7.513791   0.000000
    16  C    6.224165   2.422025   7.513796   7.395940   1.391564
    17  H    3.881329   5.106464   2.149461   3.402701   6.442764
    18  H    5.097125   3.882199   6.946692   6.442333   3.392938
    19  H    1.088890   6.313949   3.392937   2.153683   6.946689
    20  H    6.321175   1.088085   6.442766   6.970559   2.149458
    21  H    2.148031   7.596597   2.165061   1.086139   8.541656
    22  H    7.119263   3.411652   8.541658   8.347249   2.165070
    23  O    3.663674   7.330883   1.362445   2.400610   8.559749
    24  H    3.808367   8.108851   1.916749   2.421404   9.286053
    25  O    7.849302   2.356611   8.559742   8.798331   1.362436
    26  H    8.379294   3.169480   9.286051   9.417613   1.916747
                   16         17         18         19         20
    16  C    0.000000
    17  H    6.970563   0.000000
    18  H    2.153684   7.046000   0.000000
    19  H    6.442335   4.970189   4.984534   0.000000
    20  H    3.402701   5.004144   4.970188   7.045997   0.000000
    21  H    8.347253   4.305181   7.228066   2.465982   8.054815
    22  H    1.086138   8.054819   2.465976   7.228062   4.305186
    23  O    8.798343   2.577077   8.305471   4.548995   7.424202
    24  H    9.417620   3.526925   8.732692   4.520761   8.275350
    25  O    2.400602   7.424196   4.548987   8.305460   2.577072
    26  H    2.421399   8.275347   4.520758   8.732687   3.526921
                   21         22         23         24         25
    21  H    0.000000
    22  H    9.261420   0.000000
    23  O    2.674534   9.842399   0.000000
    24  H    2.272415  10.434752   0.971620   0.000000
    25  O    9.842389   2.674537   9.687454  10.461136   0.000000
    26  H   10.434748   2.272421  10.461140  11.199161   0.971619
                   26
    26  H    0.000000
 Stoichiometry    C14H8O4
 Framework group  C1[X(C14H8O4)]
 Deg. of freedom    72
 Full point group                 C1      NOp   1
 Largest Abelian subgroup         C1      NOp   1
 Largest concise Abelian subgroup C1      NOp   1
                         Standard orientation:                         
 ---------------------------------------------------------------------
 Center     Atomic      Atomic             Coordinates (Angstroms)
 Number     Number       Type             X           Y           Z
 ---------------------------------------------------------------------
      1          6           0        0.000000   -1.272942   -0.000036
      2          6           0       -1.273523   -0.525134   -0.000022
      3          6           0        1.273524   -0.525135   -0.000017
      4          8           0        0.000004   -2.497916   -0.000068
      5          6           0        0.000002    1.616749   -0.000023
      6          6           0        1.273193    0.869409   -0.000007
      7          8           0        0.000005    2.842302   -0.000041
      8          6           0       -1.273194    0.869413   -0.000022
      9          6           0       -2.487151   -1.222473    0.000001
     10          6           0        2.487191    1.570839    0.000021
     11          6           0       -2.487192    1.570847   -0.000008
     12          6           0        2.487143   -1.222471   -0.000010
     13          6           0       -3.685850   -0.516337    0.000027
     14          6           0       -3.697967    0.875172    0.000016
     15          6           0        3.685849   -0.516341    0.000018
     16          6           0        3.697972    0.875170    0.000037
     17          1           0       -2.502072   -2.310454    0.000009
     18          1           0        2.492269    2.659725    0.000033
     19          1           0       -2.492265    2.659726   -0.000006
     20          1           0        2.502071   -2.310453   -0.000022
     21          1           0       -4.630709    1.431669    0.000034
     22          1           0        4.630710    1.431674    0.000068
     23          8           0       -4.843731   -1.234368    0.000057
     24          1           0       -5.599582   -0.623848    0.000079
     25          8           0        4.843723   -1.234366    0.000039
     26          1           0        5.599579   -0.623852    0.000058
 ---------------------------------------------------------------------
 Rotational constants (GHZ):      1.0045039      0.2644431      0.2093343
 Standard basis: VSTO-6G (5D, 7F)
 There are    80 symmetry adapted cartesian basis functions of A   symmetry.
 There are    80 symmetry adapted basis functions of A   symmetry.
    80 basis functions,   480 primitive gaussians,    80 cartesian basis functions
    44 alpha electrons       44 beta electrons
       nuclear repulsion energy       659.4037030875 Hartrees.
 Integral buffers will be    131072 words long.
 Regular integral format.
 Two-electron integral symmetry is turned off.
 Do NDO integrals.
 One-electron integrals computed using PRISM.
 NBasis=    80 RedAO= F EigKep=  0.00D+00  NBF=    80
 NBsUse=    80 1.00D-04 EigRej=  0.00D+00 NBFU=    80
 Simple Huckel Guess.
 Overlap will be assumed to be unity.
 Keep J ints in memory in canonical form, NReq=933890.
 Requested convergence on RMS density matrix=1.00D-08 within 128 cycles.
 Requested convergence on MAX density matrix=1.00D-06.
 Requested convergence on             energy=1.00D-06.
 No special actions if energy rises.
 SCF Done:  E(RAM1) = -0.145473375628     A.U. after   16 cycles
            NFock= 15  Conv=0.35D-08     -V/T= 0.9977

 **********************************************************************

            Population analysis using the SCF density.

 **********************************************************************

 Orbital symmetries:
       Occupied  (A) (A) (A) (A) (A) (A) (A) (A) (A) (A) (A) (A)
                 (A) (A) (A) (A) (A) (A) (A) (A) (A) (A) (A) (A)
                 (A) (A) (A) (A) (A) (A) (A) (A) (A) (A) (A) (A)
                 (A) (A) (A) (A) (A) (A) (A) (A)
       Virtual   (A) (A) (A) (A) (A) (A) (A) (A) (A) (A) (A) (A)
                 (A) (A) (A) (A) (A) (A) (A) (A) (A) (A) (A) (A)
                 (A) (A) (A) (A) (A) (A) (A) (A) (A) (A) (A) (A)
 The electronic state is 1-A.
 Alpha  occ. eigenvalues --   -1.54928  -1.50162  -1.46662  -1.46190  -1.39091
 Alpha  occ. eigenvalues --   -1.37365  -1.22917  -1.18805  -1.16820  -1.12430
 Alpha  occ. eigenvalues --   -0.99472  -0.93584  -0.90680  -0.85490  -0.81492
 Alpha  occ. eigenvalues --   -0.78173  -0.72807  -0.69523  -0.69171  -0.63285
 Alpha  occ. eigenvalues --   -0.63265  -0.62260  -0.60343  -0.60176  -0.58753
 Alpha  occ. eigenvalues --   -0.57524  -0.56148  -0.56135  -0.55264  -0.54902
 Alpha  occ. eigenvalues --   -0.54874  -0.53265  -0.52351  -0.50869  -0.48150
 Alpha  occ. eigenvalues --   -0.47168  -0.46393  -0.46002  -0.41456  -0.39949
 Alpha  occ. eigenvalues --   -0.38153  -0.37953  -0.35747  -0.35304
 Alpha virt. eigenvalues --   -0.04975  -0.01524  -0.00901  -0.00065   0.04670
 Alpha virt. eigenvalues --    0.05415   0.07984   0.08208   0.09353   0.09577
 Alpha virt. eigenvalues --    0.10400   0.10865   0.12105   0.12510   0.12519
 Alpha virt. eigenvalues --    0.13063   0.13476   0.13723   0.14251   0.14601
 Alpha virt. eigenvalues --    0.14822   0.15771   0.16874   0.16907   0.17031
 Alpha virt. eigenvalues --    0.17407   0.17470   0.17758   0.17798   0.18549
 Alpha virt. eigenvalues --    0.19228   0.19264   0.21570   0.21583   0.22539
 Alpha virt. eigenvalues --    0.23434
          Condensed to atoms (all electrons):
               1          2          3          4          5          6
     1  C    3.696384   0.000000   0.000000   0.000000   0.000000   0.000000
     2  C    0.000000   4.071828   0.000000   0.000000   0.000000   0.000000
     3  C    0.000000   0.000000   4.071826   0.000000   0.000000   0.000000
     4  O    0.000000   0.000000   0.000000   6.268962   0.000000   0.000000
     5  C    0.000000   0.000000   0.000000   0.000000   3.686326   0.000000
     6  C    0.000000   0.000000   0.000000   0.000000   0.000000   4.147695
     7  O    0.000000   0.000000   0.000000   0.000000   0.000000   0.000000
     8  C    0.000000   0.000000   0.000000   0.000000   0.000000   0.000000
     9  C    0.000000   0.000000   0.000000   0.000000   0.000000   0.000000
    10  C    0.000000   0.000000   0.000000   0.000000   0.000000   0.000000
    11  C    0.000000   0.000000   0.000000   0.000000   0.000000   0.000000
    12  C    0.000000   0.000000   0.000000   0.000000   0.000000   0.000000
    13  C    0.000000   0.000000   0.000000   0.000000   0.000000   0.000000
    14  C    0.000000   0.000000   0.000000   0.000000   0.000000   0.000000
    15  C    0.000000   0.000000   0.000000   0.000000   0.000000   0.000000
    16  C    0.000000   0.000000   0.000000   0.000000   0.000000   0.000000
    17  H    0.000000   0.000000   0.000000   0.000000   0.000000   0.000000
    18  H    0.000000   0.000000   0.000000   0.000000   0.000000   0.000000
    19  H    0.000000   0.000000   0.000000   0.000000   0.000000   0.000000
    20  H    0.000000   0.000000   0.000000   0.000000   0.000000   0.000000
    21  H    0.000000   0.000000   0.000000   0.000000   0.000000   0.000000
    22  H    0.000000   0.000000   0.000000   0.000000   0.000000   0.000000
    23  O    0.000000   0.000000   0.000000   0.000000   0.000000   0.000000
    24  H    0.000000   0.000000   0.000000   0.000000   0.000000   0.000000
    25  O    0.000000   0.000000   0.000000   0.000000   0.000000   0.000000
    26  H    0.000000   0.000000   0.000000   0.000000   0.000000   0.000000
               7          8          9         10         11         12
     1  C    0.000000   0.000000   0.000000   0.000000   0.000000   0.000000
     2  C    0.000000   0.000000   0.000000   0.000000   0.000000   0.000000
     3  C    0.000000   0.000000   0.000000   0.000000   0.000000   0.000000
     4  O    0.000000   0.000000   0.000000   0.000000   0.000000   0.000000
     5  C    0.000000   0.000000   0.000000   0.000000   0.000000   0.000000
     6  C    0.000000   0.000000   0.000000   0.000000   0.000000   0.000000
     7  O    6.293006   0.000000   0.000000   0.000000   0.000000   0.000000
     8  C    0.000000   4.147693   0.000000   0.000000   0.000000   0.000000
     9  C    0.000000   0.000000   4.115811   0.000000   0.000000   0.000000
    10  C    0.000000   0.000000   0.000000   4.042613   0.000000   0.000000
    11  C    0.000000   0.000000   0.000000   0.000000   4.042613   0.000000
    12  C    0.000000   0.000000   0.000000   0.000000   0.000000   4.115814
    13  C    0.000000   0.000000   0.000000   0.000000   0.000000   0.000000
    14  C    0.000000   0.000000   0.000000   0.000000   0.000000   0.000000
    15  C    0.000000   0.000000   0.000000   0.000000   0.000000   0.000000
    16  C    0.000000   0.000000   0.000000   0.000000   0.000000   0.000000
    17  H    0.000000   0.000000   0.000000   0.000000   0.000000   0.000000
    18  H    0.000000   0.000000   0.000000   0.000000   0.000000   0.000000
    19  H    0.000000   0.000000   0.000000   0.000000   0.000000   0.000000
    20  H    0.000000   0.000000   0.000000   0.000000   0.000000   0.000000
    21  H    0.000000   0.000000   0.000000   0.000000   0.000000   0.000000
    22  H    0.000000   0.000000   0.000000   0.000000   0.000000   0.000000
    23  O    0.000000   0.000000   0.000000   0.000000   0.000000   0.000000
    24  H    0.000000   0.000000   0.000000   0.000000   0.000000   0.000000
    25  O    0.000000   0.000000   0.000000   0.000000   0.000000   0.000000
    26  H    0.000000   0.000000   0.000000   0.000000   0.000000   0.000000
              13         14         15         16         17         18
     1  C    0.000000   0.000000   0.000000   0.000000   0.000000   0.000000
     2  C    0.000000   0.000000   0.000000   0.000000   0.000000   0.000000
     3  C    0.000000   0.000000   0.000000   0.000000   0.000000   0.000000
     4  O    0.000000   0.000000   0.000000   0.000000   0.000000   0.000000
     5  C    0.000000   0.000000   0.000000   0.000000   0.000000   0.000000
     6  C    0.000000   0.000000   0.000000   0.000000   0.000000   0.000000
     7  O    0.000000   0.000000   0.000000   0.000000   0.000000   0.000000
     8  C    0.000000   0.000000   0.000000   0.000000   0.000000   0.000000
     9  C    0.000000   0.000000   0.000000   0.000000   0.000000   0.000000
    10  C    0.000000   0.000000   0.000000   0.000000   0.000000   0.000000
    11  C    0.000000   0.000000   0.000000   0.000000   0.000000   0.000000
    12  C    0.000000   0.000000   0.000000   0.000000   0.000000   0.000000
    13  C    3.896323   0.000000   0.000000   0.000000   0.000000   0.000000
    14  C    0.000000   4.213244   0.000000   0.000000   0.000000   0.000000
    15  C    0.000000   0.000000   3.896319   0.000000   0.000000   0.000000
    16  C    0.000000   0.000000   0.000000   4.213250   0.000000   0.000000
    17  H    0.000000   0.000000   0.000000   0.000000   0.825959   0.000000
    18  H    0.000000   0.000000   0.000000   0.000000   0.000000   0.839649
    19  H    0.000000   0.000000   0.000000   0.000000   0.000000   0.000000
    20  H    0.000000   0.000000   0.000000   0.000000   0.000000   0.000000
    21  H    0.000000   0.000000   0.000000   0.000000   0.000000   0.000000
    22  H    0.000000   0.000000   0.000000   0.000000   0.000000   0.000000
    23  O    0.000000   0.000000   0.000000   0.000000   0.000000   0.000000
    24  H    0.000000   0.000000   0.000000   0.000000   0.000000   0.000000
    25  O    0.000000   0.000000   0.000000   0.000000   0.000000   0.000000
    26  H    0.000000   0.000000   0.000000   0.000000   0.000000   0.000000
              19         20         21         22         23         24
     1  C    0.000000   0.000000   0.000000   0.000000   0.000000   0.000000
     2  C    0.000000   0.000000   0.000000   0.000000   0.000000   0.000000
     3  C    0.000000   0.000000   0.000000   0.000000   0.000000   0.000000
     4  O    0.000000   0.000000   0.000000   0.000000   0.000000   0.000000
     5  C    0.000000   0.000000   0.000000   0.000000   0.000000   0.000000
     6  C    0.000000   0.000000   0.000000   0.000000   0.000000   0.000000
     7  O    0.000000   0.000000   0.000000   0.000000   0.000000   0.000000
     8  C    0.000000   0.000000   0.000000   0.000000   0.000000   0.000000
     9  C    0.000000   0.000000   0.000000   0.000000   0.000000   0.000000
    10  C    0.000000   0.000000   0.000000   0.000000   0.000000   0.000000
    11  C    0.000000   0.000000   0.000000   0.000000   0.000000   0.000000
    12  C    0.000000   0.000000   0.000000   0.000000   0.000000   0.000000
    13  C    0.000000   0.000000   0.000000   0.000000   0.000000   0.000000
    14  C    0.000000   0.000000   0.000000   0.000000   0.000000   0.000000
    15  C    0.000000   0.000000   0.000000   0.000000   0.000000   0.000000
    16  C    0.000000   0.000000   0.000000   0.000000   0.000000   0.000000
    17  H    0.000000   0.000000   0.000000   0.000000   0.000000   0.000000
    18  H    0.000000   0.000000   0.000000   0.000000   0.000000   0.000000
    19  H    0.839649   0.000000   0.000000   0.000000   0.000000   0.000000
    20  H    0.000000   0.825960   0.000000   0.000000   0.000000   0.000000
    21  H    0.000000   0.000000   0.858286   0.000000   0.000000   0.000000
    22  H    0.000000   0.000000   0.000000   0.858284   0.000000   0.000000
    23  O    0.000000   0.000000   0.000000   0.000000   6.244282   0.000000
    24  H    0.000000   0.000000   0.000000   0.000000   0.000000   0.771974
    25  O    0.000000   0.000000   0.000000   0.000000   0.000000   0.000000
    26  H    0.000000   0.000000   0.000000   0.000000   0.000000   0.000000
              25         26
     1  C    0.000000   0.000000
     2  C    0.000000   0.000000
     3  C    0.000000   0.000000
     4  O    0.000000   0.000000
     5  C    0.000000   0.000000
     6  C    0.000000   0.000000
     7  O    0.000000   0.000000
     8  C    0.000000   0.000000
     9  C    0.000000   0.000000
    10  C    0.000000   0.000000
    11  C    0.000000   0.000000
    12  C    0.000000   0.000000
    13  C    0.000000   0.000000
    14  C    0.000000   0.000000
    15  C    0.000000   0.000000
    16  C    0.000000   0.000000
    17  H    0.000000   0.000000
    18  H    0.000000   0.000000
    19  H    0.000000   0.000000
    20  H    0.000000   0.000000
    21  H    0.000000   0.000000
    22  H    0.000000   0.000000
    23  O    0.000000   0.000000
    24  H    0.000000   0.000000
    25  O    6.244280   0.000000
    26  H    0.000000   0.771972
 Mulliken charges:
               1
     1  C    0.303616
     2  C   -0.071828
     3  C   -0.071826
     4  O   -0.268962
     5  C    0.313674
     6  C   -0.147695
     7  O   -0.293006
     8  C   -0.147693
     9  C   -0.115811
    10  C   -0.042613
    11  C   -0.042613
    12  C   -0.115814
    13  C    0.103677
    14  C   -0.213244
    15  C    0.103681
    16  C   -0.213250
    17  H    0.174041
    18  H    0.160351
    19  H    0.160351
    20  H    0.174040
    21  H    0.141714
    22  H    0.141716
    23  O   -0.244282
    24  H    0.228026
    25  O   -0.244280
    26  H    0.228028
 Sum of Mulliken charges =  -0.00000
 Mulliken charges with hydrogens summed into heavy atoms:
               1
     1  C    0.303616
     2  C   -0.071828
     3  C   -0.071826
     4  O   -0.268962
     5  C    0.313674
     6  C   -0.147695
     7  O   -0.293006
     8  C   -0.147693
     9  C    0.058229
    10  C    0.117738
    11  C    0.117738
    12  C    0.058227
    13  C    0.103677
    14  C   -0.071530
    15  C    0.103681
    16  C   -0.071534
    23  O   -0.016255
    25  O   -0.016252
 Charge=             -0.0000 electrons
 Dipole moment (field-independent basis, Debye):
    X=              0.0001    Y=              2.1418    Z=              0.0002  Tot=              2.1418
 N-N= 6.594037030875D+02 E-N=-1.189662871610D+03  KE=-6.220642941365D+01
 Calling FoFJK, ICntrl=      2127 FMM=F ISym2X=0 I1Cent= 0 IOpClX= 0 NMat=1 NMatS=1 NMatT=0.
 ***** Axes restored to original set *****
 -------------------------------------------------------------------
 Center     Atomic                   Forces (Hartrees/Bohr)
 Number     Number              X              Y              Z
 -------------------------------------------------------------------
      1        6          -0.000061311   -0.013418801   -0.000003639
      2        6           0.004857959    0.003471663    0.000001809
      3        6          -0.004818905    0.003516175    0.000000565
      4        8           0.000158612    0.033978311    0.000007005
      5        6           0.000088168    0.018795236    0.000003561
      6        6           0.002008705   -0.007272272   -0.000001081
      7        8          -0.000167106   -0.036066942   -0.000008259
      8        6          -0.002077637   -0.007249044   -0.000001088
      9        6          -0.016087984    0.003007887    0.000000710
     10        6          -0.002812541    0.011699867    0.000002669
     11        6           0.002917859    0.011680011    0.000003177
     12        6           0.016104837    0.002863312    0.000000988
     13        6           0.006722144   -0.007228386   -0.000002321
     14        6          -0.014205615   -0.015875997   -0.000003704
     15        6          -0.006782696   -0.007174010   -0.000000774
     16        6           0.014062805   -0.016004753   -0.000003609
     17        1          -0.001218088    0.010463848    0.000002031
     18        1           0.001924530   -0.009380068   -0.000002093
     19        1          -0.002010940   -0.009366580   -0.000002460
     20        1           0.001315697    0.010451400    0.000002157
     21        1           0.009061251   -0.004039004   -0.000000718
     22        1          -0.009098565   -0.003954145   -0.000000977
     23        8           0.012589907    0.013771508    0.000003767
     24        1          -0.002604056   -0.000269677   -0.000000243
     25        8          -0.012468467    0.013895027    0.000002640
     26        1           0.002601441   -0.000294566   -0.000000115
 -------------------------------------------------------------------
 Cartesian Forces:  Max     0.036066942 RMS     0.009068294

 GradGradGradGradGradGradGradGradGradGradGradGradGradGradGradGradGradGrad
 Berny optimization.
 FormGI is forming the generalized inverse of G from B-inverse, IUseBI=4.
 GSVD:  received Info=                   1 from GESDD.
 Internal  Forces:  Max     0.036067330 RMS     0.006587562
 Search for a local minimum.
 Step number   1 out of a maximum of  150
 All quantities printed in internal units (Hartrees-Bohrs-Radians)
 Mixed Optimization -- RFO/linear search
 Second derivative matrix not updated -- first step.
 ITU=  0
     Eigenvalues ---    0.01072   0.01076   0.01079   0.01561   0.01646
     Eigenvalues ---    0.01775   0.01814   0.01890   0.01925   0.02097
     Eigenvalues ---    0.02097   0.02115   0.02115   0.02144   0.02144
     Eigenvalues ---    0.02168   0.02168   0.02182   0.02182   0.02189
     Eigenvalues ---    0.02189   0.02201   0.02201   0.16000   0.16000
     Eigenvalues ---    0.16000   0.16000   0.16000   0.16000   0.16000
     Eigenvalues ---    0.16000   0.22430   0.22457   0.23519   0.23523
     Eigenvalues ---    0.24611   0.24635   0.25000   0.25000   0.25000
     Eigenvalues ---    0.25000   0.25000   0.25000   0.25000   0.33245
     Eigenvalues ---    0.33971   0.34940   0.34941   0.34964   0.34964
     Eigenvalues ---    0.35035   0.35035   0.35263   0.35263   0.40275
     Eigenvalues ---    0.41817   0.41863   0.42240   0.45132   0.45737
     Eigenvalues ---    0.45973   0.46008   0.46301   0.46719   0.46922
     Eigenvalues ---    0.46935   0.52456   0.52458   0.53047   0.53047
     Eigenvalues ---    0.92965   0.93213
 RFO step:  Lambda=-1.18637616D-02 EMin= 1.07220609D-02
 Linear search not attempted -- first point.
 Iteration  1 RMS(Cart)=  0.02344489 RMS(Int)=  0.00012924
 Iteration  2 RMS(Cart)=  0.00031997 RMS(Int)=  0.00000891
 Iteration  3 RMS(Cart)=  0.00000003 RMS(Int)=  0.00000891
 Variable       Old X    -DE/DX   Delta X   Delta X   Delta X     New X
                                 (Linear)    (Quad)   (Total)
    R1        2.79084   0.00498   0.00000   0.01411   0.01413   2.80497
    R2        2.79084   0.00499   0.00000   0.01412   0.01413   2.80497
    R3        2.31486   0.03398   0.00000   0.03599   0.03599   2.35086
    R4        2.63531   0.01578   0.00000   0.03230   0.03231   2.66762
    R5        2.64506  -0.00289   0.00000  -0.00562  -0.00561   2.63945
    R6        2.63531   0.01578   0.00000   0.03231   0.03232   2.66762
    R7        2.64504  -0.00288   0.00000  -0.00560  -0.00559   2.63945
    R8        2.78985   0.00283   0.00000   0.00750   0.00749   2.79734
    R9        2.31596   0.03607   0.00000   0.03831   0.03831   2.35427
   R10        2.78985   0.00283   0.00000   0.00750   0.00749   2.79734
   R11        2.64953  -0.00037   0.00000  -0.00213  -0.00214   2.64739
   R12        2.64953  -0.00037   0.00000  -0.00213  -0.00214   2.64739
   R13        2.62903   0.01688   0.00000   0.03624   0.03624   2.66528
   R14        2.05618   0.01044   0.00000   0.02882   0.02882   2.08500
   R15        2.63882  -0.00219   0.00000  -0.00516  -0.00517   2.63365
   R16        2.05772   0.00936   0.00000   0.02591   0.02591   2.08363
   R17        2.63882  -0.00218   0.00000  -0.00515  -0.00517   2.63365
   R18        2.05770   0.00937   0.00000   0.02593   0.02593   2.08363
   R19        2.62904   0.01688   0.00000   0.03623   0.03624   2.66528
   R20        2.05618   0.01044   0.00000   0.02882   0.02882   2.08500
   R21        2.62967   0.01770   0.00000   0.03746   0.03746   2.66713
   R22        2.57465   0.01557   0.00000   0.02903   0.02903   2.60368
   R23        2.05251   0.00985   0.00000   0.02701   0.02701   2.07952
   R24        2.62967   0.01770   0.00000   0.03746   0.03746   2.66713
   R25        2.57463   0.01558   0.00000   0.02905   0.02905   2.60368
   R26        2.05250   0.00985   0.00000   0.02701   0.02701   2.07952
   R27        1.83609  -0.00185   0.00000  -0.00341  -0.00341   1.83269
   R28        1.83609  -0.00185   0.00000  -0.00341  -0.00341   1.83269
    A1        2.07969  -0.00967   0.00000  -0.03674  -0.03671   2.04298
    A2        2.10175   0.00483   0.00000   0.01837   0.01835   2.12010
    A3        2.10174   0.00484   0.00000   0.01838   0.01836   2.12010
    A4        2.10151   0.00439   0.00000   0.01671   0.01672   2.11823
    A5        2.08911  -0.00621   0.00000  -0.02332  -0.02334   2.06577
    A6        2.09256   0.00182   0.00000   0.00661   0.00662   2.09918
    A7        2.10151   0.00439   0.00000   0.01671   0.01672   2.11823
    A8        2.08911  -0.00621   0.00000  -0.02332  -0.02334   2.06578
    A9        2.09256   0.00182   0.00000   0.00661   0.00662   2.09918
   A10        2.10159   0.00436   0.00000   0.01746   0.01747   2.11906
   A11        2.08001  -0.00871   0.00000  -0.03491  -0.03494   2.04507
   A12        2.10159   0.00436   0.00000   0.01745   0.01747   2.11906
   A13        2.10183   0.00480   0.00000   0.01911   0.01910   2.12093
   A14        2.09448   0.00064   0.00000  -0.00088  -0.00088   2.09360
   A15        2.08688  -0.00544   0.00000  -0.01823  -0.01822   2.06866
   A16        2.10182   0.00480   0.00000   0.01912   0.01911   2.12093
   A17        2.09449   0.00064   0.00000  -0.00088  -0.00088   2.09361
   A18        2.08688  -0.00544   0.00000  -0.01823  -0.01822   2.06865
   A19        2.08771  -0.00262   0.00000  -0.00754  -0.00751   2.08020
   A20        2.10604  -0.00014   0.00000  -0.00467  -0.00468   2.10136
   A21        2.08944   0.00276   0.00000   0.01220   0.01219   2.10163
   A22        2.09616   0.00253   0.00000   0.00697   0.00695   2.10311
   A23        2.09938  -0.00334   0.00000  -0.01553  -0.01552   2.08387
   A24        2.08764   0.00080   0.00000   0.00856   0.00857   2.09621
   A25        2.09615   0.00253   0.00000   0.00697   0.00695   2.10311
   A26        2.09938  -0.00334   0.00000  -0.01553  -0.01552   2.08387
   A27        2.08765   0.00080   0.00000   0.00855   0.00856   2.09621
   A28        2.08772  -0.00262   0.00000  -0.00754  -0.00752   2.08020
   A29        2.10604  -0.00014   0.00000  -0.00467  -0.00468   2.10137
   A30        2.08942   0.00276   0.00000   0.01221   0.01220   2.10162
   A31        2.11186  -0.00211   0.00000  -0.00435  -0.00435   2.10751
   A32        2.05415  -0.00533   0.00000  -0.02222  -0.02222   2.03193
   A33        2.11717   0.00744   0.00000   0.02657   0.02656   2.14374
   A34        2.08360  -0.00027   0.00000  -0.00081  -0.00083   2.08277
   A35        2.08215   0.00139   0.00000   0.00769   0.00770   2.08984
   A36        2.11744  -0.00112   0.00000  -0.00688  -0.00687   2.11057
   A37        2.11186  -0.00211   0.00000  -0.00435  -0.00435   2.10751
   A38        2.05416  -0.00534   0.00000  -0.02222  -0.02222   2.03193
   A39        2.11717   0.00744   0.00000   0.02657   0.02657   2.14374
   A40        2.08359  -0.00027   0.00000  -0.00080  -0.00082   2.08277
   A41        2.08215   0.00139   0.00000   0.00769   0.00770   2.08984
   A42        2.11745  -0.00112   0.00000  -0.00689  -0.00688   2.11057
   A43        1.90707  -0.00341   0.00000  -0.01981  -0.01981   1.88726
   A44        1.90708  -0.00341   0.00000  -0.01982  -0.01982   1.88726
    D1        0.00003   0.00000   0.00000   0.00001   0.00001   0.00003
    D2       -3.14156  -0.00000   0.00000  -0.00000  -0.00000  -3.14156
    D3       -3.14156  -0.00000   0.00000  -0.00001  -0.00001  -3.14157
    D4        0.00004  -0.00000   0.00000  -0.00002  -0.00002   0.00002
    D5       -0.00002  -0.00000   0.00000  -0.00001  -0.00001  -0.00003
    D6        3.14158  -0.00000   0.00000  -0.00001  -0.00001   3.14157
    D7        3.14157   0.00000   0.00000   0.00000   0.00000   3.14157
    D8       -0.00002   0.00000   0.00000   0.00000   0.00000  -0.00002
    D9       -0.00001   0.00000   0.00000   0.00000   0.00000  -0.00001
   D10       -3.14159  -0.00000   0.00000  -0.00001  -0.00001   3.14159
   D11        3.14157   0.00000   0.00000   0.00001   0.00001   3.14158
   D12       -0.00001   0.00000   0.00000   0.00000   0.00000  -0.00000
   D13        3.14158   0.00000   0.00000   0.00001   0.00001  -3.14159
   D14       -0.00000   0.00000   0.00000   0.00000   0.00000   0.00000
   D15       -0.00000   0.00000   0.00000   0.00000   0.00000   0.00000
   D16       -3.14158  -0.00000   0.00000  -0.00001  -0.00001   3.14159
   D17       -0.00001   0.00000   0.00000   0.00000   0.00000  -0.00001
   D18        3.14158   0.00000   0.00000   0.00000   0.00000   3.14159
   D19        3.14159   0.00000   0.00000   0.00000   0.00000   3.14159
   D20       -0.00001   0.00000   0.00000   0.00001   0.00001  -0.00000
   D21       -3.14158  -0.00000   0.00000  -0.00001  -0.00001  -3.14159
   D22        0.00000   0.00000   0.00000   0.00000   0.00000   0.00000
   D23        0.00001  -0.00000   0.00000  -0.00001  -0.00001   0.00000
   D24       -3.14159   0.00000   0.00000   0.00000   0.00000  -3.14159
   D25       -3.14157  -0.00000   0.00000  -0.00000  -0.00000  -3.14157
   D26        0.00003  -0.00000   0.00000  -0.00001  -0.00001   0.00002
   D27        0.00002   0.00000   0.00000   0.00001   0.00001   0.00003
   D28       -3.14157   0.00000   0.00000   0.00000   0.00000  -3.14157
   D29       -0.00001  -0.00000   0.00000  -0.00001  -0.00001  -0.00002
   D30        3.14157  -0.00000   0.00000  -0.00000  -0.00000   3.14157
   D31        3.14158   0.00000   0.00000   0.00000   0.00000   3.14158
   D32       -0.00003   0.00000   0.00000   0.00001   0.00001  -0.00002
   D33        0.00000  -0.00000   0.00000  -0.00000  -0.00000   0.00000
   D34       -3.14159  -0.00000   0.00000  -0.00001  -0.00001   3.14159
   D35        3.14159   0.00000   0.00000   0.00000   0.00000  -3.14159
   D36        0.00000  -0.00000   0.00000  -0.00000  -0.00000   0.00000
   D37        0.00001  -0.00000   0.00000  -0.00000  -0.00000   0.00000
   D38        3.14159   0.00000   0.00000   0.00001   0.00001  -3.14159
   D39       -3.14157  -0.00000   0.00000  -0.00001  -0.00001  -3.14159
   D40        0.00001  -0.00000   0.00000  -0.00000  -0.00000   0.00001
   D41        0.00001  -0.00000   0.00000  -0.00001  -0.00001   0.00000
   D42       -3.14159  -0.00000   0.00000  -0.00001  -0.00001  -3.14159
   D43       -3.14159   0.00000   0.00000   0.00000   0.00000  -3.14159
   D44       -0.00000   0.00000   0.00000   0.00001   0.00001   0.00000
   D45        0.00001  -0.00000   0.00000  -0.00000  -0.00000   0.00000
   D46       -3.14158  -0.00000   0.00000  -0.00001  -0.00001  -3.14159
   D47       -3.14159   0.00000   0.00000   0.00000   0.00000  -3.14159
   D48        0.00001  -0.00000   0.00000  -0.00000  -0.00000   0.00000
   D49        0.00000  -0.00000   0.00000  -0.00000  -0.00000   0.00000
   D50        3.14159   0.00000   0.00000   0.00001   0.00001  -3.14159
   D51       -3.14158  -0.00000   0.00000  -0.00001  -0.00001  -3.14159
   D52        0.00000  -0.00000   0.00000  -0.00000  -0.00000   0.00000
   D53       -0.00000   0.00000   0.00000   0.00000   0.00000  -0.00000
   D54        3.14158   0.00000   0.00000   0.00001   0.00001   3.14159
   D55       -3.14159  -0.00000   0.00000  -0.00001  -0.00001   3.14159
   D56       -0.00001   0.00000   0.00000   0.00000   0.00000  -0.00000
   D57       -0.00001   0.00000   0.00000   0.00001   0.00001  -0.00000
   D58        3.14159  -0.00000   0.00000  -0.00000  -0.00000   3.14159
   D59        3.14159   0.00000   0.00000   0.00000   0.00000   3.14159
   D60        0.00000  -0.00000   0.00000  -0.00000  -0.00000  -0.00000
   D61        3.14159   0.00000   0.00000   0.00000   0.00000   3.14159
   D62       -0.00001   0.00000   0.00000   0.00000   0.00000  -0.00001
   D63       -0.00001   0.00000   0.00000   0.00000   0.00000  -0.00000
   D64        3.14158   0.00000   0.00000   0.00001   0.00001   3.14159
   D65       -3.14159  -0.00000   0.00000  -0.00001  -0.00001   3.14159
   D66        0.00000  -0.00000   0.00000  -0.00000  -0.00000  -0.00000
   D67       -3.14159  -0.00000   0.00000  -0.00001  -0.00001   3.14159
   D68       -0.00001   0.00000   0.00000   0.00000   0.00000  -0.00001
         Item               Value     Threshold  Converged?
 Maximum Force            0.036067     0.000450     NO 
 RMS     Force            0.006588     0.000300     NO 
 Maximum Displacement     0.104528     0.001800     NO 
 RMS     Displacement     0.023527     0.001200     NO 
 Predicted change in Energy=-6.101910D-03
 GradGradGradGradGradGradGradGradGradGradGradGradGradGradGradGradGradGrad

                          Input orientation:                          
 ---------------------------------------------------------------------
 Center     Atomic      Atomic             Coordinates (Angstroms)
 Number     Number       Type             X           Y           Z
 ---------------------------------------------------------------------
      1          6           0        0.004338    1.475346    0.000288
      2          6           0        1.266689    0.694521    0.000160
      3          6           0       -1.265209    0.706272    0.000115
      4          8           0        0.010114    2.719353    0.000538
      5          6           0       -0.009390   -1.482752   -0.000357
      6          6           0       -1.269121   -0.705367   -0.000190
      7          8           0       -0.015170   -2.728564   -0.000649
      8          6           0        1.257501   -0.717091   -0.000154
      9          6           0        2.477503    1.390801    0.000356
     10          6           0       -2.484857   -1.401509   -0.000343
     11          6           0        2.466724   -1.424488   -0.000273
     12          6           0       -2.469511    1.413759    0.000260
     13          6           0        3.687566    0.666238    0.000237
     14          6           0        3.683605   -0.745141   -0.000081
     15          6           0       -3.686248    0.700457    0.000104
     16          6           0       -3.695383   -0.710899   -0.000198
     17          1           0        2.487092    2.494095    0.000601
     18          1           0       -2.477179   -2.504092   -0.000582
     19          1           0        2.448810   -2.526952   -0.000521
     20          1           0       -2.468867    2.517095    0.000494
     21          1           0        4.625994   -1.313346   -0.000179
     22          1           0       -4.643001   -1.270336   -0.000318
     23          8           0        4.847442    1.409905    0.000444
     24          1           0        5.598979    0.796932    0.000340
     25          8           0       -4.839172    1.454857    0.000262
     26          1           0       -5.596367    0.848886    0.000125
 ---------------------------------------------------------------------
                    Distance matrix (angstroms):
                    1          2          3          4          5
     1  C    0.000000
     2  C    1.484324   0.000000
     3  C    1.484327   2.531925   0.000000
     4  O    1.244021   2.383050   2.383054   0.000000
     5  C    2.958131   2.523667   2.523670   4.202151   0.000000
     6  C    2.525314   2.896553   1.411645   3.655838   1.480287
     7  O    4.203955   3.655225   3.655229   5.447976   1.245825
     8  C    2.525312   1.411642   2.896555   3.655835   1.480287
     9  C    2.474609   1.396738   3.804796   2.802331   3.800256
    10  C    3.804259   4.297376   2.435217   4.817301   2.476800
    11  C    3.804258   2.435217   4.297378   4.817297   2.476799
    12  C    2.474616   3.804799   1.396739   2.802341   3.800260
    13  C    3.771050   2.421042   4.952937   4.211761   4.276172
    14  C    4.297391   2.813203   5.157263   5.049481   3.765937
    15  C    3.771058   4.952940   2.421045   4.211773   4.276177
    16  C    4.297395   5.157263   2.813204   5.049489   3.765939
    17  H    2.683638   2.174362   4.156449   2.487199   4.695502
    18  H    4.689761   4.924192   3.431517   5.785414   2.670790
    19  H    4.689759   3.431516   4.924193   5.785409   2.670787
    20  H    2.683652   4.156459   2.174367   2.487219   4.695509
    21  H    5.397824   3.913625   6.227771   6.129356   4.638478
    22  H    5.397827   6.227768   3.913625   6.129364   4.638477
    23  O    4.843546   3.651516   6.153016   5.011426   5.652989
    24  H    5.635623   4.333500   6.864787   5.910255   6.053987
    25  O    4.843554   6.153020   3.651519   5.011440   5.652994
    26  H    5.635633   6.864792   4.333505   5.910269   6.053995
                    6          7          8          9         10
     6  C    0.000000
     7  O    2.380277   0.000000
     8  C    2.526649   2.380276   0.000000
     9  C    4.293147   4.814830   2.435491   0.000000
    10  C    1.400938   2.803646   3.804428   5.694033   0.000000
    11  C    3.804428   2.803642   1.400939   2.815310   4.951634
    12  C    2.435494   4.814834   4.293150   4.947067   2.815310
    13  C    5.142961   5.023438   2.796214   1.410405   6.509561
    14  C    4.952886   4.197011   2.426266   2.452943   6.203285
    15  C    2.796219   5.023445   5.142965   6.202290   2.421074
    16  C    2.426268   4.197015   4.952887   6.520863   1.393669
    17  H    4.934135   5.791155   3.438548   1.103335   6.316328
    18  H    2.166752   2.472221   4.140194   6.302306   1.102610
    19  H    4.140191   2.472215   2.166752   3.917858   5.060405
    20  H    3.438553   5.791163   4.934144   5.072979   3.918636
    21  H    5.926383   4.852138   3.420857   3.453755   7.111397
    22  H    3.420856   4.852139   5.926382   7.601528   2.162127
    23  O    6.471995   6.385289   4.172744   2.370016   7.852812
    24  H    7.030483   6.629313   4.597901   3.177466   8.377443
    25  O    4.172749   6.385296   6.472000   7.316956   3.701571
    26  H    4.597909   6.629322   7.030490   8.092036   3.840022
                   11         12         13         14         15
    11  C    0.000000
    12  C    5.694037   0.000000
    13  C    2.421072   6.202288   0.000000
    14  C    1.393669   6.520865   1.411385   0.000000
    15  C    6.509566   1.410407   7.373893   7.510292   0.000000
    16  C    6.203286   2.452944   7.510288   7.379067   1.411386
    17  H    3.918636   5.072971   2.186823   3.453157   6.428628
    18  H    5.060407   3.917859   6.932177   6.406962   3.425052
    19  H    1.102610   6.302308   3.425052   2.167849   6.932179
    20  H    6.316339   1.103336   6.428634   6.963842   2.186821
    21  H    2.162128   7.601532   2.190753   1.100433   8.552705
    22  H    7.111396   3.453755   8.552699   8.343153   2.190754
    23  O    3.701568   7.316954   1.377807   2.449233   8.563129
    24  H    3.840017   8.092033   1.915876   2.458993   9.285728
    25  O    7.852818   2.370018   8.563129   8.802143   1.377808
    26  H    8.377450   3.177469   9.285729   9.415881   1.915878
                   16         17         18         19         20
    16  C    0.000000
    17  H    6.963833   0.000000
    18  H    2.167847   7.044562   0.000000
    19  H    6.406961   5.021193   4.926042   0.000000
    20  H    3.453155   4.956013   5.021194   7.044570   0.000000
    21  H    8.343156   4.367093   7.202287   2.492583   8.062836
    22  H    1.100432   8.062826   2.492577   7.202282   4.367091
    23  O    8.802139   2.597445   8.304784   4.610019   7.399611
    24  H    9.415875   3.544602   8.724740   4.579494   8.249188
    25  O    2.449235   7.399605   4.610021   8.304787   2.597440
    26  H    2.458998   8.249183   4.579498   8.724744   3.544598
                   21         22         23         24         25
    21  H    0.000000
    22  H    9.269094   0.000000
    23  O    2.732240   9.861653   0.000000
    24  H    2.323784  10.448529   0.969817   0.000000
    25  O    9.861659   2.732245   9.686718  10.458865   0.000000
    26  H   10.448536   2.323792  10.458867  11.195467   0.969817
                   26
    26  H    0.000000
 Stoichiometry    C14H8O4
 Framework group  C1[X(C14H8O4)]
 Deg. of freedom    72
 Full point group                 C1      NOp   1
 Largest Abelian subgroup         C1      NOp   1
 Largest concise Abelian subgroup C1      NOp   1
                         Standard orientation:                         
 ---------------------------------------------------------------------
 Center     Atomic      Atomic             Coordinates (Angstroms)
 Number     Number       Type             X           Y           Z
 ---------------------------------------------------------------------
      1          6           0       -0.000002   -1.305622   -0.000036
      2          6           0       -1.265962   -0.530663   -0.000015
      3          6           0        1.265963   -0.530664   -0.000015
      4          8           0       -0.000004   -2.549642   -0.000062
      5          6           0       -0.000001    1.652509   -0.000025
      6          6           0        1.263324    0.880978   -0.000007
      7          8           0       -0.000003    2.898334   -0.000040
      8          6           0       -1.263325    0.880977   -0.000015
      9          6           0       -2.473532   -1.232555    0.000005
     10          6           0        2.475816    1.582754    0.000017
     11          6           0       -2.475818    1.582754    0.000000
     12          6           0        2.473535   -1.232555   -0.000004
     13          6           0       -3.686944   -0.513615    0.000024
     14          6           0       -3.689533    0.897768    0.000019
     15          6           0        3.686948   -0.513614    0.000020
     16          6           0        3.689534    0.897769    0.000032
     17          1           0       -2.478001   -2.335881    0.000005
     18          1           0        2.463021    2.685290    0.000022
     19          1           0       -2.463021    2.685290   -0.000003
     20          1           0        2.478012   -2.335882   -0.000015
     21          1           0       -4.634549    1.461592    0.000030
     22          1           0        4.634546    1.461598    0.000053
     23          8           0       -4.843357   -1.262657    0.000044
     24          1           0       -5.597730   -0.653178    0.000062
     25          8           0        4.843361   -1.262656    0.000033
     26          1           0        5.597736   -0.653177    0.000044
 ---------------------------------------------------------------------
 Rotational constants (GHZ):      0.9702273      0.2652699      0.2083146
 Standard basis: VSTO-6G (5D, 7F)
 There are    80 symmetry adapted cartesian basis functions of A   symmetry.
 There are    80 symmetry adapted basis functions of A   symmetry.
    80 basis functions,   480 primitive gaussians,    80 cartesian basis functions
    44 alpha electrons       44 beta electrons
       nuclear repulsion energy       656.8285668344 Hartrees.
 Integral buffers will be    131072 words long.
 Regular integral format.
 Two-electron integral symmetry is turned off.
 Do NDO integrals.
 One-electron integrals computed using PRISM.
 NBasis=    80 RedAO= F EigKep=  0.00D+00  NBF=    80
 NBsUse=    80 1.00D-04 EigRej=  0.00D+00 NBFU=    80
 Initial guess from the checkpoint file:  "anthracene-2-7-opt.chk"
 B after Tr=     0.000000   -0.000000   -0.000000
         Rot=    1.000000   -0.000000    0.000000   -0.000000 Ang=  -0.00 deg.
 Overlap will be assumed to be unity.
 Keep J ints in memory in canonical form, NReq=933890.
 Requested convergence on RMS density matrix=1.00D-08 within 128 cycles.
 Requested convergence on MAX density matrix=1.00D-06.
 Requested convergence on             energy=1.00D-06.
 No special actions if energy rises.
 SCF Done:  E(RAM1) = -0.149406876134     A.U. after   13 cycles
            NFock= 12  Conv=0.40D-08     -V/T= 0.9976
 Calling FoFJK, ICntrl=      2127 FMM=F ISym2X=0 I1Cent= 0 IOpClX= 0 NMat=1 NMatS=1 NMatT=0.
 ***** Axes restored to original set *****
 -------------------------------------------------------------------
 Center     Atomic                   Forces (Hartrees/Bohr)
 Number     Number              X              Y              Z
 -------------------------------------------------------------------
      1        6           0.000026184    0.006108404    0.000001978
      2        6          -0.000658356   -0.003378140   -0.000000983
      3        6           0.000627113   -0.003383854   -0.000001087
      4        8          -0.000059353   -0.012674273   -0.000002811
      5        6          -0.000021180   -0.004540250   -0.000000404
      6        6           0.004017533    0.002308515    0.000000227
      7        8           0.000053823    0.011655623    0.000002483
      8        6          -0.003996210    0.002343246    0.000000390
      9        6           0.002278326   -0.004363217   -0.000000974
     10        6          -0.001205620    0.005925251    0.000001196
     11        6           0.001259913    0.005914217    0.000001293
     12        6          -0.002318109   -0.004342769   -0.000000911
     13        6           0.000477586   -0.006436367   -0.000001558
     14        6          -0.000899602    0.009218627    0.000002125
     15        6          -0.000536045   -0.006432757   -0.000001286
     16        6           0.000985714    0.009211344    0.000002024
     17        1           0.000532956   -0.001073384   -0.000000207
     18        1           0.000576706   -0.000332840   -0.000000039
     19        1          -0.000579544   -0.000327684   -0.000000066
     20        1          -0.000542110   -0.001068939   -0.000000150
     21        1          -0.000133063    0.001872312    0.000000450
     22        1           0.000149794    0.001870896    0.000000327
     23        8          -0.005649523   -0.004179078   -0.000001079
     24        1          -0.000991463    0.000173067   -0.000000054
     25        8           0.005611029   -0.004231708   -0.000000946
     26        1           0.000993503    0.000163757    0.000000064
 -------------------------------------------------------------------
 Cartesian Forces:  Max     0.012674273 RMS     0.003414099

 GradGradGradGradGradGradGradGradGradGradGradGradGradGradGradGradGradGrad
 Berny optimization.
 Using GEDIIS/GDIIS optimizer.
 FormGI is forming the generalized inverse of G from B-inverse, IUseBI=4.
 GSVD:  received Info=                   1 from GESDD.
 Internal  Forces:  Max     0.013620401 RMS     0.002976535
 Search for a local minimum.
 Step number   2 out of a maximum of  150
 All quantities printed in internal units (Hartrees-Bohrs-Radians)
 Mixed Optimization -- RFO/linear search
 Update second derivatives using D2CorX and points    1    2
 DE= -3.93D-03 DEPred=-6.10D-03 R= 6.45D-01
 TightC=F SS=  1.41D+00  RLast= 1.69D-01 DXNew= 5.0454D-01 5.0819D-01
 Trust test= 6.45D-01 RLast= 1.69D-01 DXMaxT set to 5.05D-01
 ITU=  1  0
 Use linear search instead of GDIIS.
     Eigenvalues ---    0.01072   0.01076   0.01079   0.01573   0.01647
     Eigenvalues ---    0.01778   0.01814   0.01897   0.01929   0.02098
     Eigenvalues ---    0.02098   0.02115   0.02115   0.02145   0.02145
     Eigenvalues ---    0.02168   0.02168   0.02182   0.02182   0.02189
     Eigenvalues ---    0.02189   0.02201   0.02201   0.15606   0.16000
     Eigenvalues ---    0.16000   0.16000   0.16000   0.16000   0.16000
     Eigenvalues ---    0.16047   0.22247   0.22457   0.23466   0.23520
     Eigenvalues ---    0.24161   0.24609   0.24728   0.25000   0.25000
     Eigenvalues ---    0.25000   0.25000   0.25000   0.25011   0.33255
     Eigenvalues ---    0.33832   0.33906   0.34941   0.34964   0.34985
     Eigenvalues ---    0.35035   0.35183   0.35263   0.35953   0.40302
     Eigenvalues ---    0.41853   0.41928   0.42341   0.45130   0.45269
     Eigenvalues ---    0.45902   0.45974   0.46302   0.46806   0.46921
     Eigenvalues ---    0.51024   0.52457   0.53004   0.53047   0.62606
     Eigenvalues ---    0.93058   1.05640
 RFO step:  Lambda=-7.12699359D-04 EMin= 1.07220609D-02
 Quartic linear search produced a step of -0.24903.
 Iteration  1 RMS(Cart)=  0.00917024 RMS(Int)=  0.00001181
 Iteration  2 RMS(Cart)=  0.00001548 RMS(Int)=  0.00000198
 Iteration  3 RMS(Cart)=  0.00000000 RMS(Int)=  0.00000198
 Variable       Old X    -DE/DX   Delta X   Delta X   Delta X     New X
                                 (Linear)    (Quad)   (Total)
    R1        2.80497  -0.00512  -0.00352  -0.00671  -0.01024   2.79473
    R2        2.80497  -0.00513  -0.00352  -0.00672  -0.01024   2.79473
    R3        2.35086  -0.01267  -0.00896   0.00084  -0.00813   2.34273
    R4        2.66762  -0.00894  -0.00805  -0.00425  -0.01230   2.65532
    R5        2.63945  -0.00344   0.00140  -0.00736  -0.00596   2.63349
    R6        2.66762  -0.00894  -0.00805  -0.00425  -0.01230   2.65532
    R7        2.63945  -0.00344   0.00139  -0.00736  -0.00597   2.63349
    R8        2.79734  -0.00557  -0.00186  -0.00966  -0.01152   2.78581
    R9        2.35427  -0.01166  -0.00954   0.00234  -0.00720   2.34707
   R10        2.79734  -0.00557  -0.00186  -0.00966  -0.01152   2.78581
   R11        2.64739  -0.00245   0.00053  -0.00437  -0.00384   2.64355
   R12        2.64739  -0.00245   0.00053  -0.00437  -0.00384   2.64356
   R13        2.66528  -0.00633  -0.00903   0.00065  -0.00838   2.65690
   R14        2.08500  -0.00107  -0.00718   0.00645  -0.00073   2.08427
   R15        2.63365  -0.00274   0.00129  -0.00600  -0.00471   2.62894
   R16        2.08363   0.00034  -0.00645   0.00857   0.00212   2.08575
   R17        2.63365  -0.00274   0.00129  -0.00600  -0.00471   2.62894
   R18        2.08363   0.00034  -0.00646   0.00858   0.00212   2.08575
   R19        2.66528  -0.00633  -0.00903   0.00064  -0.00838   2.65690
   R20        2.08500  -0.00107  -0.00718   0.00645  -0.00073   2.08427
   R21        2.66713  -0.01362  -0.00933  -0.01060  -0.01993   2.64720
   R22        2.60368  -0.00775  -0.00723  -0.00223  -0.00946   2.59422
   R23        2.07952  -0.00108  -0.00673   0.00589  -0.00084   2.07868
   R24        2.66713  -0.01362  -0.00933  -0.01061  -0.01993   2.64720
   R25        2.60368  -0.00775  -0.00723  -0.00223  -0.00946   2.59422
   R26        2.07952  -0.00108  -0.00673   0.00589  -0.00084   2.07868
   R27        1.83269  -0.00088   0.00085  -0.00228  -0.00143   1.83126
   R28        1.83269  -0.00088   0.00085  -0.00228  -0.00143   1.83126
    A1        2.04298   0.00048   0.00914  -0.00930  -0.00017   2.04281
    A2        2.12010  -0.00024  -0.00457   0.00465   0.00009   2.12019
    A3        2.12010  -0.00024  -0.00457   0.00465   0.00008   2.12019
    A4        2.11823  -0.00044  -0.00416   0.00371  -0.00046   2.11777
    A5        2.06577   0.00083   0.00581  -0.00496   0.00085   2.06663
    A6        2.09918  -0.00039  -0.00165   0.00126  -0.00039   2.09879
    A7        2.11823  -0.00044  -0.00416   0.00371  -0.00046   2.11777
    A8        2.06578   0.00083   0.00581  -0.00497   0.00085   2.06663
    A9        2.09918  -0.00039  -0.00165   0.00126  -0.00039   2.09879
   A10        2.11906  -0.00015  -0.00435   0.00467   0.00031   2.11937
   A11        2.04507   0.00029   0.00870  -0.00933  -0.00062   2.04445
   A12        2.11906  -0.00015  -0.00435   0.00467   0.00031   2.11937
   A13        2.12093   0.00006  -0.00476   0.00561   0.00086   2.12179
   A14        2.09360  -0.00181   0.00022  -0.00464  -0.00442   2.08918
   A15        2.06866   0.00175   0.00454  -0.00097   0.00356   2.07222
   A16        2.12093   0.00006  -0.00476   0.00561   0.00086   2.12178
   A17        2.09361  -0.00181   0.00022  -0.00464  -0.00442   2.08918
   A18        2.06865   0.00175   0.00454  -0.00097   0.00357   2.07222
   A19        2.08020   0.00068   0.00187  -0.00064   0.00123   2.08143
   A20        2.10136   0.00022   0.00116   0.00046   0.00163   2.10299
   A21        2.10163  -0.00091  -0.00304   0.00018  -0.00286   2.09877
   A22        2.10311   0.00096  -0.00173   0.00605   0.00432   2.10743
   A23        2.08387  -0.00108   0.00386  -0.00939  -0.00552   2.07834
   A24        2.09621   0.00012  -0.00213   0.00334   0.00120   2.09741
   A25        2.10311   0.00096  -0.00173   0.00605   0.00432   2.10743
   A26        2.08387  -0.00108   0.00386  -0.00939  -0.00552   2.07834
   A27        2.09621   0.00012  -0.00213   0.00333   0.00120   2.09741
   A28        2.08020   0.00068   0.00187  -0.00064   0.00123   2.08143
   A29        2.10137   0.00022   0.00117   0.00046   0.00162   2.10299
   A30        2.10162  -0.00091  -0.00304   0.00018  -0.00285   2.09877
   A31        2.10751   0.00133   0.00108   0.00150   0.00258   2.11009
   A32        2.03193  -0.00049   0.00553  -0.00756  -0.00203   2.02991
   A33        2.14374  -0.00084  -0.00662   0.00606  -0.00055   2.14318
   A34        2.08277  -0.00077   0.00021  -0.00353  -0.00332   2.07945
   A35        2.08984   0.00198  -0.00192   0.01138   0.00946   2.09930
   A36        2.11057  -0.00121   0.00171  -0.00785  -0.00614   2.10443
   A37        2.10751   0.00133   0.00108   0.00150   0.00258   2.11009
   A38        2.03193  -0.00049   0.00553  -0.00756  -0.00203   2.02991
   A39        2.14374  -0.00084  -0.00662   0.00606  -0.00056   2.14319
   A40        2.08277  -0.00078   0.00020  -0.00353  -0.00332   2.07945
   A41        2.08984   0.00198  -0.00192   0.01138   0.00946   2.09930
   A42        2.11057  -0.00121   0.00171  -0.00785  -0.00614   2.10443
   A43        1.88726  -0.00090   0.00493  -0.01009  -0.00515   1.88211
   A44        1.88726  -0.00090   0.00494  -0.01009  -0.00516   1.88211
    D1        0.00003  -0.00000  -0.00000  -0.00001  -0.00001   0.00002
    D2       -3.14156  -0.00000   0.00000  -0.00001  -0.00001  -3.14157
    D3       -3.14157   0.00000   0.00000   0.00001   0.00001  -3.14156
    D4        0.00002   0.00000   0.00000   0.00000   0.00001   0.00003
    D5       -0.00003   0.00000   0.00000   0.00001   0.00001  -0.00002
    D6        3.14157   0.00000   0.00000   0.00001   0.00001   3.14158
    D7        3.14157  -0.00000  -0.00000  -0.00001  -0.00001   3.14156
    D8       -0.00002  -0.00000  -0.00000  -0.00001  -0.00001  -0.00003
    D9       -0.00001   0.00000  -0.00000   0.00000   0.00000  -0.00001
   D10        3.14159   0.00000   0.00000  -0.00000   0.00000   3.14159
   D11        3.14158   0.00000  -0.00000   0.00001   0.00000   3.14159
   D12       -0.00000   0.00000  -0.00000   0.00000   0.00000  -0.00000
   D13       -3.14159   0.00000  -0.00000   0.00000  -0.00000  -3.14159
   D14        0.00000   0.00000  -0.00000   0.00000  -0.00000   0.00000
   D15        0.00000  -0.00000  -0.00000   0.00000  -0.00000   0.00000
   D16        3.14159  -0.00000   0.00000  -0.00000  -0.00000   3.14159
   D17       -0.00001   0.00000  -0.00000   0.00000   0.00000  -0.00000
   D18        3.14159   0.00000  -0.00000   0.00000   0.00000   3.14159
   D19        3.14159   0.00000  -0.00000   0.00000   0.00000   3.14159
   D20       -0.00000   0.00000  -0.00000   0.00000   0.00000  -0.00000
   D21       -3.14159  -0.00000   0.00000  -0.00000  -0.00000  -3.14159
   D22        0.00000  -0.00000  -0.00000  -0.00000  -0.00000   0.00000
   D23        0.00000  -0.00000   0.00000  -0.00000  -0.00000   0.00000
   D24       -3.14159  -0.00000  -0.00000  -0.00000  -0.00000  -3.14159
   D25       -3.14157   0.00000   0.00000   0.00001   0.00001  -3.14156
   D26        0.00002   0.00000   0.00000   0.00001   0.00001   0.00003
   D27        0.00003  -0.00000  -0.00000  -0.00001  -0.00001   0.00002
   D28       -3.14157  -0.00000  -0.00000  -0.00001  -0.00001  -3.14158
   D29       -0.00002   0.00000   0.00000   0.00001   0.00001  -0.00001
   D30        3.14157   0.00000   0.00000   0.00001   0.00001   3.14158
   D31        3.14158  -0.00000  -0.00000  -0.00001  -0.00001   3.14157
   D32       -0.00002  -0.00000  -0.00000  -0.00001  -0.00001  -0.00003
   D33        0.00000  -0.00000   0.00000  -0.00000  -0.00000  -0.00000
[...]
    15  C    2.792079   5.010505   5.131766   6.192395   2.408626
    16  C    2.427976   4.193719   4.946241   6.510803   1.391954
    17  H    4.925593   5.776349   3.431547   1.102218   6.306207
    18  H    2.162096   2.467845   4.130195   6.287544   1.103607
    19  H    4.130194   2.467845   2.162096   3.903965   5.055192
    20  H    3.431547   5.776349   4.925593   5.070250   3.902637
    21  H    5.923141   4.856751   3.424809   3.439199   7.112630
    22  H    3.424809   4.856751   5.923141   7.592106   2.166359
    23  O    6.454544   6.368381   4.163383   2.360483   7.835763
    24  H    7.015695   6.616287   4.591581   3.168461   8.363882
    25  O    4.163383   6.368381   6.454544   7.300183   3.686524
    26  H    4.591581   6.616288   7.015695   8.076735   3.828620
                   11         12         13         14         15
    11  C    0.000000
    12  C    5.682422   0.000000
    13  C    2.408626   6.192395   0.000000
    14  C    1.391954   6.510803   1.401225   0.000000
    15  C    6.498875   1.406722   7.361900   7.500091   0.000000
    16  C    6.199369   2.441932   7.500091   7.374174   1.401225
    17  H    3.902637   5.070250   2.179324   3.438355   6.422670
    18  H    5.055193   3.903965   6.918161   6.400399   3.414410
    19  H    1.103607   6.287544   3.414410   2.168406   6.918161
    20  H    6.306208   1.102218   6.422671   6.955889   2.179324
    21  H    2.166359   7.592106   2.176086   1.099433   8.544527
    22  H    7.112630   3.439199   8.544527   8.342432   2.176086
    23  O    3.686524   7.300183   1.372851   2.436953   8.544180
    24  H    3.828619   8.076735   1.911209   2.449490   9.268716
    25  O    7.835763   2.360483   8.544180   8.784964   1.372851
    26  H    8.363883   3.168461   9.268716   9.401782   1.911209
                   16         17         18         19         20
    16  C    0.000000
    17  H    6.955888   0.000000
    18  H    2.168406   7.031625   0.000000
    19  H    6.400399   5.006171   4.917583   0.000000
    20  H    3.438355   4.958128   5.006171   7.031625   0.000000
    21  H    8.342432   4.346309   7.202135   2.503104   8.054293
    22  H    1.099433   8.054292   2.503104   7.202135   4.346309
    23  O    8.784964   2.581852   8.285299   4.597909   7.386681
    24  H    9.401782   3.529111   8.708673   4.571170   8.237296
    25  O    2.436953   7.386680   4.597909   8.285299   2.581851
    26  H    2.449490   8.237295   4.571170   8.708674   3.529110
                   21         22         23         24         25
    21  H    0.000000
    22  H    9.273908   0.000000
    23  O    2.712756   9.846215   0.000000
    24  H    2.304896  10.437062   0.969085   0.000000
    25  O    9.846214   2.712757   9.660317  10.434380   0.000000
    26  H   10.437062   2.304897  10.434380  11.173252   0.969085
                   26
    26  H    0.000000
 Stoichiometry    C14H8O4
 Framework group  C1[X(C14H8O4)]
 Deg. of freedom    72
 Full point group                 C1      NOp   1
 Largest Abelian subgroup         C1      NOp   1
 Largest concise Abelian subgroup C1      NOp   1
                         Standard orientation:                         
 ---------------------------------------------------------------------
 Center     Atomic      Atomic             Coordinates (Angstroms)
 Number     Number       Type             X           Y           Z
 ---------------------------------------------------------------------
      1          6           0       -0.000000   -1.299564    0.000016
      2          6           0       -1.262977   -0.526767    0.000010
      3          6           0        1.262977   -0.526767    0.000010
      4          8           0       -0.000000   -2.537898   -0.000039
      5          6           0        0.000000    1.648645    0.000016
      6          6           0        1.259139    0.879403    0.000010
      7          8           0       -0.000000    2.889343   -0.000037
      8          6           0       -1.259139    0.879403    0.000009
      9          6           0       -2.469939   -1.225798    0.000007
     10          6           0        2.474490    1.574656    0.000006
     11          6           0       -2.474490    1.574656    0.000003
     12          6           0        2.469939   -1.225798    0.000005
     13          6           0       -3.680950   -0.510034    0.000003
     14          6           0       -3.687087    0.891177    0.000000
     15          6           0        3.680950   -0.510034    0.000002
     16          6           0        3.687087    0.891177    0.000003
     17          1           0       -2.479064   -2.327978    0.000007
     18          1           0        2.458792    2.678151    0.000005
     19          1           0       -2.458792    2.678151    0.000001
     20          1           0        2.479064   -2.327978    0.000004
     21          1           0       -4.636954    1.444807   -0.000004
     22          1           0        4.636954    1.444808    0.000000
     23          8           0       -4.830158   -1.261060    0.000001
     24          1           0       -5.586626   -0.655352    0.000001
     25          8           0        4.830158   -1.261060   -0.000001
     26          1           0        5.586626   -0.655352   -0.000006
 ---------------------------------------------------------------------
 Rotational constants (GHZ):      0.9778325      0.2662248      0.2092535

 **********************************************************************

            Population analysis using the SCF density.

 **********************************************************************

 Orbital symmetries:
       Occupied  (A) (A) (A) (A) (A) (A) (A) (A) (A) (A) (A) (A)
                 (A) (A) (A) (A) (A) (A) (A) (A) (A) (A) (A) (A)
                 (A) (A) (A) (A) (A) (A) (A) (A) (A) (A) (A) (A)
                 (A) (A) (A) (A) (A) (A) (A) (A)
       Virtual   (A) (A) (A) (A) (A) (A) (A) (A) (A) (A) (A) (A)
                 (A) (A) (A) (A) (A) (A) (A) (A) (A) (A) (A) (A)
                 (A) (A) (A) (A) (A) (A) (A) (A) (A) (A) (A) (A)
 The electronic state is 1-A.
 Alpha  occ. eigenvalues --   -1.54022  -1.49292  -1.45709  -1.44972  -1.38730
 Alpha  occ. eigenvalues --   -1.36702  -1.22646  -1.18641  -1.16716  -1.11898
 Alpha  occ. eigenvalues --   -0.99593  -0.93264  -0.90309  -0.84973  -0.81373
 Alpha  occ. eigenvalues --   -0.77970  -0.72208  -0.69301  -0.69024  -0.63046
 Alpha  occ. eigenvalues --   -0.62940  -0.62218  -0.60343  -0.59698  -0.58460
 Alpha  occ. eigenvalues --   -0.57157  -0.55933  -0.55704  -0.55120  -0.54672
 Alpha  occ. eigenvalues --   -0.54303  -0.53455  -0.52386  -0.50776  -0.48069
 Alpha  occ. eigenvalues --   -0.47002  -0.46252  -0.45981  -0.41512  -0.39928
 Alpha  occ. eigenvalues --   -0.38229  -0.38005  -0.35648  -0.35137
 Alpha virt. eigenvalues --   -0.05207  -0.01579  -0.00947  -0.00085   0.04482
 Alpha virt. eigenvalues --    0.05228   0.08110   0.08130   0.09392   0.09690
 Alpha virt. eigenvalues --    0.10296   0.10760   0.11930   0.12282   0.12299
 Alpha virt. eigenvalues --    0.12774   0.13226   0.13413   0.14047   0.14614
 Alpha virt. eigenvalues --    0.14695   0.15640   0.16717   0.16775   0.16827
 Alpha virt. eigenvalues --    0.17193   0.17288   0.17707   0.17758   0.18539
 Alpha virt. eigenvalues --    0.19176   0.19199   0.21360   0.21375   0.22412
 Alpha virt. eigenvalues --    0.23331
          Condensed to atoms (all electrons):
               1          2          3          4          5          6
     1  C    3.697913   0.000000   0.000000   0.000000   0.000000   0.000000
     2  C    0.000000   4.072719   0.000000   0.000000   0.000000   0.000000
     3  C    0.000000   0.000000   4.072719   0.000000   0.000000   0.000000
     4  O    0.000000   0.000000   0.000000   6.273320   0.000000   0.000000
     5  C    0.000000   0.000000   0.000000   0.000000   3.685181   0.000000
     6  C    0.000000   0.000000   0.000000   0.000000   0.000000   4.146636
     7  O    0.000000   0.000000   0.000000   0.000000   0.000000   0.000000
     8  C    0.000000   0.000000   0.000000   0.000000   0.000000   0.000000
     9  C    0.000000   0.000000   0.000000   0.000000   0.000000   0.000000
    10  C    0.000000   0.000000   0.000000   0.000000   0.000000   0.000000
    11  C    0.000000   0.000000   0.000000   0.000000   0.000000   0.000000
    12  C    0.000000   0.000000   0.000000   0.000000   0.000000   0.000000
    13  C    0.000000   0.000000   0.000000   0.000000   0.000000   0.000000
    14  C    0.000000   0.000000   0.000000   0.000000   0.000000   0.000000
    15  C    0.000000   0.000000   0.000000   0.000000   0.000000   0.000000
    16  C    0.000000   0.000000   0.000000   0.000000   0.000000   0.000000
    17  H    0.000000   0.000000   0.000000   0.000000   0.000000   0.000000
    18  H    0.000000   0.000000   0.000000   0.000000   0.000000   0.000000
    19  H    0.000000   0.000000   0.000000   0.000000   0.000000   0.000000
    20  H    0.000000   0.000000   0.000000   0.000000   0.000000   0.000000
    21  H    0.000000   0.000000   0.000000   0.000000   0.000000   0.000000
    22  H    0.000000   0.000000   0.000000   0.000000   0.000000   0.000000
    23  O    0.000000   0.000000   0.000000   0.000000   0.000000   0.000000
    24  H    0.000000   0.000000   0.000000   0.000000   0.000000   0.000000
    25  O    0.000000   0.000000   0.000000   0.000000   0.000000   0.000000
    26  H    0.000000   0.000000   0.000000   0.000000   0.000000   0.000000
               7          8          9         10         11         12
     1  C    0.000000   0.000000   0.000000   0.000000   0.000000   0.000000
     2  C    0.000000   0.000000   0.000000   0.000000   0.000000   0.000000
     3  C    0.000000   0.000000   0.000000   0.000000   0.000000   0.000000
     4  O    0.000000   0.000000   0.000000   0.000000   0.000000   0.000000
     5  C    0.000000   0.000000   0.000000   0.000000   0.000000   0.000000
     6  C    0.000000   0.000000   0.000000   0.000000   0.000000   0.000000
     7  O    6.298855   0.000000   0.000000   0.000000   0.000000   0.000000
     8  C    0.000000   4.146636   0.000000   0.000000   0.000000   0.000000
     9  C    0.000000   0.000000   4.115133   0.000000   0.000000   0.000000
    10  C    0.000000   0.000000   0.000000   4.045221   0.000000   0.000000
    11  C    0.000000   0.000000   0.000000   0.000000   4.045221   0.000000
    12  C    0.000000   0.000000   0.000000   0.000000   0.000000   4.115133
    13  C    0.000000   0.000000   0.000000   0.000000   0.000000   0.000000
    14  C    0.000000   0.000000   0.000000   0.000000   0.000000   0.000000
    15  C    0.000000   0.000000   0.000000   0.000000   0.000000   0.000000
    16  C    0.000000   0.000000   0.000000   0.000000   0.000000   0.000000
    17  H    0.000000   0.000000   0.000000   0.000000   0.000000   0.000000
    18  H    0.000000   0.000000   0.000000   0.000000   0.000000   0.000000
    19  H    0.000000   0.000000   0.000000   0.000000   0.000000   0.000000
    20  H    0.000000   0.000000   0.000000   0.000000   0.000000   0.000000
    21  H    0.000000   0.000000   0.000000   0.000000   0.000000   0.000000
    22  H    0.000000   0.000000   0.000000   0.000000   0.000000   0.000000
    23  O    0.000000   0.000000   0.000000   0.000000   0.000000   0.000000
    24  H    0.000000   0.000000   0.000000   0.000000   0.000000   0.000000
    25  O    0.000000   0.000000   0.000000   0.000000   0.000000   0.000000
    26  H    0.000000   0.000000   0.000000   0.000000   0.000000   0.000000
              13         14         15         16         17         18
     1  C    0.000000   0.000000   0.000000   0.000000   0.000000   0.000000
     2  C    0.000000   0.000000   0.000000   0.000000   0.000000   0.000000
     3  C    0.000000   0.000000   0.000000   0.000000   0.000000   0.000000
     4  O    0.000000   0.000000   0.000000   0.000000   0.000000   0.000000
     5  C    0.000000   0.000000   0.000000   0.000000   0.000000   0.000000
     6  C    0.000000   0.000000   0.000000   0.000000   0.000000   0.000000
     7  O    0.000000   0.000000   0.000000   0.000000   0.000000   0.000000
     8  C    0.000000   0.000000   0.000000   0.000000   0.000000   0.000000
     9  C    0.000000   0.000000   0.000000   0.000000   0.000000   0.000000
    10  C    0.000000   0.000000   0.000000   0.000000   0.000000   0.000000
    11  C    0.000000   0.000000   0.000000   0.000000   0.000000   0.000000
    12  C    0.000000   0.000000   0.000000   0.000000   0.000000   0.000000
    13  C    3.903929   0.000000   0.000000   0.000000   0.000000   0.000000
    14  C    0.000000   4.206662   0.000000   0.000000   0.000000   0.000000
    15  C    0.000000   0.000000   3.903929   0.000000   0.000000   0.000000
    16  C    0.000000   0.000000   0.000000   4.206662   0.000000   0.000000
    17  H    0.000000   0.000000   0.000000   0.000000   0.821878   0.000000
    18  H    0.000000   0.000000   0.000000   0.000000   0.000000   0.837107
    19  H    0.000000   0.000000   0.000000   0.000000   0.000000   0.000000
    20  H    0.000000   0.000000   0.000000   0.000000   0.000000   0.000000
    21  H    0.000000   0.000000   0.000000   0.000000   0.000000   0.000000
    22  H    0.000000   0.000000   0.000000   0.000000   0.000000   0.000000
    23  O    0.000000   0.000000   0.000000   0.000000   0.000000   0.000000
    24  H    0.000000   0.000000   0.000000   0.000000   0.000000   0.000000
    25  O    0.000000   0.000000   0.000000   0.000000   0.000000   0.000000
    26  H    0.000000   0.000000   0.000000   0.000000   0.000000   0.000000
              19         20         21         22         23         24
     1  C    0.000000   0.000000   0.000000   0.000000   0.000000   0.000000
     2  C    0.000000   0.000000   0.000000   0.000000   0.000000   0.000000
     3  C    0.000000   0.000000   0.000000   0.000000   0.000000   0.000000
     4  O    0.000000   0.000000   0.000000   0.000000   0.000000   0.000000
     5  C    0.000000   0.000000   0.000000   0.000000   0.000000   0.000000
     6  C    0.000000   0.000000   0.000000   0.000000   0.000000   0.000000
     7  O    0.000000   0.000000   0.000000   0.000000   0.000000   0.000000
     8  C    0.000000   0.000000   0.000000   0.000000   0.000000   0.000000
     9  C    0.000000   0.000000   0.000000   0.000000   0.000000   0.000000
    10  C    0.000000   0.000000   0.000000   0.000000   0.000000   0.000000
    11  C    0.000000   0.000000   0.000000   0.000000   0.000000   0.000000
    12  C    0.000000   0.000000   0.000000   0.000000   0.000000   0.000000
    13  C    0.000000   0.000000   0.000000   0.000000   0.000000   0.000000
    14  C    0.000000   0.000000   0.000000   0.000000   0.000000   0.000000
    15  C    0.000000   0.000000   0.000000   0.000000   0.000000   0.000000
    16  C    0.000000   0.000000   0.000000   0.000000   0.000000   0.000000
    17  H    0.000000   0.000000   0.000000   0.000000   0.000000   0.000000
    18  H    0.000000   0.000000   0.000000   0.000000   0.000000   0.000000
    19  H    0.837107   0.000000   0.000000   0.000000   0.000000   0.000000
    20  H    0.000000   0.821878   0.000000   0.000000   0.000000   0.000000
    21  H    0.000000   0.000000   0.856594   0.000000   0.000000   0.000000
    22  H    0.000000   0.000000   0.000000   0.856594   0.000000   0.000000
    23  O    0.000000   0.000000   0.000000   0.000000   6.240679   0.000000
    24  H    0.000000   0.000000   0.000000   0.000000   0.000000   0.775808
    25  O    0.000000   0.000000   0.000000   0.000000   0.000000   0.000000
    26  H    0.000000   0.000000   0.000000   0.000000   0.000000   0.000000
              25         26
     1  C    0.000000   0.000000
     2  C    0.000000   0.000000
     3  C    0.000000   0.000000
     4  O    0.000000   0.000000
     5  C    0.000000   0.000000
     6  C    0.000000   0.000000
     7  O    0.000000   0.000000
     8  C    0.000000   0.000000
     9  C    0.000000   0.000000
    10  C    0.000000   0.000000
    11  C    0.000000   0.000000
    12  C    0.000000   0.000000
    13  C    0.000000   0.000000
    14  C    0.000000   0.000000
    15  C    0.000000   0.000000
    16  C    0.000000   0.000000
    17  H    0.000000   0.000000
    18  H    0.000000   0.000000
    19  H    0.000000   0.000000
    20  H    0.000000   0.000000
    21  H    0.000000   0.000000
    22  H    0.000000   0.000000
    23  O    0.000000   0.000000
    24  H    0.000000   0.000000
    25  O    6.240679   0.000000
    26  H    0.000000   0.775808
 Mulliken charges:
               1
     1  C    0.302087
     2  C   -0.072719
     3  C   -0.072719
     4  O   -0.273320
     5  C    0.314819
     6  C   -0.146636
     7  O   -0.298855
     8  C   -0.146636
     9  C   -0.115133
    10  C   -0.045221
    11  C   -0.045221
    12  C   -0.115133
    13  C    0.096071
    14  C   -0.206662
    15  C    0.096071
    16  C   -0.206662
    17  H    0.178122
    18  H    0.162893
    19  H    0.162893
    20  H    0.178122
    21  H    0.143406
    22  H    0.143406
    23  O   -0.240679
    24  H    0.224192
    25  O   -0.240679
    26  H    0.224192
 Sum of Mulliken charges =  -0.00000
 Mulliken charges with hydrogens summed into heavy atoms:
               1
     1  C    0.302087
     2  C   -0.072719
     3  C   -0.072719
     4  O   -0.273320
     5  C    0.314819
     6  C   -0.146636
     7  O   -0.298855
     8  C   -0.146636
     9  C    0.062989
    10  C    0.117672
    11  C    0.117672
    12  C    0.062989
    13  C    0.096071
    14  C   -0.063256
    15  C    0.096071
    16  C   -0.063256
    23  O   -0.016486
    25  O   -0.016486
 Charge=             -0.0000 electrons
 Dipole moment (field-independent basis, Debye):
    X=              0.0000    Y=              2.0685    Z=              0.0002  Tot=              2.0685
 N-N= 6.580469267356D+02 E-N=-1.187338006417D+03  KE=-6.206993060655D+01
 1\1\GINC-GTX1080DELTA\FOpt\RAM1\ZDO\C14H8O4\MVEROT\11-Apr-2022\0\\#n A
 M1 Opt\\Geometry optimization\\0,1\C,0.0043018188,1.4680461653,0.00034
 13332\C,1.2636789912,0.6893962792,0.0001874874\C,-1.2622477285,0.70111
 78826,0.0001433237\O,0.0100482533,2.7063660911,0.0005585814\C,-0.00937
 91774,-1.4801318619,-0.0003075801\C,-1.2649354796,-0.705055251,-0.0001
 66025\O,-0.0151364426,-2.7208164,-0.0006330694\C,1.2533163301,-0.71674
 10425,-0.0001233038\C,2.4738720391,1.3828189662,0.0003589983\C,-2.4834
 992182,-1.3946607137,-0.0003446032\C,2.4654276652,-1.4176261201,-0.000
 2613068\C,-2.4659530827,1.4057420771,0.0002716358\C,3.6815483988,0.661
 4431761,0.0002185545\C,3.6811832163,-0.7397815997,-0.0000922473\C,-3.6
 802725453,0.6956053776,0.000090074\C,-3.6929117406,-0.705562261,-0.000
 2182955\H,2.4881112187,2.484945017,0.000602354\H,-2.4729218749,-2.4982
 167957,-0.000587715\H,2.4446086491,-2.521036495,-0.0005066331\H,-2.469
 9635912,2.50795284,0.0005131855\H,4.6284710714,-1.297813322,-0.0002017
 342\H,-4.6453375727,-1.2547787435,-0.0003591985\O,4.8342293985,1.40712
 85329,0.0004014332\H,5.5878783115,0.7979162906,0.0002818044\O,-4.82598
 3163,1.4519566354,0.0002324275\H,-5.5852537439,0.849765275,0.000080509
 7\\Version=AM64L-G09RevD.01\State=1-A\HF=-0.1502023\RMSD=5.855e-09\RMS
 F=5.153e-05\Dipole=-0.0037772,-0.8137935,-0.0001175\PG=C01 [X(C14H8O4)
 ]\\@


 AND HERE I AM, FOR ALL MY LORE,
 THE WRETCHED FOOL I WAS BEFORE.
 CALLED MASTER OF ARTS, AND DOCTOR TO BOOT,
 FOR TEN YEARS ALMOST I CONFUTE
 AND UP AND DOWN, WHEREVER IT GOES
 I DRAG MY STUDENTS BY THE NOSE --
 AND SEE THAT FOR ALL OUR SCIENCE AND ART
 WE CAN KNOW NOTHING.  IT BURNS MY HEART.

                                       -- FAUST
 Job cpu time:       0 days  0 hours  0 minutes  3.4 seconds.
 File lengths (MBytes):  RWF=    132 Int=      0 D2E=      0 Chk=      3 Scr=      2
 Normal termination of Gaussian 09 at Mon Apr 11 23:41:27 2022.
