 Entering Gaussian System, Link 0=g09
 Input=/scratch/mverot/1-3-propanediol-open-opt/1-3-propanediol-open-opt.com
 Output=/scratch/mverot/1-3-propanediol-open-opt/1-3-propanediol-open-opt.log
 Initial command:
 /opt/g09/l1.exe "/scratch/mverot/1-3-propanediol-open-opt/Gau-1476990.inp" -scrdir="/scratch/mverot/1-3-propanediol-open-opt/"
 Entering Link 1 = /opt/g09/l1.exe PID=   1476993.
  
 Copyright (c) 1988,1990,1992,1993,1995,1998,2003,2009,2013,
            Gaussian, Inc.  All Rights Reserved.
  
 This is part of the Gaussian(R) 09 program.  It is based on
 the Gaussian(R) 03 system (copyright 2003, Gaussian, Inc.),
 the Gaussian(R) 98 system (copyright 1998, Gaussian, Inc.),
 the Gaussian(R) 94 system (copyright 1995, Gaussian, Inc.),
 the Gaussian 92(TM) system (copyright 1992, Gaussian, Inc.),
 the Gaussian 90(TM) system (copyright 1990, Gaussian, Inc.),
 the Gaussian 88(TM) system (copyright 1988, Gaussian, Inc.),
 the Gaussian 86(TM) system (copyright 1986, Carnegie Mellon
 University), and the Gaussian 82(TM) system (copyright 1983,
 Carnegie Mellon University). Gaussian is a federally registered
 trademark of Gaussian, Inc.
  
 This software contains proprietary and confidential information,
 including trade secrets, belonging to Gaussian, Inc.
  
 This software is provided under written license and may be
 used, copied, transmitted, or stored only in accord with that
 written license.
  
 The following legend is applicable only to US Government
 contracts under FAR:
  
                    RESTRICTED RIGHTS LEGEND
  
 Use, reproduction and disclosure by the US Government is
 subject to restrictions as set forth in subparagraphs (a)
 and (c) of the Commercial Computer Software - Restricted
 Rights clause in FAR 52.227-19.
  
 Gaussian, Inc.
 340 Quinnipiac St., Bldg. 40, Wallingford CT 06492
  
  
 ---------------------------------------------------------------
 Warning -- This program may not be used in any manner that
 competes with the business of Gaussian, Inc. or will provide
 assistance to any competitor of Gaussian, Inc.  The licensee
 of this program is prohibited from giving any competitor of
 Gaussian, Inc. access to this program.  By using this program,
 the user acknowledges that Gaussian, Inc. is engaged in the
 business of creating and licensing software in the field of
 computational chemistry and represents and warrants to the
 licensee that it is not a competitor of Gaussian, Inc. and that
 it will not use this program in any manner prohibited above.
 ---------------------------------------------------------------
  

 Cite this work as:
 Gaussian 09, Revision D.01,
 M. J. Frisch, G. W. Trucks, H. B. Schlegel, G. E. Scuseria, 
 M. A. Robb, J. R. Cheeseman, G. Scalmani, V. Barone, B. Mennucci, 
 G. A. Petersson, H. Nakatsuji, M. Caricato, X. Li, H. P. Hratchian, 
 A. F. Izmaylov, J. Bloino, G. Zheng, J. L. Sonnenberg, M. Hada, 
 M. Ehara, K. Toyota, R. Fukuda, J. Hasegawa, M. Ishida, T. Nakajima, 
 Y. Honda, O. Kitao, H. Nakai, T. Vreven, J. A. Montgomery, Jr., 
 J. E. Peralta, F. Ogliaro, M. Bearpark, J. J. Heyd, E. Brothers, 
 K. N. Kudin, V. N. Staroverov, T. Keith, R. Kobayashi, J. Normand, 
 K. Raghavachari, A. Rendell, J. C. Burant, S. S. Iyengar, J. Tomasi, 
 M. Cossi, N. Rega, J. M. Millam, M. Klene, J. E. Knox, J. B. Cross, 
 V. Bakken, C. Adamo, J. Jaramillo, R. Gomperts, R. E. Stratmann, 
 O. Yazyev, A. J. Austin, R. Cammi, C. Pomelli, J. W. Ochterski, 
 R. L. Martin, K. Morokuma, V. G. Zakrzewski, G. A. Voth, 
 P. Salvador, J. J. Dannenberg, S. Dapprich, A. D. Daniels, 
 O. Farkas, J. B. Foresman, J. V. Ortiz, J. Cioslowski, 
 and D. J. Fox, Gaussian, Inc., Wallingford CT, 2013.
 
 ******************************************
 Gaussian 09:  AM64L-G09RevD.01 24-Apr-2013
                17-Apr-2022 
 ******************************************
 %chk=1-3-propanediol-open-opt
 ----------
 #n PM3 Opt
 ----------
 1/14=-1,18=20,19=15,26=1,38=1/1,3;
 2/9=110,12=2,17=6,18=5,40=1/2;
 3/5=2,16=1,25=1,41=800000,71=1/1,2,3;
 4/35=1/1;
 5/5=2,35=1,38=5/2;
 6/7=2,8=2,9=2,10=2,28=1/1;
 7//1,2,3,16;
 1/14=-1,18=20,19=15,26=1/3(2);
 2/9=110/2;
 99//99;
 2/9=110/2;
 3/5=2,16=1,25=1,41=800000,71=1,135=20/1,2,3;
 4/5=5,16=3,35=1/1;
 5/5=2,35=1,38=5/2;
 7//1,2,3,16;
 1/14=-1,18=20,19=15,26=1/3(-5);
 2/9=110/2;
 6/7=2,8=2,9=2,10=2,19=2,28=1/1;
 99/9=1/99;
 -------------------------
 Optimisation de geometrie
 -------------------------
 Symbolic Z-matrix:
 Charge =  0 Multiplicity = 1
 C                     1.35234   2.2671    1.22173 
 O                     0.00813   2.03948   0.8116 
 C                     2.07311   0.92948   1.30359 
 C                     3.47119   1.06237   1.88454 
 O                     4.25953   1.9209    1.07292 
 H                     1.3328    2.76292   2.19737 
 H                     1.82988   2.93046   0.49372 
 H                    -0.4074    2.91344   0.714 
 H                     2.12648   0.50186   0.29456 
 H                     1.48589   0.22668   1.90634 
 H                     3.95461   0.08103   1.92404 
 H                     3.43572   1.47544   2.89774 
 H                     5.165     1.89747   1.42856 
 

 GradGradGradGradGradGradGradGradGradGradGradGradGradGradGradGradGradGrad
 Berny optimization.
 Initialization pass.
                           ----------------------------
                           !    Initial Parameters    !
                           ! (Angstroms and Degrees)  !
 --------------------------                            --------------------------
 ! Name  Definition              Value          Derivative Info.                !
 --------------------------------------------------------------------------------
 ! R1    R(1,2)                  1.4237         estimate D2E/DX2                !
 ! R2    R(1,3)                  1.5217         estimate D2E/DX2                !
 ! R3    R(1,6)                  1.0946         estimate D2E/DX2                !
 ! R4    R(1,7)                  1.0946         estimate D2E/DX2                !
 ! R5    R(2,8)                  0.9726         estimate D2E/DX2                !
 ! R6    R(3,4)                  1.5198         estimate D2E/DX2                !
 ! R7    R(3,9)                  1.0972         estimate D2E/DX2                !
 ! R8    R(3,10)                 1.0964         estimate D2E/DX2                !
 ! R9    R(4,5)                  1.4203         estimate D2E/DX2                !
 ! R10   R(4,11)                 1.0947         estimate D2E/DX2                !
 ! R11   R(4,12)                 1.0947         estimate D2E/DX2                !
 ! R12   R(5,13)                 0.9731         estimate D2E/DX2                !
 ! A1    A(2,1,3)              108.795          estimate D2E/DX2                !
 ! A2    A(2,1,6)              108.2003         estimate D2E/DX2                !
 ! A3    A(2,1,7)              108.4946         estimate D2E/DX2                !
 ! A4    A(3,1,6)              111.0203         estimate D2E/DX2                !
 ! A5    A(3,1,7)              111.2153         estimate D2E/DX2                !
 ! A6    A(6,1,7)              109.0323         estimate D2E/DX2                !
 ! A7    A(1,2,8)              106.7753         estimate D2E/DX2                !
 ! A8    A(1,3,4)              112.2989         estimate D2E/DX2                !
 ! A9    A(1,3,9)              108.4313         estimate D2E/DX2                !
 ! A10   A(1,3,10)             109.8382         estimate D2E/DX2                !
 ! A11   A(4,3,9)              109.9298         estimate D2E/DX2                !
 ! A12   A(4,3,10)             109.7917         estimate D2E/DX2                !
 ! A13   A(9,3,10)             106.3681         estimate D2E/DX2                !
 ! A14   A(3,4,5)              110.1826         estimate D2E/DX2                !
 ! A15   A(3,4,11)             109.9776         estimate D2E/DX2                !
 ! A16   A(3,4,12)             110.9142         estimate D2E/DX2                !
 ! A17   A(5,4,11)             108.5053         estimate D2E/DX2                !
 ! A18   A(5,4,12)             108.5892         estimate D2E/DX2                !
 ! A19   A(11,4,12)            108.6129         estimate D2E/DX2                !
 ! A20   A(4,5,13)             107.0422         estimate D2E/DX2                !
 ! D1    D(3,1,2,8)           -176.4582         estimate D2E/DX2                !
 ! D2    D(6,1,2,8)             62.8277         estimate D2E/DX2                !
 ! D3    D(7,1,2,8)            -55.333          estimate D2E/DX2                !
 ! D4    D(2,1,3,4)           -173.5853         estimate D2E/DX2                !
 ! D5    D(2,1,3,9)             64.7455         estimate D2E/DX2                !
 ! D6    D(2,1,3,10)           -51.1046         estimate D2E/DX2                !
 ! D7    D(6,1,3,4)            -54.6231         estimate D2E/DX2                !
 ! D8    D(6,1,3,9)           -176.2924         estimate D2E/DX2                !
 ! D9    D(6,1,3,10)            67.8576         estimate D2E/DX2                !
 ! D10   D(7,1,3,4)             66.972          estimate D2E/DX2                !
 ! D11   D(7,1,3,9)            -54.6972         estimate D2E/DX2                !
 ! D12   D(7,1,3,10)          -170.5473         estimate D2E/DX2                !
 ! D13   D(1,3,4,5)            -60.3121         estimate D2E/DX2                !
 ! D14   D(1,3,4,11)          -179.8787         estimate D2E/DX2                !
 ! D15   D(1,3,4,12)            59.9569         estimate D2E/DX2                !
 ! D16   D(9,3,4,5)             60.4977         estimate D2E/DX2                !
 ! D17   D(9,3,4,11)           -59.0689         estimate D2E/DX2                !
 ! D18   D(9,3,4,12)          -179.2332         estimate D2E/DX2                !
 ! D19   D(10,3,4,5)           177.1809         estimate D2E/DX2                !
 ! D20   D(10,3,4,11)           57.6143         estimate D2E/DX2                !
 ! D21   D(10,3,4,12)          -62.5501         estimate D2E/DX2                !
 ! D22   D(3,4,5,13)          -174.0016         estimate D2E/DX2                !
 ! D23   D(11,4,5,13)          -53.5453         estimate D2E/DX2                !
 ! D24   D(12,4,5,13)           64.3379         estimate D2E/DX2                !
 --------------------------------------------------------------------------------
 Trust Radius=3.00D-01 FncErr=1.00D-07 GrdErr=1.00D-07
 Number of steps in this run=     66 maximum allowed number of steps=    100.
 GradGradGradGradGradGradGradGradGradGradGradGradGradGradGradGradGradGrad

                          Input orientation:                          
 ---------------------------------------------------------------------
 Center     Atomic      Atomic             Coordinates (Angstroms)
 Number     Number       Type             X           Y           Z
 ---------------------------------------------------------------------
      1          6           0        1.352340    2.267100    1.221730
      2          8           0        0.008130    2.039480    0.811600
      3          6           0        2.073110    0.929480    1.303590
      4          6           0        3.471190    1.062370    1.884540
      5          8           0        4.259530    1.920900    1.072920
      6          1           0        1.332800    2.762920    2.197370
      7          1           0        1.829880    2.930460    0.493720
      8          1           0       -0.407400    2.913440    0.714000
      9          1           0        2.126480    0.501860    0.294560
     10          1           0        1.485890    0.226680    1.906340
     11          1           0        3.954610    0.081030    1.924040
     12          1           0        3.435720    1.475440    2.897740
     13          1           0        5.165000    1.897470    1.428560
 ---------------------------------------------------------------------
                    Distance matrix (angstroms):
                    1          2          3          4          5
     1  C    0.000000
     2  O    1.423699   0.000000
     3  C    1.521656   2.395474   0.000000
     4  C    2.525909   3.754827   1.519799   0.000000
     5  O    2.931510   4.261074   2.411753   1.420310   0.000000
     6  H    1.094574   2.049018   2.169886   2.749990   3.246403
     7  H    1.094573   2.052722   2.172319   2.849217   2.694046
     8  H    1.942223   0.972624   3.230579   4.454221   4.784788
     9  H    2.138927   2.668148   1.097200   2.156491   2.677577
    10  H    2.156349   2.582339   1.096386   2.154128   3.355302
    11  H    3.470440   4.543980   2.155196   1.094661   2.050001
    12  H    2.788585   4.051974   2.167047   1.094742   2.051113
    13  H    3.836115   5.195586   3.242284   1.942756   0.973090
                    6          7          8          9         10
     6  H    0.000000
     7  H    1.782577   0.000000
     8  H    2.291580   2.248163   0.000000
     9  H    3.059903   2.454737   3.523095   0.000000
    10  H    2.557469   3.069894   3.496413   1.756108   0.000000
    11  H    3.760470   3.831389   5.339838   2.484826   2.473076
    12  H    2.563278   3.236529   4.648240   3.072216   2.518752
    13  H    4.003227   3.614418   5.709153   3.530763   4.068865
                   11         12         13
    11  H    0.000000
    12  H    1.778122   0.000000
    13  H    2.238303   2.308031   0.000000
 Stoichiometry    C3H8O2
 Framework group  C1[X(C3H8O2)]
 Deg. of freedom    33
 Full point group                 C1      NOp   1
 Largest Abelian subgroup         C1      NOp   1
 Largest concise Abelian subgroup C1      NOp   1
                         Standard orientation:                         
 ---------------------------------------------------------------------
 Center     Atomic      Atomic             Coordinates (Angstroms)
 Number     Number       Type             X           Y           Z
 ---------------------------------------------------------------------
      1          6           0        0.983047   -0.379238    0.235436
      2          8           0        2.313491   -0.027686   -0.129593
      3          6           0        0.041097    0.724557   -0.222610
      4          6           0       -1.382330    0.506446    0.263262
      5          8           0       -1.889341   -0.721005   -0.240311
      6          1           0        0.947370   -0.499722    1.322774
      7          1           0        0.733981   -1.334242   -0.237874
      8          1           0        2.881201   -0.775410    0.124596
      9          1           0        0.060144    0.764089   -1.318933
     10          1           0        0.408254    1.696314    0.128026
     11          1           0       -2.026219    1.318786   -0.088582
     12          1           0       -1.421900    0.477923    1.356916
     13          1           0       -2.826911   -0.768796    0.015782
 ---------------------------------------------------------------------
 Rotational constants (GHZ):     13.7431319      2.4037000      2.2010294
 Standard basis: VSTO-6G (5D, 7F)
 There are    28 symmetry adapted cartesian basis functions of A   symmetry.
 There are    28 symmetry adapted basis functions of A   symmetry.
    28 basis functions,   168 primitive gaussians,    28 cartesian basis functions
    16 alpha electrons       16 beta electrons
       nuclear repulsion energy       134.2392065382 Hartrees.
 Integral buffers will be    131072 words long.
 Regular integral format.
 Two-electron integral symmetry is turned off.
 Do NDO integrals.
 One-electron integrals computed using PRISM.
 NBasis=    28 RedAO= F EigKep=  0.00D+00  NBF=    28
 NBsUse=    28 1.00D-04 EigRej=  0.00D+00 NBFU=    28
 Simple Huckel Guess.
 Overlap will be assumed to be unity.
 Keep J ints in memory in canonical form, NReq=891302.
 Requested convergence on RMS density matrix=1.00D-08 within 128 cycles.
 Requested convergence on MAX density matrix=1.00D-06.
 Requested convergence on             energy=1.00D-06.
 No special actions if energy rises.
 SCF Done:  E(RPM3) = -0.156821350123     A.U. after   13 cycles
            NFock= 12  Conv=0.65D-08     -V/T= 0.9930

 **********************************************************************

            Population analysis using the SCF density.

 **********************************************************************

 Orbital symmetries:
       Occupied  (A) (A) (A) (A) (A) (A) (A) (A) (A) (A) (A) (A)
                 (A) (A) (A) (A)
       Virtual   (A) (A) (A) (A) (A) (A) (A) (A) (A) (A) (A) (A)
 The electronic state is 1-A.
 Alpha  occ. eigenvalues --   -1.45639  -1.35837  -1.16621  -0.91188  -0.77181
 Alpha  occ. eigenvalues --   -0.67105  -0.64408  -0.61010  -0.57444  -0.54565
 Alpha  occ. eigenvalues --   -0.52986  -0.47636  -0.46358  -0.45253  -0.40614
 Alpha  occ. eigenvalues --   -0.39788
 Alpha virt. eigenvalues --    0.11144   0.12093   0.13497   0.14216   0.14476
 Alpha virt. eigenvalues --    0.15249   0.15415   0.16637   0.17493   0.18174
 Alpha virt. eigenvalues --    0.20083   0.20743
          Condensed to atoms (all electrons):
               1          2          3          4          5          6
     1  C    3.922687   0.000000   0.000000   0.000000   0.000000   0.000000
     2  O    0.000000   6.322636   0.000000   0.000000   0.000000   0.000000
     3  C    0.000000   0.000000   4.124019   0.000000   0.000000   0.000000
     4  C    0.000000   0.000000   0.000000   3.917579   0.000000   0.000000
     5  O    0.000000   0.000000   0.000000   0.000000   6.319407   0.000000
     6  H    0.000000   0.000000   0.000000   0.000000   0.000000   0.980065
     7  H    0.000000   0.000000   0.000000   0.000000   0.000000   0.000000
     8  H    0.000000   0.000000   0.000000   0.000000   0.000000   0.000000
     9  H    0.000000   0.000000   0.000000   0.000000   0.000000   0.000000
    10  H    0.000000   0.000000   0.000000   0.000000   0.000000   0.000000
    11  H    0.000000   0.000000   0.000000   0.000000   0.000000   0.000000
    12  H    0.000000   0.000000   0.000000   0.000000   0.000000   0.000000
    13  H    0.000000   0.000000   0.000000   0.000000   0.000000   0.000000
               7          8          9         10         11         12
     1  C    0.000000   0.000000   0.000000   0.000000   0.000000   0.000000
     2  O    0.000000   0.000000   0.000000   0.000000   0.000000   0.000000
     3  C    0.000000   0.000000   0.000000   0.000000   0.000000   0.000000
     4  C    0.000000   0.000000   0.000000   0.000000   0.000000   0.000000
     5  O    0.000000   0.000000   0.000000   0.000000   0.000000   0.000000
     6  H    0.000000   0.000000   0.000000   0.000000   0.000000   0.000000
     7  H    0.963711   0.000000   0.000000   0.000000   0.000000   0.000000
     8  H    0.000000   0.813642   0.000000   0.000000   0.000000   0.000000
     9  H    0.000000   0.000000   0.932726   0.000000   0.000000   0.000000
    10  H    0.000000   0.000000   0.000000   0.933755   0.000000   0.000000
    11  H    0.000000   0.000000   0.000000   0.000000   0.978940   0.000000
    12  H    0.000000   0.000000   0.000000   0.000000   0.000000   0.977871
    13  H    0.000000   0.000000   0.000000   0.000000   0.000000   0.000000
              13
     1  C    0.000000
     2  O    0.000000
     3  C    0.000000
     4  C    0.000000
     5  O    0.000000
     6  H    0.000000
     7  H    0.000000
     8  H    0.000000
     9  H    0.000000
    10  H    0.000000
    11  H    0.000000
    12  H    0.000000
    13  H    0.812963
 Mulliken charges:
               1
     1  C    0.077313
     2  O   -0.322636
     3  C   -0.124019
     4  C    0.082421
     5  O   -0.319407
     6  H    0.019935
     7  H    0.036289
     8  H    0.186358
     9  H    0.067274
    10  H    0.066245
    11  H    0.021060
    12  H    0.022129
    13  H    0.187037
 Sum of Mulliken charges =  -0.00000
 Mulliken charges with hydrogens summed into heavy atoms:
               1
     1  C    0.133538
     2  O   -0.136278
     3  C    0.009500
     4  C    0.125610
     5  O   -0.132370
 Charge=              0.0000 electrons
 Dipole moment (field-independent basis, Debye):
    X=             -1.2507    Y=             -0.2253    Z=              1.3616  Tot=              1.8625
 N-N= 1.342392065382D+02 E-N=-2.234449544688D+02  KE=-2.247444372851D+01
 Calling FoFJK, ICntrl=      2127 FMM=F ISym2X=0 I1Cent= 0 IOpClX= 0 NMat=1 NMatS=1 NMatT=0.
 ***** Axes restored to original set *****
 -------------------------------------------------------------------
 Center     Atomic                   Forces (Hartrees/Bohr)
 Number     Number              X              Y              Z
 -------------------------------------------------------------------
      1        6          -0.015338690   -0.000982959   -0.003513104
      2        8          -0.002862633    0.017853087   -0.000178399
      3        6          -0.000127282    0.007175275   -0.005569811
      4        6           0.007728653    0.008142720   -0.006852016
      5        8           0.015915215   -0.003470741    0.009202547
      6        1           0.001799696    0.004148539    0.006749041
      7        1           0.004810694    0.005003112   -0.003333893
      8        1           0.012647750   -0.021716002    0.002939562
      9        1           0.000446100   -0.004616875   -0.006346353
     10        1          -0.002323169   -0.005467233    0.004806944
     11        1           0.002355409   -0.007280075    0.001929945
     12        1          -0.000511712    0.002133277    0.007794673
     13        1          -0.024540031   -0.000922124   -0.007629137
 -------------------------------------------------------------------
 Cartesian Forces:  Max     0.024540031 RMS     0.008557277

 GradGradGradGradGradGradGradGradGradGradGradGradGradGradGradGradGradGrad
 Berny optimization.
 FormGI is forming the generalized inverse of G from B-inverse, IUseBI=4.
 GSVD:  received Info=                   1 from GESDD.
 Internal  Forces:  Max     0.025600793 RMS     0.005976286
 Search for a local minimum.
 Step number   1 out of a maximum of   66
 All quantities printed in internal units (Hartrees-Bohrs-Radians)
 Mixed Optimization -- RFO/linear search
 Second derivative matrix not updated -- first step.
 ITU=  0
     Eigenvalues ---    0.00479   0.00504   0.01378   0.01423   0.03653
     Eigenvalues ---    0.04928   0.05169   0.05298   0.05714   0.05826
     Eigenvalues ---    0.08351   0.11407   0.11492   0.12201   0.13697
     Eigenvalues ---    0.13805   0.16000   0.16000   0.21891   0.22017
     Eigenvalues ---    0.22036   0.30208   0.30386   0.33994   0.34085
     Eigenvalues ---    0.34270   0.34279   0.34289   0.34289   0.41908
     Eigenvalues ---    0.42414   0.52750   0.52844
 RFO step:  Lambda=-4.99715284D-03 EMin= 4.79476882D-03
 Linear search not attempted -- first point.
 Iteration  1 RMS(Cart)=  0.02798558 RMS(Int)=  0.00032570
 Iteration  2 RMS(Cart)=  0.00034556 RMS(Int)=  0.00007970
 Iteration  3 RMS(Cart)=  0.00000011 RMS(Int)=  0.00007970
 Variable       Old X    -DE/DX   Delta X   Delta X   Delta X     New X
                                 (Linear)    (Quad)   (Total)
    R1        2.69040  -0.00942   0.00000  -0.02220  -0.02220   2.66820
    R2        2.87551   0.00314   0.00000   0.01023   0.01023   2.88574
    R3        2.06845   0.00786   0.00000   0.02260   0.02260   2.09105
    R4        2.06844   0.00735   0.00000   0.02112   0.02112   2.08957
    R5        1.83799  -0.02521   0.00000  -0.04726  -0.04726   1.79073
    R6        2.87200   0.00245   0.00000   0.00793   0.00793   2.87993
    R7        2.07341   0.00766   0.00000   0.02220   0.02220   2.09561
    R8        2.07187   0.00739   0.00000   0.02137   0.02137   2.09324
    R9        2.68400  -0.00834   0.00000  -0.01944  -0.01944   2.66456
   R10        2.06861   0.00764   0.00000   0.02196   0.02196   2.09057
   R11        2.06876   0.00804   0.00000   0.02311   0.02311   2.09187
   R12        1.83887  -0.02560   0.00000  -0.04808  -0.04808   1.79080
    A1        1.89883  -0.00680   0.00000  -0.02854  -0.02849   1.87034
    A2        1.88845   0.00316   0.00000   0.01856   0.01846   1.90691
    A3        1.89359   0.00339   0.00000   0.02138   0.02131   1.91490
    A4        1.93767   0.00091   0.00000  -0.00044  -0.00036   1.93731
    A5        1.94107   0.00090   0.00000   0.00022   0.00032   1.94139
    A6        1.90297  -0.00141   0.00000  -0.01003  -0.01018   1.89279
    A7        1.86358  -0.00392   0.00000  -0.02373  -0.02373   1.83985
    A8        1.95999  -0.00159   0.00000  -0.00657  -0.00670   1.95328
    A9        1.89248   0.00175   0.00000   0.02429   0.02422   1.91671
   A10        1.91704   0.00112   0.00000   0.00123   0.00098   1.91802
   A11        1.91864   0.00045   0.00000   0.00805   0.00799   1.92663
   A12        1.91623  -0.00110   0.00000  -0.02214  -0.02221   1.89402
   A13        1.85647  -0.00054   0.00000  -0.00410  -0.00412   1.85235
   A14        1.92305  -0.00614   0.00000  -0.02661  -0.02658   1.89647
   A15        1.91947   0.00087   0.00000   0.00100   0.00107   1.92054
   A16        1.93582   0.00112   0.00000   0.00228   0.00234   1.93815
   A17        1.89378   0.00279   0.00000   0.01612   0.01606   1.90984
   A18        1.89524   0.00262   0.00000   0.01409   0.01404   1.90927
   A19        1.89565  -0.00113   0.00000  -0.00612  -0.00621   1.88944
   A20        1.86824  -0.00445   0.00000  -0.02699  -0.02699   1.84125
    D1       -3.07978   0.00008   0.00000   0.00468   0.00469  -3.07509
    D2        1.09655   0.00109   0.00000   0.01092   0.01114   1.10769
    D3       -0.96574  -0.00086   0.00000   0.00074   0.00051  -0.96523
    D4       -3.02964   0.00089   0.00000   0.01941   0.01944  -3.01020
    D5        1.13002   0.00014   0.00000  -0.00318  -0.00319   1.12683
    D6       -0.89194  -0.00081   0.00000  -0.01261  -0.01265  -0.90459
    D7       -0.95335   0.00105   0.00000   0.02404   0.02410  -0.92926
    D8       -3.07688   0.00030   0.00000   0.00145   0.00147  -3.07542
    D9        1.18434  -0.00065   0.00000  -0.00798  -0.00799   1.17635
   D10        1.16888   0.00050   0.00000   0.01110   0.01111   1.18000
   D11       -0.95465  -0.00025   0.00000  -0.01150  -0.01152  -0.96616
   D12       -2.97661  -0.00120   0.00000  -0.02093  -0.02097  -2.99759
   D13       -1.05264  -0.00085   0.00000  -0.04271  -0.04264  -1.09529
   D14       -3.13948  -0.00100   0.00000  -0.04660  -0.04655   3.09716
   D15        1.04645  -0.00087   0.00000  -0.04107  -0.04099   1.00545
   D16        1.05588   0.00063   0.00000  -0.01066  -0.01065   1.04524
   D17       -1.03095   0.00048   0.00000  -0.01455  -0.01455  -1.04550
   D18       -3.12821   0.00061   0.00000  -0.00902  -0.00900  -3.13721
   D19        3.09239  -0.00041   0.00000  -0.02392  -0.02399   3.06840
   D20        1.00556  -0.00056   0.00000  -0.02780  -0.02790   0.97766
   D21       -1.09170  -0.00043   0.00000  -0.02228  -0.02234  -1.11404
   D22       -3.03690   0.00004   0.00000  -0.00039  -0.00038  -3.03728
   D23       -0.93454  -0.00087   0.00000  -0.00520  -0.00535  -0.93989
   D24        1.12291   0.00080   0.00000   0.00433   0.00446   1.12737
         Item               Value     Threshold  Converged?
 Maximum Force            0.025601     0.000450     NO 
 RMS     Force            0.005976     0.000300     NO 
 Maximum Displacement     0.083594     0.001800     NO 
 RMS     Displacement     0.028022     0.001200     NO 
 Predicted change in Energy=-2.559131D-03
 GradGradGradGradGradGradGradGradGradGradGradGradGradGradGradGradGradGrad

                          Input orientation:                          
 ---------------------------------------------------------------------
 Center     Atomic      Atomic             Coordinates (Angstroms)
 Number     Number       Type             X           Y           Z
 ---------------------------------------------------------------------
      1          6           0        1.353223    2.282674    1.222746
      2          8           0        0.025930    2.023758    0.816724
      3          6           0        2.076448    0.939047    1.282346
      4          6           0        3.469422    1.069186    1.886703
      5          8           0        4.245412    1.903503    1.056088
      6          1           0        1.342446    2.771583    2.215354
      7          1           0        1.837404    2.966430    0.501130
      8          1           0       -0.381510    2.874895    0.729937
      9          1           0        2.135733    0.498566    0.266360
     10          1           0        1.492823    0.223655    1.894382
     11          1           0        3.946623    0.073605    1.957092
     12          1           0        3.422560    1.503979    2.903632
     13          1           0        5.120764    1.877748    1.418215
 ---------------------------------------------------------------------
                    Distance matrix (angstroms):
                    1          2          3          4          5
     1  C    0.000000
     2  O    1.411948   0.000000
     3  C    1.527069   2.366015   0.000000
     4  C    2.528180   3.730108   1.523995   0.000000
     5  O    2.921695   4.227977   2.384487   1.410024   0.000000
     6  H    1.106534   2.061219   2.183450   2.744120   3.244175
     7  H    1.105750   2.066318   2.185800   2.860565   2.690036
     8  H    1.898126   0.947614   3.177140   4.407762   4.739028
     9  H    2.170263   2.660899   1.108948   2.174821   2.654857
    10  H    2.170286   2.559979   1.107696   2.149866   3.331872
    11  H    3.484964   4.524971   2.168369   1.106280   2.061458
    12  H    2.777391   4.020255   2.181682   1.106971   2.061583
    13  H    3.794277   5.132294   3.188649   1.897415   0.947649
                    6          7          8          9         10
     6  H    0.000000
     7  H    1.794858   0.000000
     8  H    2.277973   2.232557   0.000000
     9  H    3.097497   2.496892   3.492614   0.000000
    10  H    2.572465   3.095594   3.449366   1.771825   0.000000
    11  H    3.758659   3.864850   5.299610   2.513660   2.459183
    12  H    2.531288   3.228544   4.590785   3.101932   2.526203
    13  H    3.963591   3.578648   5.634096   3.484153   4.015558
                   11         12         13
    11  H    0.000000
    12  H    1.793474   0.000000
    13  H    2.218992   2.286933   0.000000
 Stoichiometry    C3H8O2
 Framework group  C1[X(C3H8O2)]
 Deg. of freedom    33
 Full point group                 C1      NOp   1
 Largest Abelian subgroup         C1      NOp   1
 Largest concise Abelian subgroup C1      NOp   1
                         Standard orientation:                         
 ---------------------------------------------------------------------
 Center     Atomic      Atomic             Coordinates (Angstroms)
 Number     Number       Type             X           Y           Z
 ---------------------------------------------------------------------
      1          6           0        0.986242   -0.393222    0.242767
      2          8           0        2.293006   -0.012843   -0.133105
      3          6           0        0.041875    0.708629   -0.232666
      4          6           0       -1.378915    0.499265    0.277320
      5          8           0       -1.875564   -0.708674   -0.254086
      6          1           0        0.941296   -0.506779    1.342540
      7          1           0        0.732953   -1.365009   -0.220005
      8          1           0        2.848683   -0.737931    0.118774
      9          1           0        0.051125    0.759679   -1.340400
     10          1           0        0.402088    1.693585    0.123843
     11          1           0       -2.025121    1.336830   -0.046342
     12          1           0       -1.401388    0.451144    1.383016
     13          1           0       -2.784386   -0.747418    0.011583
 ---------------------------------------------------------------------
 Rotational constants (GHZ):     13.7582023      2.4315879      2.2340933
 Standard basis: VSTO-6G (5D, 7F)
 There are    28 symmetry adapted cartesian basis functions of A   symmetry.
 There are    28 symmetry adapted basis functions of A   symmetry.
    28 basis functions,   168 primitive gaussians,    28 cartesian basis functions
    16 alpha electrons       16 beta electrons
       nuclear repulsion energy       134.5432018038 Hartrees.
 Integral buffers will be    131072 words long.
 Regular integral format.
 Two-electron integral symmetry is turned off.
 Do NDO integrals.
 One-electron integrals computed using PRISM.
 NBasis=    28 RedAO= F EigKep=  0.00D+00  NBF=    28
 NBsUse=    28 1.00D-04 EigRej=  0.00D+00 NBFU=    28
 Initial guess from the checkpoint file:  "1-3-propanediol-open-opt.chk"
 B after Tr=    -0.000000   -0.000000    0.000000
         Rot=    0.999995   -0.003135   -0.000263   -0.000605 Ang=  -0.37 deg.
 Overlap will be assumed to be unity.
 Keep J ints in memory in canonical form, NReq=891302.
 Requested convergence on RMS density matrix=1.00D-08 within 128 cycles.
 Requested convergence on MAX density matrix=1.00D-06.
 Requested convergence on             energy=1.00D-06.
 No special actions if energy rises.
 SCF Done:  E(RPM3) = -0.159351489888     A.U. after   11 cycles
            NFock= 10  Conv=0.78D-08     -V/T= 0.9929
 Calling FoFJK, ICntrl=      2127 FMM=F ISym2X=0 I1Cent= 0 IOpClX= 0 NMat=1 NMatS=1 NMatT=0.
 ***** Axes restored to original set *****
 -------------------------------------------------------------------
 Center     Atomic                   Forces (Hartrees/Bohr)
 Number     Number              X              Y              Z
 -------------------------------------------------------------------
      1        6          -0.002434223   -0.002597611   -0.000683888
      2        8           0.000423955    0.001853588    0.000392071
      3        6          -0.000344161    0.000640529   -0.000670673
      4        6           0.000004190    0.001231651   -0.002063001
      5        8           0.001353591   -0.000854608    0.000963798
      6        1           0.001273936    0.000837527    0.000374744
      7        1           0.001121037    0.000778366    0.000746373
      8        1          -0.001425914   -0.000794532   -0.000634791
      9        1          -0.000123359   -0.000071052    0.000651509
     10        1           0.000043469   -0.000911432   -0.000296498
     11        1          -0.000278309   -0.000608692    0.001520596
     12        1          -0.000104970   -0.000597968    0.000913045
     13        1           0.000490758    0.001094234   -0.001213285
 -------------------------------------------------------------------
 Cartesian Forces:  Max     0.002597611 RMS     0.001054207

 GradGradGradGradGradGradGradGradGradGradGradGradGradGradGradGradGradGrad
 Berny optimization.
 Using GEDIIS/GDIIS optimizer.
 FormGI is forming the generalized inverse of G from B-inverse, IUseBI=4.
 Internal  Forces:  Max     0.003120576 RMS     0.000771578
 Search for a local minimum.
 Step number   2 out of a maximum of   66
 All quantities printed in internal units (Hartrees-Bohrs-Radians)
 Mixed Optimization -- En-DIIS/RFO-DIIS
 Update second derivatives using D2CorX and points    1    2
 DE= -2.53D-03 DEPred=-2.56D-03 R= 9.89D-01
 TightC=F SS=  1.41D+00  RLast= 1.55D-01 DXNew= 5.0454D-01 4.6410D-01
 Trust test= 9.89D-01 RLast= 1.55D-01 DXMaxT set to 4.64D-01
 ITU=  1  0
 Use linear search instead of GDIIS.
     Eigenvalues ---    0.00479   0.00498   0.01378   0.01423   0.03669
     Eigenvalues ---    0.04928   0.05310   0.05441   0.05660   0.05845
     Eigenvalues ---    0.08273   0.11167   0.11303   0.12166   0.13581
     Eigenvalues ---    0.13698   0.15998   0.16750   0.21864   0.21981
     Eigenvalues ---    0.22443   0.29999   0.30294   0.33624   0.34121
     Eigenvalues ---    0.34211   0.34274   0.34284   0.34299   0.42047
     Eigenvalues ---    0.43042   0.52792   0.53139
 RFO step:  Lambda=-3.60914508D-04 EMin= 4.79471393D-03
 Quartic linear search produced a step of -0.00150.
 Iteration  1 RMS(Cart)=  0.02425505 RMS(Int)=  0.00037747
 Iteration  2 RMS(Cart)=  0.00041376 RMS(Int)=  0.00001875
 Iteration  3 RMS(Cart)=  0.00000009 RMS(Int)=  0.00001875
 Variable       Old X    -DE/DX   Delta X   Delta X   Delta X     New X
                                 (Linear)    (Quad)   (Total)
    R1        2.66820   0.00082   0.00003   0.00057   0.00060   2.66880
    R2        2.88574   0.00055  -0.00002   0.00246   0.00244   2.88819
    R3        2.09105   0.00069  -0.00003   0.00341   0.00338   2.09443
    R4        2.08957   0.00049  -0.00003   0.00272   0.00268   2.09225
    R5        1.79073  -0.00004   0.00007  -0.00300  -0.00293   1.78780
    R6        2.87993   0.00141  -0.00001   0.00511   0.00510   2.88504
    R7        2.09561  -0.00058  -0.00003  -0.00031  -0.00035   2.09526
    R8        2.09324   0.00040  -0.00003   0.00250   0.00246   2.09571
    R9        2.66456   0.00130   0.00003   0.00186   0.00189   2.66645
   R10        2.09057   0.00052  -0.00003   0.00288   0.00285   2.09342
   R11        2.09187   0.00061  -0.00003   0.00320   0.00316   2.09504
   R12        1.79080  -0.00004   0.00007  -0.00305  -0.00298   1.78782
    A1        1.87034   0.00055   0.00004   0.00400   0.00403   1.87437
    A2        1.90691   0.00045  -0.00003   0.00920   0.00918   1.91609
    A3        1.91490   0.00043  -0.00003   0.00924   0.00921   1.92411
    A4        1.93731  -0.00040   0.00000  -0.00434  -0.00439   1.93292
    A5        1.94139  -0.00040  -0.00000  -0.00433  -0.00438   1.93701
    A6        1.89279  -0.00059   0.00002  -0.01299  -0.01305   1.87974
    A7        1.83985   0.00312   0.00004   0.01794   0.01798   1.85783
    A8        1.95328  -0.00002   0.00001   0.00078   0.00079   1.95407
    A9        1.91671   0.00030  -0.00004   0.00564   0.00560   1.92231
   A10        1.91802   0.00015  -0.00000   0.00140   0.00141   1.91942
   A11        1.92663  -0.00007  -0.00001   0.00060   0.00057   1.92720
   A12        1.89402  -0.00007   0.00003  -0.00290  -0.00287   1.89115
   A13        1.85235  -0.00031   0.00001  -0.00597  -0.00597   1.84638
   A14        1.89647   0.00050   0.00004   0.00337   0.00341   1.89988
   A15        1.92054  -0.00014  -0.00000  -0.00195  -0.00198   1.91856
   A16        1.93815  -0.00033  -0.00000  -0.00298  -0.00301   1.93514
   A17        1.90984   0.00022  -0.00002   0.00625   0.00622   1.91606
   A18        1.90927   0.00037  -0.00002   0.00747   0.00745   1.91673
   A19        1.88944  -0.00062   0.00001  -0.01195  -0.01198   1.87747
   A20        1.84125   0.00305   0.00004   0.01732   0.01736   1.85861
    D1       -3.07509   0.00010  -0.00001   0.00718   0.00717  -3.06792
    D2        1.10769   0.00000  -0.00002   0.00488   0.00485   1.11254
    D3       -0.96523   0.00019  -0.00000   0.00966   0.00968  -0.95556
    D4       -3.01020   0.00002  -0.00003   0.00017   0.00014  -3.01005
    D5        1.12683  -0.00009   0.00000  -0.00516  -0.00516   1.12167
    D6       -0.90459   0.00002   0.00002  -0.00203  -0.00201  -0.90660
    D7       -0.92926   0.00067  -0.00004   0.01130   0.01125  -0.91801
    D8       -3.07542   0.00056  -0.00000   0.00597   0.00594  -3.06947
    D9        1.17635   0.00067   0.00001   0.00911   0.00910   1.18544
   D10        1.18000  -0.00062  -0.00002  -0.01109  -0.01108   1.16892
   D11       -0.96616  -0.00073   0.00002  -0.01642  -0.01638  -0.98254
   D12       -2.99759  -0.00062   0.00003  -0.01328  -0.01323  -3.01081
   D13       -1.09529  -0.00034   0.00006  -0.05091  -0.05084  -1.14613
   D14        3.09716  -0.00084   0.00007  -0.05943  -0.05935   3.03781
   D15        1.00545   0.00023   0.00006  -0.04133  -0.04128   0.96418
   D16        1.04524  -0.00002   0.00002  -0.04268  -0.04267   1.00257
   D17       -1.04550  -0.00052   0.00002  -0.05121  -0.05118  -1.09668
   D18       -3.13721   0.00055   0.00001  -0.03310  -0.03310   3.11287
   D19        3.06840  -0.00047   0.00004  -0.05120  -0.05116   3.01724
   D20        0.97766  -0.00096   0.00004  -0.05973  -0.05967   0.91799
   D21       -1.11404   0.00011   0.00003  -0.04162  -0.04160  -1.15564
   D22       -3.03728  -0.00007   0.00000  -0.00183  -0.00183  -3.03911
   D23       -0.93989   0.00020   0.00001   0.00155   0.00157  -0.93832
   D24        1.12737  -0.00020  -0.00001  -0.00484  -0.00486   1.12251
         Item               Value     Threshold  Converged?
 Maximum Force            0.003121     0.000450     NO 
 RMS     Force            0.000772     0.000300     NO 
 Maximum Displacement     0.081907     0.001800     NO 
 RMS     Displacement     0.024290     0.001200     NO 
 Predicted change in Energy=-1.842673D-04
 GradGradGradGradGradGradGradGradGradGradGradGradGradGradGradGradGradGrad

                          Input orientation:                          
 ---------------------------------------------------------------------
 Center     Atomic      Atomic             Coordinates (Angstroms)
 Number     Number       Type             X           Y           Z
 ---------------------------------------------------------------------
      1          6           0        1.344048    2.283370    1.229284
      2          8           0        0.019416    2.024323    0.813658
      3          6           0        2.079314    0.944207    1.273052
      4          6           0        3.470904    1.076739    1.886821
      5          8           0        4.268755    1.874845    1.039796
      6          1           0        1.336834    2.760214    2.229758
      7          1           0        1.836184    2.983081    0.526408
      8          1           0       -0.403694    2.866091    0.727405
      9          1           0        2.145414    0.511500    0.254349
     10          1           0        1.500603    0.213746    1.874219
     11          1           0        3.930362    0.075149    2.000436
     12          1           0        3.416194    1.536101    2.894337
     13          1           0        5.142946    1.859263    1.401188
 ---------------------------------------------------------------------
                    Distance matrix (angstroms):
                    1          2          3          4          5
     1  C    0.000000
     2  O    1.412268   0.000000
     3  C    1.528362   2.370839   0.000000
     4  C    2.532159   3.736625   1.526695   0.000000
     5  O    2.959174   4.257977   2.390428   1.411025   0.000000
     6  H    1.108323   2.069412   2.182761   2.739698   3.285734
     7  H    1.107171   2.074217   2.184856   2.856076   2.721976
     8  H    1.909463   0.946063   3.186958   4.422503   4.786641
     9  H    2.175364   2.668582   1.108764   2.177471   2.642766
    10  H    2.173429   2.568442   1.109000   2.151046   3.334392
    11  H    3.487110   4.528049   2.170421   1.107788   2.067908
    12  H    2.761268   4.013189   2.183151   1.108645   2.069041
    13  H    3.826362   5.159748   3.199935   1.908902   0.946074
                    6          7          8          9         10
     6  H    0.000000
     7  H    1.788972   0.000000
     8  H    2.301675   2.251919   0.000000
     9  H    3.100444   2.505664   3.502261   0.000000
    10  H    2.576379   3.098132   3.460702   1.768733   0.000000
    11  H    3.740127   3.874843   5.309803   2.534810   2.436979
    12  H    2.502770   3.193316   4.588682   3.103904   2.541407
    13  H    3.998091   3.600400   5.677402   3.480934   4.024691
                   11         12         13
    11  H    0.000000
    12  H    1.788242   0.000000
    13  H    2.238866   2.305559   0.000000
 Stoichiometry    C3H8O2
 Framework group  C1[X(C3H8O2)]
 Deg. of freedom    33
 Full point group                 C1      NOp   1
 Largest Abelian subgroup         C1      NOp   1
 Largest concise Abelian subgroup C1      NOp   1
                         Standard orientation:                         
 ---------------------------------------------------------------------
 Center     Atomic      Atomic             Coordinates (Angstroms)
 Number     Number       Type             X           Y           Z
 ---------------------------------------------------------------------
      1          6           0        0.997733   -0.388882    0.252975
      2          8           0        2.301494   -0.015164   -0.140780
      3          6           0        0.042398    0.697127   -0.240796
      4          6           0       -1.375632    0.493061    0.286790
      5          8           0       -1.899911   -0.696106   -0.262758
      6          1           0        0.951008   -0.480817    1.356490
      7          1           0        0.734915   -1.374132   -0.178343
      8          1           0        2.871908   -0.726177    0.112444
      9          1           0        0.041829    0.730000   -1.349073
     10          1           0        0.398197    1.693892    0.090486
     11          1           0       -2.012944    1.352107   -0.001426
     12          1           0       -1.380024    0.429552    1.393606
     13          1           0       -2.804553   -0.742109    0.010303
 ---------------------------------------------------------------------
 Rotational constants (GHZ):     13.8700718      2.3998532      2.2166389
 Standard basis: VSTO-6G (5D, 7F)
 There are    28 symmetry adapted cartesian basis functions of A   symmetry.
 There are    28 symmetry adapted basis functions of A   symmetry.
    28 basis functions,   168 primitive gaussians,    28 cartesian basis functions
    16 alpha electrons       16 beta electrons
       nuclear repulsion energy       134.3502793099 Hartrees.
 Integral buffers will be    131072 words long.
 Regular integral format.
 Two-electron integral symmetry is turned off.
 Do NDO integrals.
 One-electron integrals computed using PRISM.
 NBasis=    28 RedAO= F EigKep=  0.00D+00  NBF=    28
 NBsUse=    28 1.00D-04 EigRej=  0.00D+00 NBFU=    28
 Initial guess from the checkpoint file:  "1-3-propanediol-open-opt.chk"
 B after Tr=     0.000000    0.000000    0.000000
         Rot=    0.999998    0.001444   -0.001004    0.000955 Ang=   0.23 deg.
 Overlap will be assumed to be unity.
 Keep J ints in memory in canonical form, NReq=891302.
 Requested convergence on RMS density matrix=1.00D-08 within 128 cycles.
 Requested convergence on MAX density matrix=1.00D-06.
 Requested convergence on             energy=1.00D-06.
 No special actions if energy rises.
 SCF Done:  E(RPM3) = -0.159561702054     A.U. after   11 cycles
            NFock= 10  Conv=0.77D-08     -V/T= 0.9929
 Calling FoFJK, ICntrl=      2127 FMM=F ISym2X=0 I1Cent= 0 IOpClX= 0 NMat=1 NMatS=1 NMatT=0.
 ***** Axes restored to original set *****
 -------------------------------------------------------------------
 Center     Atomic                   Forces (Hartrees/Bohr)
 Number     Number              X              Y              Z
 -------------------------------------------------------------------
      1        6          -0.000919638   -0.001023092   -0.000443243
      2        8           0.001616171   -0.001132109    0.000657359
      3        6          -0.000000245    0.000406775   -0.000004135
      4        6           0.000285187    0.000737205   -0.000995780
      5        8          -0.002088095   -0.000690134   -0.000266249
      6        1           0.000171691    0.000200491   -0.000149572
      7        1           0.000193443    0.000136431    0.000420188
      8        1          -0.000313519    0.001060474   -0.000201687
      9        1          -0.000052506    0.000445869    0.000365972
     10        1           0.000196853   -0.000093329   -0.000445091
     11        1          -0.000222705    0.000119153    0.000580284
     12        1           0.000145018   -0.000116325   -0.000102564
     13        1           0.000988346   -0.000051409    0.000584518
 -------------------------------------------------------------------
 Cartesian Forces:  Max     0.002088095 RMS     0.000661000

 GradGradGradGradGradGradGradGradGradGradGradGradGradGradGradGradGradGrad
 Berny optimization.
 Using GEDIIS/GDIIS optimizer.
 FormGI is forming the generalized inverse of G from B-inverse, IUseBI=4.
 Internal  Forces:  Max     0.001342781 RMS     0.000438961
 Search for a local minimum.
 Step number   3 out of a maximum of   66
 All quantities printed in internal units (Hartrees-Bohrs-Radians)
 Mixed Optimization -- En-DIIS/RFO-DIIS
 Swapping is turned off.
 Update second derivatives using D2CorX and points    1    2    3
 DE= -2.10D-04 DEPred=-1.84D-04 R= 1.14D+00
 TightC=F SS=  1.41D+00  RLast= 1.54D-01 DXNew= 7.8052D-01 4.6234D-01
 Trust test= 1.14D+00 RLast= 1.54D-01 DXMaxT set to 4.64D-01
 ITU=  1  1  0
     Eigenvalues ---    0.00339   0.00480   0.01367   0.01422   0.03720
     Eigenvalues ---    0.04921   0.05247   0.05301   0.05411   0.05884
     Eigenvalues ---    0.08321   0.11153   0.11302   0.12182   0.13601
     Eigenvalues ---    0.13723   0.16000   0.17102   0.21876   0.21988
     Eigenvalues ---    0.23409   0.30244   0.32019   0.33796   0.34117
     Eigenvalues ---    0.34274   0.34278   0.34289   0.34635   0.42089
     Eigenvalues ---    0.46431   0.52798   0.56573
 En-DIIS/RFO-DIIS IScMMF=        0 using points:     3    2
 RFO step:  Lambda=-2.19569367D-05.
 DidBck=F Rises=F RFO-DIIS coefs:    1.19949   -0.19949
 Iteration  1 RMS(Cart)=  0.02430687 RMS(Int)=  0.00035544
 Iteration  2 RMS(Cart)=  0.00039933 RMS(Int)=  0.00000609
 Iteration  3 RMS(Cart)=  0.00000009 RMS(Int)=  0.00000609
 Variable       Old X    -DE/DX   Delta X   Delta X   Delta X     New X
                                 (Linear)    (Quad)   (Total)
    R1        2.66880  -0.00134   0.00012  -0.00429  -0.00417   2.66463
    R2        2.88819  -0.00103   0.00049  -0.00368  -0.00319   2.88499
    R3        2.09443  -0.00005   0.00067   0.00060   0.00128   2.09570
    R4        2.09225  -0.00009   0.00054   0.00036   0.00089   2.09314
    R5        1.78780   0.00110  -0.00058   0.00122   0.00064   1.78844
    R6        2.88504  -0.00089   0.00102  -0.00294  -0.00192   2.88311
    R7        2.09526  -0.00051  -0.00007  -0.00136  -0.00142   2.09384
    R8        2.09571  -0.00028   0.00049  -0.00032   0.00017   2.09588
    R9        2.66645  -0.00123   0.00038  -0.00376  -0.00339   2.66306
   R10        2.09342  -0.00014   0.00057   0.00023   0.00080   2.09421
   R11        2.09504  -0.00015   0.00063   0.00025   0.00088   2.09592
   R12        1.78782   0.00114  -0.00059   0.00129   0.00069   1.78851
    A1        1.87437  -0.00036   0.00080  -0.00147  -0.00066   1.87371
    A2        1.91609   0.00014   0.00183   0.00276   0.00459   1.92068
    A3        1.92411   0.00030   0.00184   0.00443   0.00627   1.93038
    A4        1.93292   0.00020  -0.00088   0.00068  -0.00021   1.93270
    A5        1.93701   0.00001  -0.00087  -0.00083  -0.00172   1.93529
    A6        1.87974  -0.00028  -0.00260  -0.00538  -0.00801   1.87173
    A7        1.85783  -0.00029   0.00359  -0.00118   0.00241   1.86023
    A8        1.95407  -0.00058   0.00016  -0.00334  -0.00319   1.95088
    A9        1.92231   0.00012   0.00112   0.00000   0.00111   1.92342
   A10        1.91942   0.00021   0.00028   0.00259   0.00287   1.92229
   A11        1.92720   0.00016   0.00011  -0.00021  -0.00009   1.92711
   A12        1.89115   0.00026  -0.00057   0.00228   0.00171   1.89286
   A13        1.84638  -0.00014  -0.00119  -0.00111  -0.00230   1.84408
   A14        1.89988  -0.00089   0.00068  -0.00469  -0.00401   1.89587
   A15        1.91856   0.00026  -0.00040   0.00146   0.00106   1.91962
   A16        1.93514   0.00027  -0.00060   0.00097   0.00036   1.93551
   A17        1.91606   0.00039   0.00124   0.00414   0.00539   1.92145
   A18        1.91673   0.00031   0.00149   0.00271   0.00420   1.92093
   A19        1.87747  -0.00033  -0.00239  -0.00445  -0.00685   1.87062
   A20        1.85861  -0.00027   0.00346  -0.00118   0.00229   1.86090
    D1       -3.06792   0.00014   0.00143   0.00857   0.01000  -3.05792
    D2        1.11254   0.00003   0.00097   0.00705   0.00801   1.12055
    D3       -0.95556   0.00010   0.00193   0.00925   0.01118  -0.94437
    D4       -3.01005  -0.00006   0.00003  -0.00662  -0.00659  -3.01665
    D5        1.12167   0.00005  -0.00103  -0.00401  -0.00504   1.11663
    D6       -0.90660   0.00003  -0.00040  -0.00418  -0.00458  -0.91118
    D7       -0.91801   0.00000   0.00224  -0.00378  -0.00155  -0.91956
    D8       -3.06947   0.00012   0.00119  -0.00117   0.00001  -3.06946
    D9        1.18544   0.00009   0.00182  -0.00134   0.00046   1.18591
   D10        1.16892  -0.00020  -0.00221  -0.01063  -0.01283   1.15609
   D11       -0.98254  -0.00009  -0.00327  -0.00801  -0.01127  -0.99382
   D12       -3.01081  -0.00011  -0.00264  -0.00819  -0.01082  -3.02163
   D13       -1.14613  -0.00006  -0.01014  -0.03980  -0.04994  -1.19607
   D14        3.03781  -0.00014  -0.01184  -0.04286  -0.05470   2.98311
   D15        0.96418  -0.00007  -0.00823  -0.03887  -0.04711   0.91706
   D16        1.00257  -0.00019  -0.00851  -0.04232  -0.05083   0.95174
   D17       -1.09668  -0.00028  -0.01021  -0.04537  -0.05558  -1.15226
   D18        3.11287  -0.00021  -0.00660  -0.04139  -0.04799   3.06488
   D19        3.01724  -0.00013  -0.01021  -0.04245  -0.05266   2.96458
   D20        0.91799  -0.00022  -0.01190  -0.04551  -0.05741   0.86058
   D21       -1.15564  -0.00015  -0.00830  -0.04153  -0.04983  -1.20547
   D22       -3.03911  -0.00005  -0.00036  -0.00404  -0.00440  -3.04351
   D23       -0.93832  -0.00004   0.00031  -0.00264  -0.00233  -0.94064
   D24        1.12251  -0.00002  -0.00097  -0.00395  -0.00492   1.11760
         Item               Value     Threshold  Converged?
 Maximum Force            0.001343     0.000450     NO 
 RMS     Force            0.000439     0.000300     NO 
 Maximum Displacement     0.078663     0.001800     NO 
 RMS     Displacement     0.024316     0.001200     NO 
 Predicted change in Energy=-5.867307D-05
 GradGradGradGradGradGradGradGradGradGradGradGradGradGradGradGradGradGrad

                          Input orientation:                          
 ---------------------------------------------------------------------
 Center     Atomic      Atomic             Coordinates (Angstroms)
 Number     Number       Type             X           Y           Z
 ---------------------------------------------------------------------
      1          6           0        1.339264    2.281165    1.239372
      2          8           0        0.022190    2.020374    0.808587
      3          6           0        2.081874    0.947560    1.266940
      4          6           0        3.469192    1.084924    1.886760
      5          8           0        4.277088    1.845302    1.017815
      6          1           0        1.325032    2.743571    2.247269
      7          1           0        1.838084    2.996832    0.556824
      8          1           0       -0.405424    2.860343    0.723315
      9          1           0        2.155473    0.529320    0.243542
     10          1           0        1.507219    0.202560    1.854160
     11          1           0        3.915604    0.082565    2.042063
     12          1           0        3.411986    1.575478    2.879842
     13          1           0        5.149699    1.838635    1.384223
 ---------------------------------------------------------------------
                    Distance matrix (angstroms):
                    1          2          3          4          5
     1  C    0.000000
     2  O    1.410061   0.000000
     3  C    1.526673   2.367132   0.000000
     4  C    2.527191   3.730864   1.525679   0.000000
     5  O    2.978233   4.263635   2.384736   1.409232   0.000000
     6  H    1.108999   2.071284   2.181630   2.734684   3.321608
     7  H    1.107643   2.077095   2.182479   2.843349   2.736289
     8  H    1.909372   0.946400   3.184481   4.417960   4.800309
     9  H    2.174128   2.663346   1.108010   2.175941   2.613917
    10  H    2.174114   2.569627   1.109090   2.151503   3.327198
    11  H    3.480758   4.520535   2.170621   1.108209   2.070506
    12  H    2.735929   3.997342   2.182872   1.109112   2.070833
    13  H    3.838780   5.162920   3.196767   1.909117   0.946441
                    6          7          8          9         10
     6  H    0.000000
     7  H    1.784648   0.000000
     8  H    2.308799   2.253814   0.000000
     9  H    3.099591   2.507489   3.496004   0.000000
    10  H    2.577686   3.098469   3.464221   1.766662   0.000000
    11  H    3.719425   3.874917   5.303436   2.555842   2.418682
    12  H    2.473856   3.145446   4.568819   3.102153   2.562238
    13  H    4.023908   3.604554   5.686835   3.461337   4.020602
                   11         12         13
    11  H    0.000000
    12  H    1.784459   0.000000
    13  H    2.244888   2.307764   0.000000
 Stoichiometry    C3H8O2
 Framework group  C1[X(C3H8O2)]
 Deg. of freedom    33
 Full point group                 C1      NOp   1
 Largest Abelian subgroup         C1      NOp   1
 Largest concise Abelian subgroup C1      NOp   1
                         Standard orientation:                         
 ---------------------------------------------------------------------
 Center     Atomic      Atomic             Coordinates (Angstroms)
 Number     Number       Type             X           Y           Z
 ---------------------------------------------------------------------
      1          6           0        1.003561   -0.381419    0.267140
      2          8           0        2.299740   -0.016751   -0.151442
      3          6           0        0.041494    0.686381   -0.247603
      4          6           0       -1.369916    0.486031    0.295975
      5          8           0       -1.909477   -0.684757   -0.273291
      6          1           0        0.965000   -0.444125    1.373693
      7          1           0        0.732966   -1.380201   -0.127936
      8          1           0        2.875560   -0.721768    0.107508
      9          1           0        0.031945    0.690789   -1.355564
     10          1           0        0.393555    1.694320    0.052719
     11          1           0       -2.001846    1.359775    0.040316
     12          1           0       -1.359653    0.401548    1.401817
     13          1           0       -2.810462   -0.734234    0.012239
 ---------------------------------------------------------------------
 Rotational constants (GHZ):     13.9742588      2.3911100      2.2194651
 Standard basis: VSTO-6G (5D, 7F)
 There are    28 symmetry adapted cartesian basis functions of A   symmetry.
 There are    28 symmetry adapted basis functions of A   symmetry.
    28 basis functions,   168 primitive gaussians,    28 cartesian basis functions
    16 alpha electrons       16 beta electrons
       nuclear repulsion energy       134.3784306926 Hartrees.
 Integral buffers will be    131072 words long.
 Regular integral format.
 Two-electron integral symmetry is turned off.
 Do NDO integrals.
 One-electron integrals computed using PRISM.
 NBasis=    28 RedAO= F EigKep=  0.00D+00  NBF=    28
 NBsUse=    28 1.00D-04 EigRej=  0.00D+00 NBFU=    28
 Initial guess from the checkpoint file:  "1-3-propanediol-open-opt.chk"
 B after Tr=    -0.000000    0.000000    0.000000
         Rot=    0.999997    0.002305   -0.000870    0.000456 Ang=   0.29 deg.
 Overlap will be assumed to be unity.
 Keep J ints in memory in canonical form, NReq=891302.
 Requested convergence on RMS density matrix=1.00D-08 within 128 cycles.
 Requested convergence on MAX density matrix=1.00D-06.
 Requested convergence on             energy=1.00D-06.
 No special actions if energy rises.
 SCF Done:  E(RPM3) = -0.159636850701     A.U. after   11 cycles
            NFock= 10  Conv=0.82D-08     -V/T= 0.9929
 Calling FoFJK, ICntrl=      2127 FMM=F ISym2X=0 I1Cent= 0 IOpClX= 0 NMat=1 NMatS=1 NMatT=0.
 ***** Axes restored to original set *****
 -------------------------------------------------------------------
 Center     Atomic                   Forces (Hartrees/Bohr)
 Number     Number              X              Y              Z
 -------------------------------------------------------------------
      1        6           0.000363494    0.000393040    0.000107668
      2        8           0.000032349   -0.000787029    0.000200617
      3        6          -0.000010687   -0.000724273    0.000317604
      4        6           0.000067656   -0.000280199    0.000527291
      5        8          -0.000679094    0.000014712   -0.000652963
      6        1          -0.000378715   -0.000059732   -0.000141052
      7        1          -0.000204531   -0.000015263    0.000007816
      8        1          -0.000083075    0.000811958   -0.000121659
      9        1          -0.000067464    0.000199712   -0.000238957
     10        1           0.000062780    0.000143824   -0.000263519
     11        1           0.000017969    0.000228786    0.000010906
     12        1           0.000241736    0.000135465   -0.000269435
     13        1           0.000637580   -0.000061001    0.000515685
 -------------------------------------------------------------------
 Cartesian Forces:  Max     0.000811958 RMS     0.000350723

 GradGradGradGradGradGradGradGradGradGradGradGradGradGradGradGradGradGrad
 Berny optimization.
 Using GEDIIS/GDIIS optimizer.
 FormGI is forming the generalized inverse of G from B-inverse, IUseBI=4.
 Internal  Forces:  Max     0.000787918 RMS     0.000221590
 Search for a local minimum.
 Step number   4 out of a maximum of   66
 All quantities printed in internal units (Hartrees-Bohrs-Radians)
 Mixed Optimization -- En-DIIS/RFO-DIIS
 Swapping is turned off.
 Update second derivatives using D2CorX and points    1    2    3    4
 DE= -7.51D-05 DEPred=-5.87D-05 R= 1.28D+00
 TightC=F SS=  1.41D+00  RLast= 1.59D-01 DXNew= 7.8052D-01 4.7813D-01
 Trust test= 1.28D+00 RLast= 1.59D-01 DXMaxT set to 4.78D-01
 ITU=  1  1  1  0
     Eigenvalues ---    0.00192   0.00483   0.01352   0.01421   0.03709
     Eigenvalues ---    0.04931   0.05278   0.05375   0.05878   0.06139
     Eigenvalues ---    0.08391   0.11206   0.11511   0.12164   0.13583
     Eigenvalues ---    0.13713   0.16002   0.19413   0.21851   0.22054
     Eigenvalues ---    0.23488   0.30365   0.32752   0.34066   0.34146
     Eigenvalues ---    0.34275   0.34284   0.34295   0.34733   0.42113
     Eigenvalues ---    0.48221   0.52797   0.54004
 En-DIIS/RFO-DIIS IScMMF=        0 using points:     4    3    2
 RFO step:  Lambda=-6.51093694D-06.
 DidBck=F Rises=F RFO-DIIS coefs:    1.36732   -0.33809   -0.02923
 Iteration  1 RMS(Cart)=  0.02090574 RMS(Int)=  0.00024443
 Iteration  2 RMS(Cart)=  0.00027173 RMS(Int)=  0.00000192
 Iteration  3 RMS(Cart)=  0.00000004 RMS(Int)=  0.00000192
 Variable       Old X    -DE/DX   Delta X   Delta X   Delta X     New X
                                 (Linear)    (Quad)   (Total)
    R1        2.66463   0.00002  -0.00151   0.00041  -0.00110   2.66353
    R2        2.88499   0.00043  -0.00110   0.00251   0.00141   2.88640
    R3        2.09570  -0.00015   0.00057  -0.00016   0.00041   2.09612
    R4        2.09314  -0.00011   0.00041  -0.00005   0.00036   2.09350
    R5        1.78844   0.00077   0.00015   0.00116   0.00131   1.78975
    R6        2.88311   0.00032  -0.00056   0.00217   0.00161   2.88473
    R7        2.09384   0.00014  -0.00053   0.00079   0.00026   2.09409
    R8        2.09588  -0.00027   0.00013  -0.00061  -0.00048   2.09540
    R9        2.66306   0.00004  -0.00119   0.00055  -0.00064   2.66242
   R10        2.09421  -0.00020   0.00038  -0.00036   0.00002   2.09423
   R11        2.09592  -0.00019   0.00042  -0.00031   0.00011   2.09603
   R12        1.78851   0.00079   0.00017   0.00120   0.00136   1.78988
    A1        1.87371   0.00024  -0.00013   0.00132   0.00119   1.87490
    A2        1.92068  -0.00032   0.00195  -0.00315  -0.00120   1.91947
    A3        1.93038  -0.00017   0.00257  -0.00154   0.00103   1.93141
    A4        1.93270   0.00020  -0.00021   0.00210   0.00189   1.93460
    A5        1.93529   0.00002  -0.00076   0.00081   0.00004   1.93533
    A6        1.87173   0.00003  -0.00332   0.00040  -0.00293   1.86880
    A7        1.86023  -0.00048   0.00141  -0.00222  -0.00081   1.85943
    A8        1.95088   0.00001  -0.00115   0.00035  -0.00080   1.95008
    A9        1.92342  -0.00012   0.00057  -0.00180  -0.00123   1.92219
   A10        1.92229  -0.00007   0.00109  -0.00048   0.00062   1.92291
   A11        1.92711   0.00003  -0.00002   0.00007   0.00005   1.92716
   A12        1.89286   0.00013   0.00054   0.00193   0.00248   1.89534
   A13        1.84408   0.00002  -0.00102  -0.00003  -0.00105   1.84302
   A14        1.89587  -0.00008  -0.00137  -0.00020  -0.00157   1.89430
   A15        1.91962   0.00014   0.00033   0.00138   0.00171   1.92132
   A16        1.93551   0.00021   0.00005   0.00191   0.00196   1.93747
   A17        1.92145  -0.00009   0.00216  -0.00144   0.00072   1.92217
   A18        1.92093  -0.00013   0.00176  -0.00158   0.00019   1.92112
   A19        1.87062  -0.00004  -0.00287  -0.00009  -0.00296   1.86765
   A20        1.86090  -0.00039   0.00135  -0.00163  -0.00029   1.86061
    D1       -3.05792   0.00012   0.00388   0.00736   0.01124  -3.04668
    D2        1.12055  -0.00008   0.00309   0.00583   0.00892   1.12947
    D3       -0.94437   0.00020   0.00439   0.00826   0.01265  -0.93172
    D4       -3.01665  -0.00005  -0.00242  -0.00712  -0.00954  -3.02619
    D5        1.11663  -0.00002  -0.00200  -0.00616  -0.00816   1.10847
    D6       -0.91118   0.00007  -0.00174  -0.00478  -0.00652  -0.91770
    D7       -0.91956  -0.00018  -0.00024  -0.00892  -0.00917  -0.92872
    D8       -3.06946  -0.00015   0.00018  -0.00796  -0.00779  -3.07725
    D9        1.18591  -0.00006   0.00044  -0.00657  -0.00614   1.17977
   D10        1.15609   0.00000  -0.00504  -0.00655  -0.01158   1.14451
   D11       -0.99382   0.00003  -0.00462  -0.00558  -0.01020  -1.00402
   D12       -3.02163   0.00012  -0.00436  -0.00420  -0.00856  -3.03018
   D13       -1.19607  -0.00004  -0.01983  -0.02168  -0.04151  -1.23758
   D14        2.98311   0.00004  -0.02183  -0.02063  -0.04245   2.94066
   D15        0.91706  -0.00013  -0.01851  -0.02257  -0.04108   0.87598
   D16        0.95174  -0.00016  -0.01992  -0.02370  -0.04362   0.90812
   D17       -1.15226  -0.00008  -0.02191  -0.02265  -0.04456  -1.19682
   D18        3.06488  -0.00025  -0.01860  -0.02459  -0.04319   3.02169
   D19        2.96458  -0.00005  -0.02084  -0.02261  -0.04345   2.92113
   D20        0.86058   0.00003  -0.02283  -0.02155  -0.04439   0.81619
   D21       -1.20547  -0.00014  -0.01952  -0.02349  -0.04301  -1.24849
   D22       -3.04351  -0.00003  -0.00167  -0.00391  -0.00558  -3.04910
   D23       -0.94064   0.00004  -0.00081  -0.00322  -0.00403  -0.94468
   D24        1.11760  -0.00015  -0.00195  -0.00517  -0.00711   1.11048
         Item               Value     Threshold  Converged?
 Maximum Force            0.000788     0.000450     NO 
 RMS     Force            0.000222     0.000300     YES
 Maximum Displacement     0.062951     0.001800     NO 
 RMS     Displacement     0.020898     0.001200     NO 
 Predicted change in Energy=-2.296814D-05
 GradGradGradGradGradGradGradGradGradGradGradGradGradGradGradGradGradGrad

                          Input orientation:                          
 ---------------------------------------------------------------------
 Center     Atomic      Atomic             Coordinates (Angstroms)
 Number     Number       Type             X           Y           Z
 ---------------------------------------------------------------------
      1          6           0        1.332769    2.279449    1.248778
      2          8           0        0.021649    2.018449    0.802152
      3          6           0        2.084112    0.949685    1.263595
      4          6           0        3.470488    1.090736    1.886788
      5          8           0        4.288226    1.818612    0.999952
      6          1           0        1.305396    2.728635    2.262605
      7          1           0        1.834477    3.009172    0.583133
      8          1           0       -0.406194    2.859011    0.716173
      9          1           0        2.161940    0.544070    0.235290
     10          1           0        1.512697    0.193983    1.839722
     11          1           0        3.907305    0.089557    2.073817
     12          1           0        3.415461    1.608790    2.865995
     13          1           0        5.158953    1.818481    1.372712
 ---------------------------------------------------------------------
                    Distance matrix (angstroms):
                    1          2          3          4          5
     1  C    0.000000
     2  O    1.409479   0.000000
     3  C    1.527419   2.368320   0.000000
     4  C    2.527832   3.732502   1.526533   0.000000
     5  O    3.001502   4.275832   2.383833   1.408892   0.000000
     6  H    1.109217   2.070095   2.183823   2.740725   3.364478
     7  H    1.107831   2.077461   2.183308   2.838388   2.758996
     8  H    1.908809   0.947094   3.185407   4.418800   4.816694
     9  H    2.173987   2.660069   1.108147   2.176829   2.594274
    10  H    2.175030   2.574577   1.108838   2.153910   3.323883
    11  H    3.479159   4.520627   2.172627   1.108218   2.070728
    12  H    2.720805   3.993148   2.185085   1.109169   2.070716
    13  H    3.855844   5.172757   3.197086   1.909136   0.947162
                    6          7          8          9         10
     6  H    0.000000
     7  H    1.783046   0.000000
     8  H    2.310409   2.249634   0.000000
     9  H    3.100966   2.510966   3.490775   0.000000
    10  H    2.578034   3.099652   3.470861   1.765865   0.000000
    11  H    3.710835   3.878518   5.302767   2.575473   2.408288
    12  H    2.463839   3.109990   4.559587   3.102508   2.583685
    13  H    4.058348   3.618470   5.699527   3.449629   4.018989
                   11         12         13
    11  H    0.000000
    12  H    1.782562   0.000000
    13  H    2.246630   2.305131   0.000000
 Stoichiometry    C3H8O2
 Framework group  C1[X(C3H8O2)]
 Deg. of freedom    33
 Full point group                 C1      NOp   1
 Largest Abelian subgroup         C1      NOp   1
 Largest concise Abelian subgroup C1      NOp   1
                         Standard orientation:                         
 ---------------------------------------------------------------------
 Center     Atomic      Atomic             Coordinates (Angstroms)
 Number     Number       Type             X           Y           Z
 ---------------------------------------------------------------------
      1          6           0        1.011393   -0.373593    0.280260
      2          8           0        2.301865   -0.018684   -0.161728
      3          6           0        0.040195    0.678159   -0.252279
      4          6           0       -1.367866    0.479952    0.303040
      5          8           0       -1.921425   -0.676028   -0.281989
      6          1           0        0.986672   -0.408394    1.388655
      7          1           0        0.737824   -1.383761   -0.083074
      8          1           0        2.879752   -0.721290    0.101668
      9          1           0        0.025314    0.657416   -1.360132
     10          1           0        0.388738    1.694371    0.022230
     11          1           0       -1.996135    1.362972    0.071300
     12          1           0       -1.348889    0.376027    1.407166
     13          1           0       -2.819125   -0.726754    0.015797
 ---------------------------------------------------------------------
 Rotational constants (GHZ):     14.0520159      2.3751237      2.2143416
 Standard basis: VSTO-6G (5D, 7F)
 There are    28 symmetry adapted cartesian basis functions of A   symmetry.
 There are    28 symmetry adapted basis functions of A   symmetry.
    28 basis functions,   168 primitive gaussians,    28 cartesian basis functions
    16 alpha electrons       16 beta electrons
       nuclear repulsion energy       134.3181196536 Hartrees.
 Integral buffers will be    131072 words long.
 Regular integral format.
 Two-electron integral symmetry is turned off.
 Do NDO integrals.
 One-electron integrals computed using PRISM.
 NBasis=    28 RedAO= F EigKep=  0.00D+00  NBF=    28
 NBsUse=    28 1.00D-04 EigRej=  0.00D+00 NBFU=    28
 Initial guess from the checkpoint file:  "1-3-propanediol-open-opt.chk"
 B after Tr=    -0.000000   -0.000000   -0.000000
         Rot=    0.999997    0.002259   -0.000799    0.000264 Ang=   0.28 deg.
 Overlap will be assumed to be unity.
 Keep J ints in memory in canonical form, NReq=891302.
 Requested convergence on RMS density matrix=1.00D-08 within 128 cycles.
 Requested convergence on MAX density matrix=1.00D-06.
 Requested convergence on             energy=1.00D-06.
 No special actions if energy rises.
 SCF Done:  E(RPM3) = -0.159665167041     A.U. after   11 cycles
            NFock= 10  Conv=0.69D-08     -V/T= 0.9929
 Calling FoFJK, ICntrl=      2127 FMM=F ISym2X=0 I1Cent= 0 IOpClX= 0 NMat=1 NMatS=1 NMatT=0.
 ***** Axes restored to original set *****
 -------------------------------------------------------------------
 Center     Atomic                   Forces (Hartrees/Bohr)
 Number     Number              X              Y              Z
 -------------------------------------------------------------------
      1        6           0.001006334    0.000474656    0.000338993
      2        8          -0.000467319   -0.000275895    0.000016102
      3        6           0.000141480   -0.000272229    0.000287295
      4        6          -0.000476924   -0.000380115    0.000697643
      5        8           0.000095302    0.000139013   -0.000433943
      6        1          -0.000324699   -0.000301180   -0.000111722
      7        1          -0.000192857   -0.000198790   -0.000092291
      8        1           0.000153946    0.000158538   -0.000072868
      9        1          -0.000031349    0.000130891   -0.000210747
     10        1           0.000042652    0.000229561   -0.000053043
     11        1          -0.000006082    0.000138445   -0.000256623
     12        1           0.000060554    0.000170663   -0.000300509
     13        1          -0.000001037   -0.000013556    0.000191714
 -------------------------------------------------------------------
 Cartesian Forces:  Max     0.001006334 RMS     0.000304356

 GradGradGradGradGradGradGradGradGradGradGradGradGradGradGradGradGradGrad
 Berny optimization.
 Using GEDIIS/GDIIS optimizer.
 FormGI is forming the generalized inverse of G from B-inverse, IUseBI=4.
 Internal  Forces:  Max     0.000334548 RMS     0.000142031
 Search for a local minimum.
 Step number   5 out of a maximum of   66
 All quantities printed in internal units (Hartrees-Bohrs-Radians)
 Mixed Optimization -- En-DIIS/RFO-DIIS
 Swapping is turned off.
 Update second derivatives using D2CorX and points    1    2    3    4    5
 DE= -2.83D-05 DEPred=-2.30D-05 R= 1.23D+00
 TightC=F SS=  1.41D+00  RLast= 1.34D-01 DXNew= 8.0412D-01 4.0123D-01
 Trust test= 1.23D+00 RLast= 1.34D-01 DXMaxT set to 4.78D-01
 ITU=  1  1  1  1  0
     Eigenvalues ---    0.00142   0.00487   0.01336   0.01419   0.03692
     Eigenvalues ---    0.04971   0.05278   0.05359   0.05872   0.06461
     Eigenvalues ---    0.08305   0.11206   0.11407   0.12159   0.13569
     Eigenvalues ---    0.13708   0.15999   0.18444   0.21758   0.21980
     Eigenvalues ---    0.23480   0.30334   0.33514   0.34091   0.34243
     Eigenvalues ---    0.34274   0.34286   0.34380   0.36360   0.42124
     Eigenvalues ---    0.48486   0.52798   0.55041
 En-DIIS/RFO-DIIS IScMMF=        0 using points:     5    4    3    2
 RFO step:  Lambda=-3.03289568D-06.
 DidBck=F Rises=F RFO-DIIS coefs:    1.41931   -0.39573   -0.11623    0.09264
 Iteration  1 RMS(Cart)=  0.01182191 RMS(Int)=  0.00007740
 Iteration  2 RMS(Cart)=  0.00008521 RMS(Int)=  0.00000264
 Iteration  3 RMS(Cart)=  0.00000000 RMS(Int)=  0.00000264
 Variable       Old X    -DE/DX   Delta X   Delta X   Delta X     New X
                                 (Linear)    (Quad)   (Total)
    R1        2.66353   0.00033  -0.00062   0.00135   0.00074   2.66427
    R2        2.88640  -0.00021   0.00029  -0.00096  -0.00068   2.88573
    R3        2.09612  -0.00022  -0.00011  -0.00044  -0.00055   2.09556
    R4        2.09350  -0.00016  -0.00008  -0.00034  -0.00042   2.09308
    R5        1.78975   0.00008   0.00084  -0.00033   0.00051   1.79025
    R6        2.88473  -0.00033   0.00016  -0.00108  -0.00092   2.88381
    R7        2.09409   0.00015   0.00011   0.00034   0.00045   2.09455
    R8        2.09540  -0.00021  -0.00042  -0.00040  -0.00083   2.09457
    R9        2.66242   0.00027  -0.00052   0.00128   0.00075   2.66317
   R10        2.09423  -0.00017  -0.00024  -0.00028  -0.00052   2.09371
   R11        2.09603  -0.00019  -0.00023  -0.00032  -0.00055   2.09548
   R12        1.78988   0.00007   0.00086  -0.00035   0.00051   1.79039
    A1        1.87490   0.00006   0.00011  -0.00001   0.00010   1.87500
    A2        1.91947  -0.00017  -0.00125  -0.00111  -0.00235   1.91712
    A3        1.93141  -0.00009  -0.00027  -0.00040  -0.00067   1.93074
    A4        1.93460   0.00004   0.00119  -0.00026   0.00094   1.93554
    A5        1.93533  -0.00003   0.00038  -0.00046  -0.00007   1.93527
    A6        1.86880   0.00018  -0.00021   0.00219   0.00200   1.87080
    A7        1.85943  -0.00032  -0.00195   0.00050  -0.00145   1.85798
    A8        1.95008  -0.00015  -0.00048  -0.00116  -0.00165   1.94843
    A9        1.92219  -0.00004  -0.00101  -0.00041  -0.00142   1.92077
   A10        1.92291  -0.00003   0.00020  -0.00059  -0.00039   1.92252
   A11        1.92716   0.00008  -0.00004   0.00061   0.00057   1.92772
   A12        1.89534   0.00011   0.00135   0.00065   0.00199   1.89733
   A13        1.84302   0.00004   0.00006   0.00105   0.00110   1.84412
   A14        1.89430  -0.00003  -0.00107  -0.00012  -0.00118   1.89312
   A15        1.92132   0.00002   0.00092  -0.00006   0.00087   1.92219
   A16        1.93747   0.00004   0.00111  -0.00019   0.00092   1.93839
   A17        1.92217  -0.00008  -0.00015  -0.00072  -0.00086   1.92130
   A18        1.92112  -0.00009  -0.00051  -0.00070  -0.00121   1.91990
   A19        1.86765   0.00014  -0.00029   0.00177   0.00148   1.86913
   A20        1.86061  -0.00028  -0.00167   0.00065  -0.00103   1.85959
    D1       -3.04668   0.00009   0.00428   0.00631   0.01060  -3.03608
    D2        1.12947   0.00010   0.00348   0.00728   0.01076   1.14023
    D3       -0.93172   0.00004   0.00467   0.00551   0.01018  -0.92155
    D4       -3.02619  -0.00002  -0.00417  -0.00478  -0.00895  -3.03514
    D5        1.10847   0.00001  -0.00306  -0.00445  -0.00752   1.10095
    D6       -0.91770   0.00000  -0.00266  -0.00514  -0.00779  -0.92549
    D7       -0.92872  -0.00017  -0.00492  -0.00629  -0.01121  -0.93993
    D8       -3.07725  -0.00014  -0.00382  -0.00596  -0.00978  -3.08703
    D9        1.17977  -0.00015  -0.00341  -0.00665  -0.01005   1.16971
   D10        1.14451   0.00007  -0.00413  -0.00401  -0.00815   1.13636
   D11       -1.00402   0.00010  -0.00303  -0.00368  -0.00672  -1.01073
   D12       -3.03018   0.00009  -0.00262  -0.00437  -0.00699  -3.03718
   D13       -1.23758  -0.00001  -0.01387  -0.00748  -0.02136  -1.25894
   D14        2.94066   0.00009  -0.01359  -0.00650  -0.02009   2.92057
   D15        0.87598  -0.00012  -0.01451  -0.00854  -0.02305   0.85293
   D16        0.90812  -0.00011  -0.01554  -0.00839  -0.02393   0.88420
   D17       -1.19682  -0.00001  -0.01525  -0.00741  -0.02266  -1.21948
[...]
     Eigenvalues ---    0.34283   0.34291   0.34318   0.39503   0.42776
     Eigenvalues ---    0.50462   0.52887   0.56557
 En-DIIS/RFO-DIIS IScMMF=        0 using points:    13   12   11   10    9
 RFO step:  Lambda=-1.10023343D-09.
 DidBck=F Rises=F RFO-DIIS coefs:    1.40371   -0.40737   -0.04378    0.09229   -0.04485
 Iteration  1 RMS(Cart)=  0.00014963 RMS(Int)=  0.00000004
 Iteration  2 RMS(Cart)=  0.00000003 RMS(Int)=  0.00000001
 Variable       Old X    -DE/DX   Delta X   Delta X   Delta X     New X
                                 (Linear)    (Quad)   (Total)
    R1        2.66484  -0.00000   0.00000  -0.00001  -0.00001   2.66484
    R2        2.88616   0.00000   0.00002  -0.00001   0.00001   2.88617
    R3        2.09496  -0.00000  -0.00001  -0.00000  -0.00002   2.09495
    R4        2.09228  -0.00000  -0.00002  -0.00000  -0.00002   2.09226
    R5        1.78978  -0.00000  -0.00001   0.00000  -0.00001   1.78977
    R6        2.88368   0.00001   0.00001   0.00002   0.00003   2.88370
    R7        2.09471  -0.00000   0.00000  -0.00000  -0.00000   2.09471
    R8        2.09446   0.00000   0.00001  -0.00000   0.00001   2.09447
    R9        2.66391  -0.00000   0.00002  -0.00001   0.00000   2.66391
   R10        2.09351  -0.00000  -0.00001  -0.00000  -0.00001   2.09350
   R11        2.09505  -0.00000  -0.00001   0.00000  -0.00001   2.09504
   R12        1.79010  -0.00000  -0.00001  -0.00000  -0.00001   1.79009
    A1        1.87640   0.00000  -0.00001   0.00001  -0.00000   1.87640
    A2        1.91004  -0.00000  -0.00001  -0.00001  -0.00002   1.91002
    A3        1.93358   0.00000   0.00000   0.00002   0.00002   1.93361
    A4        1.93559  -0.00000  -0.00003  -0.00000  -0.00004   1.93556
    A5        1.93530  -0.00000  -0.00004  -0.00001  -0.00005   1.93525
    A6        1.87341   0.00000   0.00009  -0.00001   0.00009   1.87350
    A7        1.85704   0.00000   0.00001   0.00001   0.00003   1.85707
    A8        1.94836  -0.00000  -0.00001   0.00001   0.00000   1.94836
    A9        1.92091   0.00000   0.00002  -0.00000   0.00002   1.92093
   A10        1.92176   0.00000   0.00002  -0.00000   0.00002   1.92178
   A11        1.92814   0.00000  -0.00000   0.00000   0.00000   1.92814
   A12        1.89730  -0.00000  -0.00002   0.00001  -0.00001   1.89729
   A13        1.84444  -0.00000  -0.00002  -0.00001  -0.00004   1.84441
   A14        1.89282   0.00000  -0.00001   0.00000  -0.00000   1.89281
   A15        1.92231  -0.00000  -0.00002  -0.00000  -0.00002   1.92229
   A16        1.93811  -0.00000  -0.00002   0.00000  -0.00001   1.93809
   A17        1.91743   0.00000   0.00000   0.00002   0.00002   1.91745
   A18        1.92202  -0.00000  -0.00003  -0.00001  -0.00004   1.92198
   A19        1.87131   0.00000   0.00007  -0.00001   0.00006   1.87137
   A20        1.85901   0.00000   0.00002  -0.00001   0.00001   1.85902
    D1       -2.93813   0.00000   0.00012   0.00020   0.00032  -2.93781
    D2        1.24136   0.00000   0.00017   0.00021   0.00038   1.24174
    D3       -0.82097   0.00000   0.00007   0.00021   0.00027  -0.82070
    D4       -3.04511   0.00000   0.00026   0.00001   0.00028  -3.04484
    D5        1.09040   0.00000   0.00025   0.00001   0.00026   1.09066
    D6       -0.93607   0.00000   0.00025   0.00003   0.00028  -0.93579
    D7       -0.95764  -0.00000   0.00022   0.00001   0.00023  -0.95741
    D8       -3.10531  -0.00000   0.00021   0.00000   0.00021  -3.10510
    D9        1.15140  -0.00000   0.00021   0.00002   0.00023   1.15164
   D10        1.12198  -0.00000   0.00029  -0.00001   0.00028   1.12226
   D11       -1.02569  -0.00000   0.00028  -0.00002   0.00026  -1.02543
   D12       -3.05216  -0.00000   0.00028   0.00001   0.00028  -3.05187
   D13       -1.26115   0.00000  -0.00002   0.00001  -0.00001  -1.26116
   D14        2.92321  -0.00000  -0.00000  -0.00001  -0.00001   2.92319
   D15        0.85297  -0.00000  -0.00007  -0.00000  -0.00007   0.85290
   D16        0.88241   0.00000   0.00000   0.00001   0.00001   0.88242
   D17       -1.21642   0.00000   0.00002  -0.00001   0.00001  -1.21641
   D18        2.99653   0.00000  -0.00004   0.00000  -0.00004   2.99648
   D19        2.89878   0.00000  -0.00003  -0.00000  -0.00003   2.89875
   D20        0.79996  -0.00000  -0.00001  -0.00002  -0.00004   0.79992
   D21       -1.27028  -0.00000  -0.00008  -0.00001  -0.00009  -1.27037
   D22       -3.11065   0.00000   0.00018   0.00036   0.00054  -3.11011
   D23       -1.00879   0.00000   0.00015   0.00037   0.00052  -1.00827
   D24        1.04853   0.00001   0.00022   0.00036   0.00058   1.04911
         Item               Value     Threshold  Converged?
 Maximum Force            0.000006     0.000450     YES
 RMS     Force            0.000002     0.000300     YES
 Maximum Displacement     0.000566     0.001800     YES
 RMS     Displacement     0.000150     0.001200     YES
 Predicted change in Energy=-5.220503D-09
 Optimization completed.
    -- Stationary point found.
                           ----------------------------
                           !   Optimized Parameters   !
                           ! (Angstroms and Degrees)  !
 --------------------------                            --------------------------
 ! Name  Definition              Value          Derivative Info.                !
 --------------------------------------------------------------------------------
 ! R1    R(1,2)                  1.4102         -DE/DX =    0.0                 !
 ! R2    R(1,3)                  1.5273         -DE/DX =    0.0                 !
 ! R3    R(1,6)                  1.1086         -DE/DX =    0.0                 !
 ! R4    R(1,7)                  1.1072         -DE/DX =    0.0                 !
 ! R5    R(2,8)                  0.9471         -DE/DX =    0.0                 !
 ! R6    R(3,4)                  1.526          -DE/DX =    0.0                 !
 ! R7    R(3,9)                  1.1085         -DE/DX =    0.0                 !
 ! R8    R(3,10)                 1.1083         -DE/DX =    0.0                 !
 ! R9    R(4,5)                  1.4097         -DE/DX =    0.0                 !
 ! R10   R(4,11)                 1.1078         -DE/DX =    0.0                 !
 ! R11   R(4,12)                 1.1087         -DE/DX =    0.0                 !
 ! R12   R(5,13)                 0.9473         -DE/DX =    0.0                 !
 ! A1    A(2,1,3)              107.5098         -DE/DX =    0.0                 !
 ! A2    A(2,1,6)              109.437          -DE/DX =    0.0                 !
 ! A3    A(2,1,7)              110.7861         -DE/DX =    0.0                 !
 ! A4    A(3,1,6)              110.9013         -DE/DX =    0.0                 !
 ! A5    A(3,1,7)              110.8847         -DE/DX =    0.0                 !
 ! A6    A(6,1,7)              107.3385         -DE/DX =    0.0                 !
 ! A7    A(1,2,8)              106.4006         -DE/DX =    0.0                 !
 ! A8    A(1,3,4)              111.6327         -DE/DX =    0.0                 !
 ! A9    A(1,3,9)              110.0603         -DE/DX =    0.0                 !
 ! A10   A(1,3,10)             110.1088         -DE/DX =    0.0                 !
 ! A11   A(4,3,9)              110.4742         -DE/DX =    0.0                 !
 ! A12   A(4,3,10)             108.707          -DE/DX =    0.0                 !
 ! A13   A(9,3,10)             105.6787         -DE/DX =    0.0                 !
 ! A14   A(3,4,5)              108.4503         -DE/DX =    0.0                 !
 ! A15   A(3,4,11)             110.1403         -DE/DX =    0.0                 !
 ! A16   A(3,4,12)             111.0453         -DE/DX =    0.0                 !
 ! A17   A(5,4,11)             109.8609         -DE/DX =    0.0                 !
 ! A18   A(5,4,12)             110.1237         -DE/DX =    0.0                 !
 ! A19   A(11,4,12)            107.2181         -DE/DX =    0.0                 !
 ! A20   A(4,5,13)             106.5135         -DE/DX =    0.0                 !
 ! D1    D(3,1,2,8)           -168.3426         -DE/DX =    0.0                 !
 ! D2    D(6,1,2,8)             71.1247         -DE/DX =    0.0                 !
 ! D3    D(7,1,2,8)            -47.038          -DE/DX =    0.0                 !
 ! D4    D(2,1,3,4)           -174.4722         -DE/DX =    0.0                 !
 ! D5    D(2,1,3,9)             62.4751         -DE/DX =    0.0                 !
 ! D6    D(2,1,3,10)           -53.6331         -DE/DX =    0.0                 !
 ! D7    D(6,1,3,4)            -54.8686         -DE/DX =    0.0                 !
 ! D8    D(6,1,3,9)           -177.9213         -DE/DX =    0.0                 !
 ! D9    D(6,1,3,10)            65.9706         -DE/DX =    0.0                 !
 ! D10   D(7,1,3,4)             64.285          -DE/DX =    0.0                 !
 ! D11   D(7,1,3,9)            -58.7678         -DE/DX =    0.0                 !
 ! D12   D(7,1,3,10)          -174.8759         -DE/DX =    0.0                 !
 ! D13   D(1,3,4,5)            -72.2587         -DE/DX =    0.0                 !
 ! D14   D(1,3,4,11)           167.4875         -DE/DX =    0.0                 !
 ! D15   D(1,3,4,12)            48.8715         -DE/DX =    0.0                 !
 ! D16   D(9,3,4,5)             50.5581         -DE/DX =    0.0                 !
 ! D17   D(9,3,4,11)           -69.6957         -DE/DX =    0.0                 !
 ! D18   D(9,3,4,12)           171.6883         -DE/DX =    0.0                 !
 ! D19   D(10,3,4,5)           166.0881         -DE/DX =    0.0                 !
 ! D20   D(10,3,4,11)           45.8343         -DE/DX =    0.0                 !
 ! D21   D(10,3,4,12)          -72.7816         -DE/DX =    0.0                 !
 ! D22   D(3,4,5,13)          -178.227          -DE/DX =    0.0                 !
 ! D23   D(11,4,5,13)          -57.7994         -DE/DX =    0.0                 !
 ! D24   D(12,4,5,13)           60.0761         -DE/DX =    0.0                 !
 --------------------------------------------------------------------------------
 GradGradGradGradGradGradGradGradGradGradGradGradGradGradGradGradGradGrad

                          Input orientation:                          
 ---------------------------------------------------------------------
 Center     Atomic      Atomic             Coordinates (Angstroms)
 Number     Number       Type             X           Y           Z
 ---------------------------------------------------------------------
      1          6           0        1.328823    2.275986    1.271071
      2          8           0        0.019547    2.022417    0.812715
      3          6           0        2.081064    0.946794    1.271387
      4          6           0        3.472782    1.088164    1.881089
      5          8           0        4.287603    1.795334    0.973797
      6          1           0        1.285478    2.706147    2.291899
      7          1           0        1.835768    3.016255    0.622327
      8          1           0       -0.373198    2.867635    0.644251
      9          1           0        2.148565    0.547869    0.239392
     10          1           0        1.515203    0.188845    1.849081
     11          1           0        3.907120    0.087888    2.076298
     12          1           0        3.429875    1.622395    2.851589
     13          1           0        5.148651    1.842901    1.365814
 ---------------------------------------------------------------------
                    Distance matrix (angstroms):
                    1          2          3          4          5
     1  C    0.000000
     2  O    1.410174   0.000000
     3  C    1.527291   2.370063   0.000000
     4  C    2.525787   3.733508   1.525975   0.000000
     5  O    3.012271   4.277127   2.382729   1.409681   0.000000
     6  H    1.108606   2.063506   2.183970   2.751532   3.402900
     7  H    1.107186   2.079091   2.182686   2.825213   2.761463
     8  H    1.907833   0.947112   3.179045   4.414503   4.793902
     9  H    2.173183   2.652491   1.108472   2.177300   2.582829
    10  H    2.173704   2.583220   1.108339   2.154510   3.321616
    11  H    3.476173   4.522419   2.172575   1.107840   2.067764
    12  H    2.709176   3.993415   2.184667   1.108654   2.071644
    13  H    3.845469   5.161963   3.197190   1.908842   0.947283
                    6          7          8          9         10
     6  H    0.000000
     7  H    1.785065   0.000000
     8  H    2.343508   2.214068   0.000000
     9  H    3.100946   2.517421   3.450291   0.000000
    10  H    2.566256   3.098699   3.491931   1.766677   0.000000
    11  H    3.711438   3.870383   5.300837   2.584245   2.404805
    12  H    2.467024   3.074676   4.570156   3.101602   2.593465
    13  H    4.065333   3.592315   5.662292   3.456365   4.021368
                   11         12         13
    11  H    0.000000
    12  H    1.784251   0.000000
    13  H    2.264125   2.282617   0.000000
 Stoichiometry    C3H8O2
 Framework group  C1[X(C3H8O2)]
 Deg. of freedom    33
 Full point group                 C1      NOp   1
 Largest Abelian subgroup         C1      NOp   1
 Largest concise Abelian subgroup C1      NOp   1
                         Standard orientation:                         
 ---------------------------------------------------------------------
 Center     Atomic      Atomic             Coordinates (Angstroms)
 Number     Number       Type             X           Y           Z
 ---------------------------------------------------------------------
      1          6           0        1.013909   -0.360350    0.299607
      2          8           0        2.301988   -0.022974   -0.164744
      3          6           0        0.039219    0.676191   -0.255532
      4          6           0       -1.368279    0.479161    0.300101
      5          8           0       -1.923367   -0.674539   -0.289861
      6          1           0        1.008204   -0.354751    1.408184
      7          1           0        0.733328   -1.380492   -0.026652
      8          1           0        2.859016   -0.763779    0.030061
      9          1           0        0.028389    0.633049   -1.363112
     10          1           0        0.382846    1.698197    0.001060
     11          1           0       -1.997265    1.360848    0.067049
     12          1           0       -1.349361    0.371935    1.403395
     13          1           0       -2.803228   -0.754915    0.051795
 ---------------------------------------------------------------------
 Rotational constants (GHZ):     14.0131731      2.3719201      2.2155581

 **********************************************************************

            Population analysis using the SCF density.

 **********************************************************************

 Orbital symmetries:
       Occupied  (A) (A) (A) (A) (A) (A) (A) (A) (A) (A) (A) (A)
                 (A) (A) (A) (A)
       Virtual   (A) (A) (A) (A) (A) (A) (A) (A) (A) (A) (A) (A)
 The electronic state is 1-A.
 Alpha  occ. eigenvalues --   -1.46259  -1.37147  -1.16600  -0.90705  -0.77348
 Alpha  occ. eigenvalues --   -0.67655  -0.64940  -0.60408  -0.57984  -0.54258
 Alpha  occ. eigenvalues --   -0.52836  -0.47641  -0.46550  -0.45088  -0.40527
 Alpha  occ. eigenvalues --   -0.39726
 Alpha virt. eigenvalues --    0.11369   0.12538   0.13343   0.14162   0.14302
 Alpha virt. eigenvalues --    0.15049   0.15316   0.16565   0.17635   0.18050
 Alpha virt. eigenvalues --    0.20507   0.21085
          Condensed to atoms (all electrons):
               1          2          3          4          5          6
     1  C    3.924532   0.000000   0.000000   0.000000   0.000000   0.000000
     2  O    0.000000   6.314027   0.000000   0.000000   0.000000   0.000000
     3  C    0.000000   0.000000   4.127328   0.000000   0.000000   0.000000
     4  C    0.000000   0.000000   0.000000   3.922663   0.000000   0.000000
     5  O    0.000000   0.000000   0.000000   0.000000   6.312822   0.000000
     6  H    0.000000   0.000000   0.000000   0.000000   0.000000   0.980779
     7  H    0.000000   0.000000   0.000000   0.000000   0.000000   0.000000
     8  H    0.000000   0.000000   0.000000   0.000000   0.000000   0.000000
     9  H    0.000000   0.000000   0.000000   0.000000   0.000000   0.000000
    10  H    0.000000   0.000000   0.000000   0.000000   0.000000   0.000000
    11  H    0.000000   0.000000   0.000000   0.000000   0.000000   0.000000
    12  H    0.000000   0.000000   0.000000   0.000000   0.000000   0.000000
    13  H    0.000000   0.000000   0.000000   0.000000   0.000000   0.000000
               7          8          9         10         11         12
     1  C    0.000000   0.000000   0.000000   0.000000   0.000000   0.000000
     2  O    0.000000   0.000000   0.000000   0.000000   0.000000   0.000000
     3  C    0.000000   0.000000   0.000000   0.000000   0.000000   0.000000
     4  C    0.000000   0.000000   0.000000   0.000000   0.000000   0.000000
     5  O    0.000000   0.000000   0.000000   0.000000   0.000000   0.000000
     6  H    0.000000   0.000000   0.000000   0.000000   0.000000   0.000000
     7  H    0.966738   0.000000   0.000000   0.000000   0.000000   0.000000
     8  H    0.000000   0.814987   0.000000   0.000000   0.000000   0.000000
     9  H    0.000000   0.000000   0.926811   0.000000   0.000000   0.000000
    10  H    0.000000   0.000000   0.000000   0.936505   0.000000   0.000000
    11  H    0.000000   0.000000   0.000000   0.000000   0.979159   0.000000
    12  H    0.000000   0.000000   0.000000   0.000000   0.000000   0.978413
    13  H    0.000000   0.000000   0.000000   0.000000   0.000000   0.000000
              13
     1  C    0.000000
     2  O    0.000000
     3  C    0.000000
     4  C    0.000000
     5  O    0.000000
     6  H    0.000000
     7  H    0.000000
     8  H    0.000000
     9  H    0.000000
    10  H    0.000000
    11  H    0.000000
    12  H    0.000000
    13  H    0.815235
 Mulliken charges:
               1
     1  C    0.075468
     2  O   -0.314027
     3  C   -0.127328
     4  C    0.077337
     5  O   -0.312822
     6  H    0.019221
     7  H    0.033262
     8  H    0.185013
     9  H    0.073189
    10  H    0.063495
    11  H    0.020841
    12  H    0.021587
    13  H    0.184765
 Sum of Mulliken charges =   0.00000
 Mulliken charges with hydrogens summed into heavy atoms:
               1
     1  C    0.127951
     2  O   -0.129014
     3  C    0.009356
     4  C    0.119765
     5  O   -0.128057
 Charge=              0.0000 electrons
 Dipole moment (field-independent basis, Debye):
    X=             -1.0803    Y=             -0.3591    Z=              1.5266  Tot=              1.9044
 N-N= 1.343142228628D+02 E-N=-2.235369694455D+02  KE=-2.249739111600D+01
 1\1\GINC-GTX1080DELTA\FOpt\RPM3\ZDO\C3H8O2\MVEROT\17-Apr-2022\0\\#n PM
 3 Opt\\Optimisation de geometrie\\0,1\C,1.3288228907,2.2759856024,1.27
 10714787\O,0.0195468505,2.0224171715,0.8127146852\C,2.0810635728,0.946
 7937088,1.2713868342\C,3.4727815356,1.0881642627,1.8810886696\O,4.2876
 031069,1.7953335256,0.9737968073\H,1.2854782498,2.7061470513,2.2918993
 603\H,1.8357679935,3.0162552089,0.6223271133\H,-0.3731979431,2.8676345
 112,0.644250839\H,2.148564668,0.5478691546,0.2393919041\H,1.5152025286
 ,0.1888452675,1.8490813702\H,3.9071198601,0.0878877566,2.0762983586\H,
 3.4298751965,1.6223953793,2.8515888249\H,5.1486514903,1.8429013996,1.3
 658137546\\Version=AM64L-G09RevD.01\State=1-A\HF=-0.1596919\RMSD=4.630
 e-09\RMSF=4.087e-06\Dipole=0.4192042,0.2867394,0.5508258\PG=C01 [X(C3H
 8O2)]\\@


 One man practicing sportsmanship is far better than 50 preaching it.
 -- Knute K. Rockne
 Job cpu time:       0 days  0 hours  0 minutes  7.4 seconds.
 File lengths (MBytes):  RWF=     72 Int=      0 D2E=      0 Chk=      2 Scr=      2
 Normal termination of Gaussian 09 at Sun Apr 17 23:35:55 2022.
