 Entering Gaussian System, Link 0=g09
 Input=/scratch/mverot/bi-phenyl-redundant-opt/bi-phenyl-redundant-opt.com
 Output=/scratch/mverot/bi-phenyl-redundant-opt/bi-phenyl-redundant-opt.log
 Initial command:
 /opt/g09/l1.exe "/scratch/mverot/bi-phenyl-redundant-opt/Gau-1500349.inp" -scrdir="/scratch/mverot/bi-phenyl-redundant-opt/"
 Entering Link 1 = /opt/g09/l1.exe PID=   1500352.
  
 Copyright (c) 1988,1990,1992,1993,1995,1998,2003,2009,2013,
            Gaussian, Inc.  All Rights Reserved.
  
 This is part of the Gaussian(R) 09 program.  It is based on
 the Gaussian(R) 03 system (copyright 2003, Gaussian, Inc.),
 the Gaussian(R) 98 system (copyright 1998, Gaussian, Inc.),
 the Gaussian(R) 94 system (copyright 1995, Gaussian, Inc.),
 the Gaussian 92(TM) system (copyright 1992, Gaussian, Inc.),
 the Gaussian 90(TM) system (copyright 1990, Gaussian, Inc.),
 the Gaussian 88(TM) system (copyright 1988, Gaussian, Inc.),
 the Gaussian 86(TM) system (copyright 1986, Carnegie Mellon
 University), and the Gaussian 82(TM) system (copyright 1983,
 Carnegie Mellon University). Gaussian is a federally registered
 trademark of Gaussian, Inc.
  
 This software contains proprietary and confidential information,
 including trade secrets, belonging to Gaussian, Inc.
  
 This software is provided under written license and may be
 used, copied, transmitted, or stored only in accord with that
 written license.
  
 The following legend is applicable only to US Government
 contracts under FAR:
  
                    RESTRICTED RIGHTS LEGEND
  
 Use, reproduction and disclosure by the US Government is
 subject to restrictions as set forth in subparagraphs (a)
 and (c) of the Commercial Computer Software - Restricted
 Rights clause in FAR 52.227-19.
  
 Gaussian, Inc.
 340 Quinnipiac St., Bldg. 40, Wallingford CT 06492
  
  
 ---------------------------------------------------------------
 Warning -- This program may not be used in any manner that
 competes with the business of Gaussian, Inc. or will provide
 assistance to any competitor of Gaussian, Inc.  The licensee
 of this program is prohibited from giving any competitor of
 Gaussian, Inc. access to this program.  By using this program,
 the user acknowledges that Gaussian, Inc. is engaged in the
 business of creating and licensing software in the field of
 computational chemistry and represents and warrants to the
 licensee that it is not a competitor of Gaussian, Inc. and that
 it will not use this program in any manner prohibited above.
 ---------------------------------------------------------------
  

 Cite this work as:
 Gaussian 09, Revision D.01,
 M. J. Frisch, G. W. Trucks, H. B. Schlegel, G. E. Scuseria, 
 M. A. Robb, J. R. Cheeseman, G. Scalmani, V. Barone, B. Mennucci, 
 G. A. Petersson, H. Nakatsuji, M. Caricato, X. Li, H. P. Hratchian, 
 A. F. Izmaylov, J. Bloino, G. Zheng, J. L. Sonnenberg, M. Hada, 
 M. Ehara, K. Toyota, R. Fukuda, J. Hasegawa, M. Ishida, T. Nakajima, 
 Y. Honda, O. Kitao, H. Nakai, T. Vreven, J. A. Montgomery, Jr., 
 J. E. Peralta, F. Ogliaro, M. Bearpark, J. J. Heyd, E. Brothers, 
 K. N. Kudin, V. N. Staroverov, T. Keith, R. Kobayashi, J. Normand, 
 K. Raghavachari, A. Rendell, J. C. Burant, S. S. Iyengar, J. Tomasi, 
 M. Cossi, N. Rega, J. M. Millam, M. Klene, J. E. Knox, J. B. Cross, 
 V. Bakken, C. Adamo, J. Jaramillo, R. Gomperts, R. E. Stratmann, 
 O. Yazyev, A. J. Austin, R. Cammi, C. Pomelli, J. W. Ochterski, 
 R. L. Martin, K. Morokuma, V. G. Zakrzewski, G. A. Voth, 
 P. Salvador, J. J. Dannenberg, S. Dapprich, A. D. Daniels, 
 O. Farkas, J. B. Foresman, J. V. Ortiz, J. Cioslowski, 
 and D. J. Fox, Gaussian, Inc., Wallingford CT, 2013.
 
 ******************************************
 Gaussian 09:  AM64L-G09RevD.01 24-Apr-2013
                18-Apr-2022 
 ******************************************
 %chk=bi-phenyl-opt
 -----------------------
 #n PM6 Opt=modredundant
 -----------------------
 1/14=-1,18=120,19=15,26=1,38=1/1,3;
 2/9=110,12=2,17=6,18=5,40=1/2;
 3/5=2,16=1,25=1,41=3900000,71=1/1,2,3;
 4/35=1/1;
 5/5=2,35=1,38=5/2;
 6/7=2,8=2,9=2,10=2,28=1/1;
 7//1,2,3,16;
 1/14=-1,18=20,19=15,26=1/3(2);
 2/9=110/2;
 99//99;
 2/9=110/2;
 3/5=2,16=1,25=1,41=3900000,71=1,135=20/1,2,3;
 4/5=5,16=3,35=1/1;
 5/5=2,35=1,38=5/2;
 7//1,2,3,16;
 1/14=-1,18=20,19=15,26=1/3(-5);
 2/9=110/2;
 6/7=2,8=2,9=2,10=2,19=2,28=1/1;
 99/9=1/99;
 -------------------------
 Optimisation de geometrie
 -------------------------
 Symbolic Z-matrix:
 Charge =  0 Multiplicity = 1
 C                    -2.9429   -0.6554    0.8399 
 C                    -1.5545   -0.5288    0.8511 
 C                    -0.9076    0.4131    0.0333 
 C                    -1.7004    1.2249   -0.7958 
 C                    -3.0889    1.1      -0.8067 
 C                    -3.7169    0.1588    0.0109 
 C                     0.5721    0.5469    0.0432 
 C                     1.1844    1.8079   -0.0566 
 C                     2.5727    1.934    -0.0502 
 C                     3.3814    0.8011    0.0576 
 C                     2.7881   -0.4586    0.1584 
 C                     1.3997   -0.5838    0.1506 
 H                     0.9492   -1.5712    0.2018 
 H                    -3.4213   -1.3858    1.4873 
 H                    -0.9639   -1.149     1.5198 
 H                    -1.2205    1.9419   -1.4562 
 H                    -3.6805    1.7335   -1.4626 
 H                    -4.7991    0.0606    0.0024 
 H                     0.5643    2.6982   -0.114 
 H                     3.0232    2.9207   -0.1208 
 H                     4.4637    0.899     0.0629 
 H                     3.4077   -1.3484    0.2341 
 
 The following ModRedundant input section has been read:
 D       2       3       7      12 S  36 10.000                                
 

 GradGradGradGradGradGradGradGradGradGradGradGradGradGradGradGradGradGrad
 Berny optimization.
 Initialization pass.
                           ----------------------------
                           !    Initial Parameters    !
                           ! (Angstroms and Degrees)  !
 --------------------------                            --------------------------
 ! Name  Definition              Value          Derivative Info.                !
 --------------------------------------------------------------------------------
 ! R1    R(1,2)                  1.3942         estimate D2E/DX2                !
 ! R2    R(1,6)                  1.3962         estimate D2E/DX2                !
 ! R3    R(1,14)                 1.087          estimate D2E/DX2                !
 ! R4    R(2,3)                  1.4052         estimate D2E/DX2                !
 ! R5    R(2,15)                 1.0866         estimate D2E/DX2                !
 ! R6    R(3,4)                  1.4053         estimate D2E/DX2                !
 ! R7    R(3,7)                  1.4858         estimate D2E/DX2                !
 ! R8    R(4,5)                  1.3941         estimate D2E/DX2                !
 ! R9    R(4,16)                 1.0865         estimate D2E/DX2                !
 ! R10   R(5,6)                  1.396          estimate D2E/DX2                !
 ! R11   R(5,17)                 1.087          estimate D2E/DX2                !
 ! R12   R(6,18)                 1.0867         estimate D2E/DX2                !
 ! R13   R(7,8)                  1.4053         estimate D2E/DX2                !
 ! R14   R(7,12)                 1.4053         estimate D2E/DX2                !
 ! R15   R(8,9)                  1.394          estimate D2E/DX2                !
 ! R16   R(8,19)                 1.0865         estimate D2E/DX2                !
 ! R17   R(9,10)                 1.3961         estimate D2E/DX2                !
 ! R18   R(9,20)                 1.087          estimate D2E/DX2                !
 ! R19   R(10,11)                1.3961         estimate D2E/DX2                !
 ! R20   R(10,21)                1.0867         estimate D2E/DX2                !
 ! R21   R(11,12)                1.3941         estimate D2E/DX2                !
 ! R22   R(11,22)                1.0869         estimate D2E/DX2                !
 ! R23   R(12,13)                1.0865         estimate D2E/DX2                !
 ! A1    A(2,1,6)              120.2576         estimate D2E/DX2                !
 ! A2    A(2,1,14)             119.6386         estimate D2E/DX2                !
 ! A3    A(6,1,14)             120.1014         estimate D2E/DX2                !
 ! A4    A(1,2,3)              120.9743         estimate D2E/DX2                !
 ! A5    A(1,2,15)             119.6302         estimate D2E/DX2                !
 ! A6    A(3,2,15)             119.377          estimate D2E/DX2                !
 ! A7    A(2,3,4)              118.0902         estimate D2E/DX2                !
 ! A8    A(2,3,7)              120.9964         estimate D2E/DX2                !
 ! A9    A(4,3,7)              120.9135         estimate D2E/DX2                !
 ! A10   A(3,4,5)              120.9782         estimate D2E/DX2                !
 ! A11   A(3,4,16)             119.3812         estimate D2E/DX2                !
 ! A12   A(5,4,16)             119.6213         estimate D2E/DX2                !
 ! A13   A(4,5,6)              120.2564         estimate D2E/DX2                !
 ! A14   A(4,5,17)             119.6408         estimate D2E/DX2                !
 ! A15   A(6,5,17)             120.1003         estimate D2E/DX2                !
 ! A16   A(1,6,5)              119.4433         estimate D2E/DX2                !
 ! A17   A(1,6,18)             120.2677         estimate D2E/DX2                !
 ! A18   A(5,6,18)             120.289          estimate D2E/DX2                !
 ! A19   A(3,7,8)              120.947          estimate D2E/DX2                !
 ! A20   A(3,7,12)             120.9674         estimate D2E/DX2                !
 ! A21   A(8,7,12)             118.0855         estimate D2E/DX2                !
 ! A22   A(7,8,9)              120.9803         estimate D2E/DX2                !
 ! A23   A(7,8,19)             119.3636         estimate D2E/DX2                !
 ! A24   A(9,8,19)             119.6376         estimate D2E/DX2                !
 ! A25   A(8,9,10)             120.2536         estimate D2E/DX2                !
 ! A26   A(8,9,20)             119.641          estimate D2E/DX2                !
 ! A27   A(10,9,20)            120.1032         estimate D2E/DX2                !
 ! A28   A(9,10,11)            119.4468         estimate D2E/DX2                !
 ! A29   A(9,10,21)            120.2763         estimate D2E/DX2                !
 ! A30   A(11,10,21)           120.277          estimate D2E/DX2                !
 ! A31   A(10,11,12)           120.2576         estimate D2E/DX2                !
 ! A32   A(10,11,22)           120.096          estimate D2E/DX2                !
 ! A33   A(12,11,22)           119.644          estimate D2E/DX2                !
 ! A34   A(7,12,11)            120.9762         estimate D2E/DX2                !
 ! A35   A(7,12,13)            119.3806         estimate D2E/DX2                !
 ! A36   A(11,12,13)           119.6234         estimate D2E/DX2                !
 ! D1    D(6,1,2,3)             -0.0693         estimate D2E/DX2                !
 ! D2    D(6,1,2,15)           178.354          estimate D2E/DX2                !
 ! D3    D(14,1,2,3)          -179.51           estimate D2E/DX2                !
 ! D4    D(14,1,2,15)           -1.0867         estimate D2E/DX2                !
 ! D5    D(2,1,6,5)              0.0238         estimate D2E/DX2                !
 ! D6    D(2,1,6,18)          -179.9699         estimate D2E/DX2                !
 ! D7    D(14,1,6,5)           179.4619         estimate D2E/DX2                !
 ! D8    D(14,1,6,18)           -0.5318         estimate D2E/DX2                !
 ! D9    D(1,2,3,4)              0.0476         estimate D2E/DX2                !
 ! D10   D(1,2,3,7)           -179.8987         estimate D2E/DX2                !
 ! D11   D(15,2,3,4)          -178.3797         estimate D2E/DX2                !
 ! D12   D(15,2,3,7)             1.674          estimate D2E/DX2                !
 ! D13   D(2,3,4,5)              0.0186         estimate D2E/DX2                !
 ! D14   D(2,3,4,16)          -178.3776         estimate D2E/DX2                !
 ! D15   D(7,3,4,5)            179.965          estimate D2E/DX2                !
 ! D16   D(7,3,4,16)             1.5687         estimate D2E/DX2                !
 ! D17   D(2,3,7,8)           -141.903          estimate D2E/DX2                !
 ! D18   D(2,3,7,12)            38.1929         Scan                            !
 ! D19   D(4,3,7,8)             38.1522         estimate D2E/DX2                !
 ! D20   D(4,3,7,12)          -141.7519         estimate D2E/DX2                !
 ! D21   D(3,4,5,6)             -0.0636         estimate D2E/DX2                !
 ! D22   D(3,4,5,17)          -179.4961         estimate D2E/DX2                !
 ! D23   D(16,4,5,6)           178.3289         estimate D2E/DX2                !
 ! D24   D(16,4,5,17)           -1.1037         estimate D2E/DX2                !
 ! D25   D(4,5,6,1)              0.0419         estimate D2E/DX2                !
 ! D26   D(4,5,6,18)          -179.9644         estimate D2E/DX2                !
 ! D27   D(17,5,6,1)           179.4719         estimate D2E/DX2                !
 ! D28   D(17,5,6,18)           -0.5345         estimate D2E/DX2                !
 ! D29   D(3,7,8,9)           -179.8644         estimate D2E/DX2                !
 ! D30   D(3,7,8,19)             1.7063         estimate D2E/DX2                !
 ! D31   D(12,7,8,9)             0.0424         estimate D2E/DX2                !
 ! D32   D(12,7,8,19)         -178.3869         estimate D2E/DX2                !
 ! D33   D(3,7,12,11)          179.9275         estimate D2E/DX2                !
 ! D34   D(3,7,12,13)            1.5543         estimate D2E/DX2                !
 ! D35   D(8,7,12,11)            0.0207         estimate D2E/DX2                !
 ! D36   D(8,7,12,13)         -178.3524         estimate D2E/DX2                !
 ! D37   D(7,8,9,10)            -0.0647         estimate D2E/DX2                !
 ! D38   D(7,8,9,20)          -179.526          estimate D2E/DX2                !
 ! D39   D(19,8,9,10)          178.3603         estimate D2E/DX2                !
 ! D40   D(19,8,9,20)           -1.101          estimate D2E/DX2                !
 ! D41   D(8,9,10,11)            0.023          estimate D2E/DX2                !
 ! D42   D(8,9,10,21)         -179.9832         estimate D2E/DX2                !
 ! D43   D(20,9,10,11)         179.4818         estimate D2E/DX2                !
 ! D44   D(20,9,10,21)          -0.5244         estimate D2E/DX2                !
 ! D45   D(9,10,11,12)           0.0396         estimate D2E/DX2                !
 ! D46   D(9,10,11,22)         179.4677         estimate D2E/DX2                !
 ! D47   D(21,10,11,12)       -179.9541         estimate D2E/DX2                !
 ! D48   D(21,10,11,22)         -0.5261         estimate D2E/DX2                !
 ! D49   D(10,11,12,7)          -0.0619         estimate D2E/DX2                !
 ! D50   D(10,11,12,13)        178.3073         estimate D2E/DX2                !
 ! D51   D(22,11,12,7)        -179.4926         estimate D2E/DX2                !
 ! D52   D(22,11,12,13)         -1.1234         estimate D2E/DX2                !
 --------------------------------------------------------------------------------
 Trust Radius=3.00D-01 FncErr=1.00D-07 GrdErr=1.00D-07
 Number of optimizations in scan=  37
 Number of steps in this run=    121 maximum allowed number of steps=    132.
 GradGradGradGradGradGradGradGradGradGradGradGradGradGradGradGradGradGrad

                          Input orientation:                          
 ---------------------------------------------------------------------
 Center     Atomic      Atomic             Coordinates (Angstroms)
 Number     Number       Type             X           Y           Z
 ---------------------------------------------------------------------
      1          6           0       -2.942900   -0.655400    0.839900
      2          6           0       -1.554500   -0.528800    0.851100
      3          6           0       -0.907600    0.413100    0.033300
      4          6           0       -1.700400    1.224900   -0.795800
      5          6           0       -3.088900    1.100000   -0.806700
      6          6           0       -3.716900    0.158800    0.010900
      7          6           0        0.572100    0.546900    0.043200
      8          6           0        1.184400    1.807900   -0.056600
      9          6           0        2.572700    1.934000   -0.050200
     10          6           0        3.381400    0.801100    0.057600
     11          6           0        2.788100   -0.458600    0.158400
     12          6           0        1.399700   -0.583800    0.150600
     13          1           0        0.949200   -1.571200    0.201800
     14          1           0       -3.421300   -1.385800    1.487300
     15          1           0       -0.963900   -1.149000    1.519800
     16          1           0       -1.220500    1.941900   -1.456200
     17          1           0       -3.680500    1.733500   -1.462600
     18          1           0       -4.799100    0.060600    0.002400
     19          1           0        0.564300    2.698200   -0.114000
     20          1           0        3.023200    2.920700   -0.120800
     21          1           0        4.463700    0.899000    0.062900
     22          1           0        3.407700   -1.348400    0.234100
 ---------------------------------------------------------------------
                    Distance matrix (angstroms):
                    1          2          3          4          5
     1  C    0.000000
     2  C    1.394205   0.000000
     3  C    2.436133   1.405152   0.000000
     4  C    2.784753   2.410193   1.405332   0.000000
     5  C    2.411231   2.784901   2.436288   1.394149   0.000000
     6  C    1.396151   2.419649   2.820875   2.419423   1.395962
     7  C    3.799405   2.516398   1.485770   2.515524   3.798838
     8  C    4.889393   3.712904   2.515952   3.034531   4.396006
     9  C    6.157850   4.889939   3.799026   4.395239   5.772483
    10  C    6.536831   5.173141   4.306583   5.170357   6.534611
    11  C    5.774732   4.398060   3.799172   4.887873   6.156280
    12  C    4.397549   3.036614   2.516188   3.711831   4.888674
    13  H    4.048988   2.788674   2.722783   3.979166   4.945567
    14  H    1.086958   2.150382   3.415969   3.871666   3.398842
    15  H    2.149964   1.086562   2.157083   3.397034   3.871205
    16  H    3.871008   3.396991   2.157254   1.086518   2.149782
    17  H    3.398883   3.871832   3.416160   2.150370   1.086976
    18  H    2.158597   3.405160   3.907555   3.405093   2.158652
    19  H    4.945403   3.979229   2.722107   2.786455   4.047215
    20  H    7.021808   5.813689   4.665082   5.063967   6.414294
    21  H    7.607734   6.235271   5.393314   6.232151   7.605154
    22  H    6.416959   5.067135   4.665299   5.811648   7.020238
                    6          7          8          9         10
     6  C    0.000000
     7  C    4.306644   0.000000
     8  C    5.171734   1.405344   0.000000
     9  C    6.535605   2.436221   1.394030   0.000000
    10  C    7.127453   2.820814   2.419400   1.396094   0.000000
    11  C    6.535898   2.436177   2.784798   2.411316   1.396069
    12  C    5.172095   1.405325   2.410294   2.784882   2.419449
    13  H    4.980144   2.157245   3.397117   3.871135   3.400617
    14  H    2.157064   4.665619   5.813417   7.022323   7.287201
    15  H    3.400901   2.723182   3.980388   4.947457   4.982223
    16  H    3.400565   2.721698   2.785746   4.045400   4.976997
    17  H    2.156898   4.664768   5.064546   6.413859   7.283599
    18  H    1.086679   5.393324   6.233684   7.606302   8.214132
    19  H    4.979239   2.157050   1.086486   2.149824   3.400660
    20  H    7.285217   3.416096   2.150263   1.086974   2.157044
    21  H    8.214184   3.907546   3.405024   2.158680   1.086732
    22  H    7.285698   3.416026   3.871666   3.398853   2.156895
                   11         12         13         14         15
    11  C    0.000000
    12  C    1.394055   0.000000
    13  H    2.149725   1.086522   0.000000
    14  H    6.417346   5.066756   4.559403   0.000000
    15  H    4.050625   2.789402   2.361213   2.468997   0.000000
    16  H    4.943502   3.978243   4.449543   4.957953   4.298381
    17  H    7.019667   5.812119   5.926668   4.301061   4.958168
    18  H    7.606544   6.233966   5.978753   2.489043   4.298185
    19  H    3.871030   3.396974   4.298332   5.926907   4.450353
    20  H    3.398955   3.871812   4.958096   7.916029   5.928827
    21  H    2.158665   3.405067   4.298010   8.332014   5.981279
    22  H    1.086912   2.150267   2.468786   6.943137   4.561104
                   16         17         18         19         20
    16  H    0.000000
    17  H    2.468820   0.000000
    18  H    4.298044   2.489194   0.000000
    19  H    2.357754   4.557159   5.978005   0.000000
    20  H    4.555253   6.938982   8.329690   2.468956   0.000000
    21  H    5.975402   8.327757   9.300862   4.298108   2.489188
    22  H    5.924814   7.913247   8.330098   4.957930   4.301047
                   21         22
    21  H    0.000000
    22  H    2.489026   0.000000
 Stoichiometry    C12H10
 Framework group  C1[X(C12H10)]
 Deg. of freedom    60
 Full point group                 C1      NOp   1
 Largest Abelian subgroup         C1      NOp   1
 Largest concise Abelian subgroup C1      NOp   1
                         Standard orientation:                         
 ---------------------------------------------------------------------
 Center     Atomic      Atomic             Coordinates (Angstroms)
 Number     Number       Type             X           Y           Z
 ---------------------------------------------------------------------
      1          6           0        2.860973    1.138964    0.392702
      2          6           0        1.466770    1.139032    0.395032
      3          6           0        0.742890    0.000698    0.001784
      4          6           0        1.464620   -1.138652   -0.393117
      5          6           0        2.858767   -1.140154   -0.394480
      6          6           0        3.563762   -0.001030   -0.001936
      7          6           0       -0.742880    0.000966    0.001951
      8          6           0       -1.465733   -1.138266    0.395178
      9          6           0       -2.859760   -1.139704    0.392925
     10          6           0       -3.563691   -0.000472   -0.001677
     11          6           0       -2.859884    1.139498   -0.394275
     12          6           0       -1.465829    1.139540   -0.392932
     13          1           0       -0.928469    2.022932   -0.726687
     14          1           0        3.399076    2.028929    0.708746
     15          1           0        0.930176    2.022632    0.729599
     16          1           0        0.926315   -2.021596   -0.726523
     17          1           0        3.395075   -2.030725   -0.711928
     18          1           0        4.650441   -0.001426   -0.003348
     19          1           0       -0.928081   -2.021194    0.729574
     20          1           0       -3.396931   -2.030355    0.708677
     21          1           0       -4.650421   -0.001097   -0.003314
     22          1           0       -3.397202    2.029380   -0.711731
 ---------------------------------------------------------------------
 Rotational constants (GHZ):      2.8593405      0.5455315      0.4745243
 Standard basis: VSTO-6G (5D, 7F)
 There are    58 symmetry adapted cartesian basis functions of A   symmetry.
 There are    58 symmetry adapted basis functions of A   symmetry.
    58 basis functions,   348 primitive gaussians,    58 cartesian basis functions
    29 alpha electrons       29 beta electrons
       nuclear repulsion energy       328.3647748443 Hartrees.
 Integral buffers will be    131072 words long.
 Regular integral format.
 Two-electron integral symmetry is turned off.
 Do NDO integrals.
 One-electron integrals computed using PRISM.
 NBasis=    58 RedAO= F EigKep=  0.00D+00  NBF=    58
 NBsUse=    58 1.00D-04 EigRej=  0.00D+00 NBFU=    58
 Simple Huckel Guess.
 Overlap will be assumed to be unity.
 Keep J ints in memory in canonical form, NReq=912245.
 Requested convergence on RMS density matrix=1.00D-08 within 128 cycles.
 Requested convergence on MAX density matrix=1.00D-06.
 Requested convergence on             energy=1.00D-06.
 No special actions if energy rises.
 SCF Done:  E(RPM6) =  0.767213571602E-01 A.U. after   16 cycles
            NFock= 15  Conv=0.41D-08     -V/T= 1.0021

 **********************************************************************

            Population analysis using the SCF density.

 **********************************************************************

 Orbital symmetries:
       Occupied  (A) (A) (A) (A) (A) (A) (A) (A) (A) (A) (A) (A)
                 (A) (A) (A) (A) (A) (A) (A) (A) (A) (A) (A) (A)
                 (A) (A) (A) (A) (A)
       Virtual   (A) (A) (A) (A) (A) (A) (A) (A) (A) (A) (A) (A)
                 (A) (A) (A) (A) (A) (A) (A) (A) (A) (A) (A) (A)
                 (A) (A) (A) (A) (A)
 The electronic state is 1-A.
 Alpha  occ. eigenvalues --   -1.10426  -1.09280  -0.99505  -0.96585  -0.94652
 Alpha  occ. eigenvalues --   -0.91568  -0.80757  -0.80581  -0.75934  -0.74229
 Alpha  occ. eigenvalues --   -0.66640  -0.61845  -0.58932  -0.57436  -0.55235
 Alpha  occ. eigenvalues --   -0.54528  -0.52853  -0.52039  -0.51946  -0.49549
 Alpha  occ. eigenvalues --   -0.47620  -0.46317  -0.44673  -0.43406  -0.43183
 Alpha  occ. eigenvalues --   -0.37583  -0.35858  -0.35775  -0.33105
 Alpha virt. eigenvalues --   -0.00755   0.01155   0.01223   0.02717   0.09173
 Alpha virt. eigenvalues --    0.10331   0.13703   0.15442   0.16617   0.16838
 Alpha virt. eigenvalues --    0.17579   0.17909   0.18522   0.18699   0.19050
 Alpha virt. eigenvalues --    0.19467   0.19625   0.20305   0.20577   0.20966
 Alpha virt. eigenvalues --    0.21448   0.22092   0.22358   0.22618   0.22728
 Alpha virt. eigenvalues --    0.22882   0.23261   0.23302   0.23429
          Condensed to atoms (all electrons):
               1          2          3          4          5          6
     1  C    4.130375   0.000000   0.000000   0.000000   0.000000   0.000000
     2  C    0.000000   4.170830   0.000000   0.000000   0.000000   0.000000
     3  C    0.000000   0.000000   3.981725   0.000000   0.000000   0.000000
     4  C    0.000000   0.000000   0.000000   4.170834   0.000000   0.000000
     5  C    0.000000   0.000000   0.000000   0.000000   4.130416   0.000000
     6  C    0.000000   0.000000   0.000000   0.000000   0.000000   4.154212
     7  C    0.000000   0.000000   0.000000   0.000000   0.000000   0.000000
     8  C    0.000000   0.000000   0.000000   0.000000   0.000000   0.000000
     9  C    0.000000   0.000000   0.000000   0.000000   0.000000   0.000000
    10  C    0.000000   0.000000   0.000000   0.000000   0.000000   0.000000
    11  C    0.000000   0.000000   0.000000   0.000000   0.000000   0.000000
    12  C    0.000000   0.000000   0.000000   0.000000   0.000000   0.000000
    13  H    0.000000   0.000000   0.000000   0.000000   0.000000   0.000000
    14  H    0.000000   0.000000   0.000000   0.000000   0.000000   0.000000
    15  H    0.000000   0.000000   0.000000   0.000000   0.000000   0.000000
    16  H    0.000000   0.000000   0.000000   0.000000   0.000000   0.000000
    17  H    0.000000   0.000000   0.000000   0.000000   0.000000   0.000000
    18  H    0.000000   0.000000   0.000000   0.000000   0.000000   0.000000
    19  H    0.000000   0.000000   0.000000   0.000000   0.000000   0.000000
    20  H    0.000000   0.000000   0.000000   0.000000   0.000000   0.000000
    21  H    0.000000   0.000000   0.000000   0.000000   0.000000   0.000000
    22  H    0.000000   0.000000   0.000000   0.000000   0.000000   0.000000
               7          8          9         10         11         12
     1  C    0.000000   0.000000   0.000000   0.000000   0.000000   0.000000
     2  C    0.000000   0.000000   0.000000   0.000000   0.000000   0.000000
     3  C    0.000000   0.000000   0.000000   0.000000   0.000000   0.000000
     4  C    0.000000   0.000000   0.000000   0.000000   0.000000   0.000000
     5  C    0.000000   0.000000   0.000000   0.000000   0.000000   0.000000
     6  C    0.000000   0.000000   0.000000   0.000000   0.000000   0.000000
     7  C    3.981713   0.000000   0.000000   0.000000   0.000000   0.000000
     8  C    0.000000   4.170859   0.000000   0.000000   0.000000   0.000000
     9  C    0.000000   0.000000   4.130405   0.000000   0.000000   0.000000
    10  C    0.000000   0.000000   0.000000   4.154191   0.000000   0.000000
    11  C    0.000000   0.000000   0.000000   0.000000   4.130418   0.000000
    12  C    0.000000   0.000000   0.000000   0.000000   0.000000   4.170805
    13  H    0.000000   0.000000   0.000000   0.000000   0.000000   0.000000
    14  H    0.000000   0.000000   0.000000   0.000000   0.000000   0.000000
    15  H    0.000000   0.000000   0.000000   0.000000   0.000000   0.000000
    16  H    0.000000   0.000000   0.000000   0.000000   0.000000   0.000000
    17  H    0.000000   0.000000   0.000000   0.000000   0.000000   0.000000
    18  H    0.000000   0.000000   0.000000   0.000000   0.000000   0.000000
    19  H    0.000000   0.000000   0.000000   0.000000   0.000000   0.000000
    20  H    0.000000   0.000000   0.000000   0.000000   0.000000   0.000000
    21  H    0.000000   0.000000   0.000000   0.000000   0.000000   0.000000
    22  H    0.000000   0.000000   0.000000   0.000000   0.000000   0.000000
              13         14         15         16         17         18
     1  C    0.000000   0.000000   0.000000   0.000000   0.000000   0.000000
     2  C    0.000000   0.000000   0.000000   0.000000   0.000000   0.000000
     3  C    0.000000   0.000000   0.000000   0.000000   0.000000   0.000000
     4  C    0.000000   0.000000   0.000000   0.000000   0.000000   0.000000
     5  C    0.000000   0.000000   0.000000   0.000000   0.000000   0.000000
     6  C    0.000000   0.000000   0.000000   0.000000   0.000000   0.000000
     7  C    0.000000   0.000000   0.000000   0.000000   0.000000   0.000000
     8  C    0.000000   0.000000   0.000000   0.000000   0.000000   0.000000
     9  C    0.000000   0.000000   0.000000   0.000000   0.000000   0.000000
    10  C    0.000000   0.000000   0.000000   0.000000   0.000000   0.000000
    11  C    0.000000   0.000000   0.000000   0.000000   0.000000   0.000000
    12  C    0.000000   0.000000   0.000000   0.000000   0.000000   0.000000
    13  H    0.848521   0.000000   0.000000   0.000000   0.000000   0.000000
    14  H    0.000000   0.855467   0.000000   0.000000   0.000000   0.000000
    15  H    0.000000   0.000000   0.848509   0.000000   0.000000   0.000000
    16  H    0.000000   0.000000   0.000000   0.848517   0.000000   0.000000
    17  H    0.000000   0.000000   0.000000   0.000000   0.855455   0.000000
    18  H    0.000000   0.000000   0.000000   0.000000   0.000000   0.853655
    19  H    0.000000   0.000000   0.000000   0.000000   0.000000   0.000000
    20  H    0.000000   0.000000   0.000000   0.000000   0.000000   0.000000
    21  H    0.000000   0.000000   0.000000   0.000000   0.000000   0.000000
    22  H    0.000000   0.000000   0.000000   0.000000   0.000000   0.000000
              19         20         21         22
     1  C    0.000000   0.000000   0.000000   0.000000
     2  C    0.000000   0.000000   0.000000   0.000000
     3  C    0.000000   0.000000   0.000000   0.000000
     4  C    0.000000   0.000000   0.000000   0.000000
     5  C    0.000000   0.000000   0.000000   0.000000
     6  C    0.000000   0.000000   0.000000   0.000000
     7  C    0.000000   0.000000   0.000000   0.000000
     8  C    0.000000   0.000000   0.000000   0.000000
     9  C    0.000000   0.000000   0.000000   0.000000
    10  C    0.000000   0.000000   0.000000   0.000000
    11  C    0.000000   0.000000   0.000000   0.000000
    12  C    0.000000   0.000000   0.000000   0.000000
    13  H    0.000000   0.000000   0.000000   0.000000
    14  H    0.000000   0.000000   0.000000   0.000000
    15  H    0.000000   0.000000   0.000000   0.000000
    16  H    0.000000   0.000000   0.000000   0.000000
    17  H    0.000000   0.000000   0.000000   0.000000
    18  H    0.000000   0.000000   0.000000   0.000000
    19  H    0.848520   0.000000   0.000000   0.000000
    20  H    0.000000   0.855453   0.000000   0.000000
    21  H    0.000000   0.000000   0.853658   0.000000
    22  H    0.000000   0.000000   0.000000   0.855462
 Mulliken charges:
               1
     1  C   -0.130375
     2  C   -0.170830
     3  C    0.018275
     4  C   -0.170834
     5  C   -0.130416
     6  C   -0.154212
     7  C    0.018287
     8  C   -0.170859
     9  C   -0.130405
    10  C   -0.154191
    11  C   -0.130418
    12  C   -0.170805
    13  H    0.151479
    14  H    0.144533
    15  H    0.151491
    16  H    0.151483
    17  H    0.144545
    18  H    0.146345
    19  H    0.151480
    20  H    0.144547
    21  H    0.146342
    22  H    0.144538
 Sum of Mulliken charges =  -0.00000
 Mulliken charges with hydrogens summed into heavy atoms:
               1
     1  C    0.014158
     2  C   -0.019340
     3  C    0.018275
     4  C   -0.019350
     5  C    0.014129
     6  C   -0.007867
     7  C    0.018287
     8  C   -0.019379
     9  C    0.014142
    10  C   -0.007849
    11  C    0.014120
    12  C   -0.019326
 Charge=             -0.0000 electrons
 Dipole moment (field-independent basis, Debye):
    X=              0.0001    Y=             -0.0006    Z=             -0.0030  Tot=              0.0031
 N-N= 3.283647748443D+02 E-N=-5.826122894583D+02  KE=-3.712306163650D+01
 Calling FoFJK, ICntrl=      2127 FMM=F ISym2X=0 I1Cent= 0 IOpClX= 0 NMat=1 NMatS=1 NMatT=0.
 ***** Axes restored to original set *****
 -------------------------------------------------------------------
 Center     Atomic                   Forces (Hartrees/Bohr)
 Number     Number              X              Y              Z
 -------------------------------------------------------------------
      1        6          -0.000794643   -0.000611174    0.001310100
      2        6           0.005042528    0.000418073    0.002503246
      3        6           0.001649426    0.000225473   -0.000097895
      4        6           0.005093733    0.000414746   -0.002375421
      5        6          -0.000861411    0.000559297   -0.001399745
      6        6          -0.001710899   -0.000268552    0.000114054
      7        6          -0.001556585   -0.000176141   -0.000049081
      8        6          -0.005385984    0.001242917    0.001628628
      9        6           0.000819907    0.001448882    0.000464199
     10        6           0.001748371    0.000175938    0.000015929
     11        6           0.001064430   -0.001257679   -0.000450731
     12        6          -0.005080524   -0.002203160   -0.001688468
     13        1          -0.000456964   -0.001906881    0.000761185
     14        1          -0.000715802   -0.000966534    0.000416651
     15        1           0.000745940   -0.001725502    0.000887132
     16        1           0.000453356    0.001850919   -0.000884115
     17        1          -0.000866417    0.000828530   -0.000432298
     18        1          -0.000725332   -0.000059863   -0.000016072
     19        1          -0.000767682    0.001835955   -0.000738464
     20        1           0.000717854    0.000983042   -0.000368495
     21        1           0.000697792    0.000063754    0.000006770
     22        1           0.000888905   -0.000872037    0.000392891
 -------------------------------------------------------------------
 Cartesian Forces:  Max     0.005385984 RMS     0.001644923

 GradGradGradGradGradGradGradGradGradGradGradGradGradGradGradGradGradGrad
 Berny optimization.
 FormGI is forming the generalized inverse of G from B-inverse, IUseBI=4.
 Internal  Forces:  Max     0.007340707 RMS     0.001505669
 Search for a local minimum.
 Step number   1 out of a maximum of  121 on scan point     1 out of    37
 All quantities printed in internal units (Hartrees-Bohrs-Radians)
 Mixed Optimization -- RFO/linear search
 Second derivative matrix not updated -- first step.
 ITU=  0
     Eigenvalues ---    0.01403   0.01688   0.02036   0.02037   0.02086
     Eigenvalues ---    0.02086   0.02099   0.02099   0.02131   0.02132
     Eigenvalues ---    0.02141   0.02141   0.02148   0.02148   0.02154
     Eigenvalues ---    0.02155   0.02156   0.02156   0.15994   0.15994
     Eigenvalues ---    0.15995   0.15995   0.15999   0.15999   0.15999
     Eigenvalues ---    0.15999   0.16000   0.16000   0.22000   0.22000
     Eigenvalues ---    0.22000   0.22000   0.23469   0.23469   0.25000
     Eigenvalues ---    0.25000   0.33917   0.35164   0.35165   0.35167
     Eigenvalues ---    0.35172   0.35193   0.35199   0.35213   0.35218
     Eigenvalues ---    0.35218   0.35222   0.41504   0.41514   0.41752
     Eigenvalues ---    0.41757   0.45173   0.45178   0.45627   0.45635
     Eigenvalues ---    0.46351   0.46354   0.46599   0.466221000.00000
     Eigenvalues --- 1000.000001000.000001000.000001000.000001000.00000
     Eigenvalues --- 1000.000001000.000001000.000001000.000001000.00000
     Eigenvalues --- 1000.000001000.000001000.000001000.000001000.00000
     Eigenvalues --- 1000.000001000.000001000.000001000.000001000.00000
     Eigenvalues --- 1000.000001000.000001000.000001000.000001000.00000
     Eigenvalues --- 1000.000001000.000001000.000001000.000001000.00000
     Eigenvalues --- 1000.000001000.000001000.000001000.000001000.00000
     Eigenvalues --- 1000.000001000.000001000.000001000.000001000.00000
     Eigenvalues --- 1000.000001000.000001000.000001000.000001000.00000
     Eigenvalues --- 1000.000001000.000001000.000001000.000001000.00000
     Eigenvalues --- 1000.00000
 RFO step:  Lambda=-9.42138011D-04 EMin= 1.40267354D-02
 Linear search not attempted -- first point.
 Iteration  1 RMS(Cart)=  0.01646126 RMS(Int)=  0.00009078
 Iteration  2 RMS(Cart)=  0.00026061 RMS(Int)=  0.00004553
 Iteration  3 RMS(Cart)=  0.00000003 RMS(Int)=  0.00004553
 Iteration  1 RMS(Cart)=  0.00003229 RMS(Int)=  0.00001459
 Iteration  2 RMS(Cart)=  0.00001916 RMS(Int)=  0.00001625
 Iteration  3 RMS(Cart)=  0.00001137 RMS(Int)=  0.00001852
 Iteration  4 RMS(Cart)=  0.00000675 RMS(Int)=  0.00002018
 Iteration  5 RMS(Cart)=  0.00000400 RMS(Int)=  0.00002124
 Iteration  6 RMS(Cart)=  0.00000238 RMS(Int)=  0.00002189
 Iteration  7 RMS(Cart)=  0.00000141 RMS(Int)=  0.00002229
 Iteration  8 RMS(Cart)=  0.00000084 RMS(Int)=  0.00002253
 Variable       Old X    -DE/DX   Delta X   Delta X   Delta X     New X
                                 (Linear)    (Quad)   (Total)
    R1        2.63467   0.00282   0.00000   0.00604   0.00604   2.64070
    R2        2.63834   0.00325   0.00000   0.00712   0.00711   2.64545
    R3        2.05405   0.00121   0.00000   0.00344   0.00344   2.05749
    R4        2.65535   0.00092   0.00000   0.00193   0.00195   2.65730
    R5        2.05330   0.00194   0.00000   0.00548   0.00548   2.05879
    R6        2.65569   0.00084   0.00000   0.00176   0.00178   2.65747
    R7        2.80770  -0.00734   0.00000  -0.02158  -0.02158   2.78612
    R8        2.63456   0.00288   0.00000   0.00617   0.00617   2.64073
    R9        2.05322   0.00196   0.00000   0.00555   0.00555   2.05877
   R10        2.63799   0.00343   0.00000   0.00751   0.00749   2.64548
   R11        2.05409   0.00122   0.00000   0.00345   0.00345   2.05753
   R12        2.05353   0.00073   0.00000   0.00206   0.00206   2.05559
   R13        2.65572   0.00082   0.00000   0.00172   0.00174   2.65745
   R14        2.65568   0.00078   0.00000   0.00161   0.00163   2.65731
   R15        2.63433   0.00298   0.00000   0.00638   0.00638   2.64072
   R16        2.05316   0.00198   0.00000   0.00561   0.00561   2.05877
   R17        2.63824   0.00331   0.00000   0.00726   0.00724   2.64548
   R18        2.05408   0.00121   0.00000   0.00344   0.00344   2.05752
   R19        2.63819   0.00333   0.00000   0.00729   0.00727   2.64546
   R20        2.05363   0.00070   0.00000   0.00199   0.00199   2.05561
   R21        2.63438   0.00298   0.00000   0.00638   0.00638   2.64076
   R22        2.05397   0.00125   0.00000   0.00354   0.00354   2.05751
   R23        2.05323   0.00196   0.00000   0.00555   0.00555   2.05877
    A1        2.09889  -0.00029   0.00000  -0.00074  -0.00075   2.09814
    A2        2.08809   0.00038   0.00000   0.00185   0.00183   2.08992
    A3        2.09617  -0.00008   0.00000  -0.00102  -0.00103   2.09513
    A4        2.11140  -0.00221   0.00000  -0.00986  -0.00985   2.10155
    A5        2.08794   0.00067   0.00000   0.00236   0.00232   2.09026
    A6        2.08352   0.00155   0.00000   0.00782   0.00777   2.09129
    A7        2.06106   0.00427   0.00000   0.01690   0.01689   2.07795
    A8        2.11178  -0.00226   0.00000  -0.00897  -0.00906   2.10273
    A9        2.11034  -0.00201   0.00000  -0.00795  -0.00804   2.10230
   A10        2.11147  -0.00226   0.00000  -0.00999  -0.01000   2.10147
   A11        2.08360   0.00157   0.00000   0.00790   0.00784   2.09143
   A12        2.08779   0.00070   0.00000   0.00250   0.00244   2.09023
   A13        2.09887  -0.00030   0.00000  -0.00071  -0.00072   2.09815
   A14        2.08813   0.00037   0.00000   0.00178   0.00177   2.08990
   A15        2.09615  -0.00007   0.00000  -0.00100  -0.00101   2.09514
   A16        2.08468   0.00079   0.00000   0.00440   0.00438   2.08906
   A17        2.09907  -0.00038   0.00000  -0.00213  -0.00212   2.09695
   A18        2.09944  -0.00041   0.00000  -0.00227  -0.00227   2.09717
   A19        2.11092  -0.00208   0.00000  -0.00819  -0.00830   2.10262
   A20        2.11128  -0.00221   0.00000  -0.00873  -0.00884   2.10244
   A21        2.06098   0.00429   0.00000   0.01696   0.01694   2.07792
   A22        2.11150  -0.00224   0.00000  -0.00998  -0.00997   2.10153
   A23        2.08329   0.00158   0.00000   0.00802   0.00797   2.09126
   A24        2.08807   0.00067   0.00000   0.00233   0.00227   2.09034
   A25        2.09882  -0.00029   0.00000  -0.00068  -0.00069   2.09814
   A26        2.08813   0.00038   0.00000   0.00184   0.00183   2.08996
   A27        2.09620  -0.00009   0.00000  -0.00110  -0.00111   2.09509
   A28        2.08474   0.00077   0.00000   0.00433   0.00431   2.08905
   A29        2.09922  -0.00038   0.00000  -0.00217  -0.00216   2.09706
   A30        2.09923  -0.00038   0.00000  -0.00216  -0.00215   2.09707
   A31        2.09889  -0.00030   0.00000  -0.00073  -0.00074   2.09815
   A32        2.09607  -0.00007   0.00000  -0.00098  -0.00100   2.09507
   A33        2.08818   0.00037   0.00000   0.00180   0.00178   2.08996
   A34        2.11143  -0.00223   0.00000  -0.00991  -0.00990   2.10154
   A35        2.08358   0.00154   0.00000   0.00773   0.00768   2.09126
   A36        2.08782   0.00070   0.00000   0.00254   0.00249   2.09031
    D1       -0.00121   0.00000   0.00000   0.00392   0.00391   0.00270
    D2        3.11286   0.00033   0.00000   0.01751   0.01747   3.13034
    D3       -3.13304  -0.00022   0.00000  -0.00722  -0.00724  -3.14028
    D4       -0.01897   0.00011   0.00000   0.00636   0.00633  -0.01263
    D5        0.00042   0.00000   0.00000   0.00226   0.00225   0.00267
    D6       -3.14107   0.00000   0.00000  -0.00060  -0.00059   3.14152
    D7        3.13220   0.00023   0.00000   0.01347   0.01345  -3.13754
    D8       -0.00928   0.00022   0.00000   0.01061   0.01060   0.00132
    D9        0.00083  -0.00001   0.00000  -0.00998  -0.01008  -0.00925
   D10       -3.13982  -0.00002   0.00000   0.01063   0.01071  -3.12912
   D11       -3.11331  -0.00032   0.00000  -0.02344  -0.02357  -3.13688
   D12        0.02922  -0.00033   0.00000  -0.00284  -0.00278   0.02644
   D13        0.00033   0.00001   0.00000   0.01013   0.01023   0.01055
   D14       -3.11328  -0.00033   0.00000  -0.00684  -0.00676  -3.12004
   D15        3.14098   0.00002   0.00000  -0.01046  -0.01055   3.13043
   D16        0.02738  -0.00031   0.00000  -0.02742  -0.02754  -0.00016
   D17       -2.47667   0.00088   0.00000   0.02403   0.02390  -2.45278
   D18        0.66659   0.00084   0.00000   0.00000   0.00000   0.66660
   D19        0.66588   0.00086   0.00000   0.04521   0.04496   0.71084
   D20       -2.47404   0.00082   0.00000   0.02117   0.02107  -2.45297
   D21       -0.00111  -0.00000   0.00000  -0.00423  -0.00421  -0.00532
   D22       -3.13280  -0.00023   0.00000  -0.01294  -0.01293   3.13746
   D23        3.11243   0.00034   0.00000   0.01287   0.01285   3.12528
   D24       -0.01926   0.00012   0.00000   0.00415   0.00413  -0.01513
   D25        0.00073  -0.00000   0.00000  -0.00210  -0.00210  -0.00136
   D26       -3.14097   0.00000   0.00000   0.00076   0.00075  -3.14022
   D27        3.13238   0.00023   0.00000   0.00667   0.00667   3.13904
   D28       -0.00933   0.00023   0.00000   0.00953   0.00952   0.00019
   D29       -3.13923  -0.00003   0.00000  -0.01309  -0.01320   3.13076
   D30        0.02978  -0.00034   0.00000  -0.02910  -0.02922   0.00056
   D31        0.00074   0.00000   0.00000   0.01024   0.01034   0.01108
   D32       -3.11344  -0.00031   0.00000  -0.00577  -0.00568  -3.11912
   D33        3.14033   0.00004   0.00000   0.01341   0.01350  -3.12936
   D34        0.02713  -0.00031   0.00000  -0.00144  -0.00138   0.02575
   D35        0.00036   0.00000   0.00000  -0.00993  -0.01004  -0.00967
   D36       -3.11284  -0.00034   0.00000  -0.02478  -0.02491  -3.13775
   D37       -0.00113  -0.00000   0.00000  -0.00444  -0.00442  -0.00555
   D38       -3.13332  -0.00021   0.00000  -0.01241  -0.01240   3.13747
   D39        3.11297   0.00032   0.00000   0.01170   0.01169   3.12466
   D40       -0.01922   0.00011   0.00000   0.00373   0.00371  -0.01551
   D41        0.00040   0.00000   0.00000  -0.00195  -0.00194  -0.00154
   D42       -3.14130   0.00001   0.00000   0.00112   0.00111  -3.14019
   D43        3.13255   0.00021   0.00000   0.00607   0.00607   3.13862
   D44       -0.00915   0.00022   0.00000   0.00914   0.00913  -0.00003
   D45        0.00069   0.00000   0.00000   0.00226   0.00226   0.00295
   D46        3.13230   0.00023   0.00000   0.01384   0.01382  -3.13707
   D47       -3.14079  -0.00000   0.00000  -0.00080  -0.00080  -3.14159
   D48       -0.00918   0.00023   0.00000   0.01078   0.01076   0.00158
   D49       -0.00108  -0.00000   0.00000   0.00381   0.00380   0.00272
   D50        3.11205   0.00036   0.00000   0.01879   0.01876   3.13081
   D51       -3.13274  -0.00023   0.00000  -0.00770  -0.00771  -3.14044
   D52       -0.01961   0.00013   0.00000   0.00728   0.00725  -0.01236
         Item               Value     Threshold  Converged?
 Maximum Force            0.007341     0.000450     NO 
 RMS     Force            0.001507     0.000300     NO 
 Maximum Displacement     0.047806     0.001800     NO 
 RMS     Displacement     0.016554     0.001200     NO 
 Predicted change in Energy=-4.760364D-04
 GradGradGradGradGradGradGradGradGradGradGradGradGradGradGradGradGradGrad

                          Input orientation:                          
 ---------------------------------------------------------------------
 Center     Atomic      Atomic             Coordinates (Angstroms)
 Number     Number       Type             X           Y           Z
 ---------------------------------------------------------------------
      1          6           0       -2.926734   -0.649715    0.853634
      2          6           0       -1.535429   -0.519726    0.863472
      3          6           0       -0.902761    0.423214    0.034049
      4          6           0       -1.689153    1.224647   -0.812651
      5          6           0       -3.080387    1.093561   -0.819258
      6          6           0       -3.703747    0.157078    0.013937
      7          6           0        0.566056    0.550794    0.031693
      8          6           0        1.171711    1.817533   -0.046581
      9          6           0        2.563890    1.937804   -0.035696
     10          6           0        3.368878    0.796485    0.060095
     11          6           0        2.772832   -0.467224    0.146907
     12          6           0        1.380913   -0.590607    0.134552
     13          1           0        0.924948   -1.578369    0.192333
     14          1           0       -3.405373   -1.382530    1.501187
     15          1           0       -0.938602   -1.144035    1.527525
     16          1           0       -1.210703    1.945136   -1.475139
     17          1           0       -3.679060    1.722310   -1.476336
     18          1           0       -4.786688    0.054914    0.007124
     19          1           0        0.551999    2.711631   -0.105411
     20          1           0        3.021472    2.923637   -0.100708
     21          1           0        4.452471    0.891368    0.069798
     22          1           0        3.393467   -1.358307    0.225874
 ---------------------------------------------------------------------
                    Distance matrix (angstroms):
                    1          2          3          4          5
     1  C    0.000000
     2  C    1.397399   0.000000
     3  C    2.432974   1.406182   0.000000
     4  C    2.796667   2.424016   1.406274   0.000000
     5  C    2.420989   2.796635   2.433013   1.397412   0.000000
     6  C    1.399912   2.425154   2.813673   2.425189   1.399925
     7  C    3.783700   2.500821   1.474349   2.500592   3.783551
     8  C    4.867746   3.690472   2.500812   3.020417   4.381952
     9  C    6.134583   4.863370   3.783717   4.381851   5.760605
    10  C    6.508143   5.141017   4.287996   5.150600   6.515714
    11  C    5.746114   4.367761   3.783597   4.867493   6.134305
    12  C    4.367653   3.006892   2.500620   3.690210   4.863062
    13  H    4.016861   2.761269   2.715126   3.962375   4.919881
    14  H    1.088778   2.155876   3.417056   3.885438   3.408974
    15  H    2.156652   1.089464   2.165185   3.413269   3.886061
    16  H    3.886026   3.413223   2.165346   1.089454   2.156636
    17  H    3.408996   3.885432   3.417126   2.155894   1.088800
    18  H    2.161599   3.410898   3.901443   3.411016   2.161748
    19  H    4.931531   3.967084   2.715258   2.781019   4.040044
    20  H    7.004339   5.792386   4.655092   5.058005   6.410786
    21  H    7.579050   6.202907   5.375775   6.213641   7.587836
    22  H    6.390707   5.040215   4.654911   5.795103   7.001053
                    6          7          8          9         10
     6  C    0.000000
     7  C    4.287953   0.000000
     8  C    5.150812   1.406262   0.000000
     9  C    6.515882   2.433039   1.397406   0.000000
    10  C    7.101619   2.813714   2.425173   1.399926   0.000000
    11  C    6.507957   2.433002   2.796631   2.420983   1.399916
    12  C    5.140753   1.406190   2.423988   2.796655   2.425195
    13  H    4.946556   2.165166   3.413228   3.886078   3.410309
    14  H    2.161326   4.655040   5.795316   7.001337   7.260532
    15  H    3.410259   2.715503   3.962591   4.920248   4.947055
    16  H    3.410244   2.715070   2.780820   4.039752   4.964766
    17  H    2.161359   4.654848   5.057989   6.410640   7.272634
    18  H    1.087771   5.375720   6.213874   7.588023   8.189382
    19  H    4.965013   2.165227   1.089456   2.156704   3.410276
    20  H    7.272934   3.417160   2.155925   1.088795   2.161325
    21  H    8.189395   3.901496   3.410969   2.161688   1.087783
    22  H    7.260286   3.417109   3.885408   3.408954   2.161300
                   11         12         13         14         15
    11  C    0.000000
    12  C    1.397432   0.000000
    13  H    2.156707   1.089457   0.000000
    14  H    6.390781   5.040175   4.528038   0.000000
    15  H    4.017328   2.761667   2.333282   2.478413   0.000000
    16  H    4.931437   3.967061   4.444835   4.974782   4.316597
    17  H    7.003991   5.792053   5.905576   4.310519   4.974859
    18  H    7.578820   6.202599   5.943458   2.491285   4.307768
    19  H    3.885985   3.413130   4.316461   5.916426   4.444607
    20  H    3.408969   3.885446   4.974871   7.900220   5.905869
    21  H    2.161690   3.410999   4.307904   8.304529   5.944031
    22  H    1.088785   2.155940   2.478536   6.917459   4.528469
                   16         17         18         19         20
    16  H    0.000000
    17  H    2.478394   0.000000
    18  H    4.307866   2.491526   0.000000
    19  H    2.360252   4.556320   5.964259   0.000000
    20  H    4.556076   6.944975   8.319168   2.478561   0.000000
    21  H    5.963958   8.318822   9.277157   4.307869   2.491375
    22  H    5.916466   7.899896   8.304215   4.974745   4.310462
                   21         22
    21  H    0.000000
    22  H    2.491363   0.000000
 Stoichiometry    C12H10
 Framework group  C1[X(C12H10)]
 Deg. of freedom    60
 Full point group                 C1      NOp   1
 Largest Abelian subgroup         C1      NOp   1
 Largest concise Abelian subgroup C1      NOp   1
                         Standard orientation:                         
 ---------------------------------------------------------------------
 Center     Atomic      Atomic             Coordinates (Angstroms)
 Number     Number       Type             X           Y           Z
 ---------------------------------------------------------------------
      1          6           0        2.844020    1.142061    0.407988
      2          6           0        1.446627    1.138559    0.409910
      3          6           0        0.737155   -0.006674    0.006874
      4          6           0        1.453807   -1.143162   -0.408351
      5          6           0        2.851207   -1.137341   -0.407769
      6          6           0        3.550800    0.004293    0.000926
      7          6           0       -0.737132   -0.006775   -0.006642
      8          6           0       -1.454014   -1.143078    0.408653
      9          6           0       -2.851408   -1.137241    0.407560
     10          6           0       -3.550818    0.004383   -0.001478
     11          6           0       -2.843838    1.142168   -0.408159
     12          6           0       -1.446412    1.138586   -0.409680
     13          1           0       -0.903627    2.024611   -0.737186
     14          1           0        3.382381    2.034333    0.723354
     15          1           0        0.904031    2.024443    0.738136
     16          1           0        0.916848   -2.030312   -0.742341
     17          1           0        3.395193   -2.024572   -0.727749
     18          1           0        4.638563    0.008259   -0.000198
     19          1           0       -0.917076   -2.029947    0.743429
     20          1           0       -3.395580   -2.024325    0.727610
     21          1           0       -4.638594    0.008270   -0.000688
     22          1           0       -3.382104    2.034564   -0.723361
 ---------------------------------------------------------------------
 Rotational constants (GHZ):      2.8336468      0.5498159      0.4782063
 Standard basis: VSTO-6G (5D, 7F)
 There are    58 symmetry adapted cartesian basis functions of A   symmetry.
 There are    58 symmetry adapted basis functions of A   symmetry.
    58 basis functions,   348 primitive gaussians,    58 cartesian basis functions
    29 alpha electrons       29 beta electrons
       nuclear repulsion energy       328.5004863245 Hartrees.
 Integral buffers will be    131072 words long.
 Regular integral format.
 Two-electron integral symmetry is turned off.
 Do NDO integrals.
 One-electron integrals computed using PRISM.
 NBasis=    58 RedAO= F EigKep=  0.00D+00  NBF=    58
 NBsUse=    58 1.00D-04 EigRej=  0.00D+00 NBFU=    58
 Initial guess from the checkpoint file:  "bi-phenyl-opt.chk"
 B after Tr=     0.000000    0.000000    0.000000
         Rot=    1.000000    0.000004    0.000249   -0.000058 Ang=   0.03 deg.
 Overlap will be assumed to be unity.
 Keep J ints in memory in canonical form, NReq=912245.
 Requested convergence on RMS density matrix=1.00D-08 within 128 cycles.
 Requested convergence on MAX density matrix=1.00D-06.
 Requested convergence on             energy=1.00D-06.
 No special actions if energy rises.
 SCF Done:  E(RPM6) =  0.763151345591E-01 A.U. after   12 cycles
            NFock= 11  Conv=0.97D-08     -V/T= 1.0021
 Calling FoFJK, ICntrl=      2127 FMM=F ISym2X=0 I1Cent= 0 IOpClX= 0 NMat=1 NMatS=1 NMatT=0.
 ***** Axes restored to original set *****
 -------------------------------------------------------------------
 Center     Atomic                   Forces (Hartrees/Bohr)
 Number     Number              X              Y              Z
 -------------------------------------------------------------------
      1        6           0.000040640    0.001059163   -0.001034839
      2        6          -0.000356927    0.000814110    0.000977389
      3        6          -0.004362348   -0.001732425   -0.002101870
      4        6          -0.000176978   -0.000006816   -0.000018026
      5        6           0.000215834   -0.000947375    0.001103077
      6        6           0.001695365    0.000068571   -0.000079091
      7        6           0.004440837    0.000984588    0.002449916
      8        6           0.000139557    0.000045698    0.000013287
      9        6          -0.000013177   -0.001471276   -0.000010785
     10        6          -0.001693058   -0.000141772    0.000115315
     11        6          -0.000273767    0.001454922   -0.000086412
     12        6           0.000345216   -0.000128070   -0.001262832
     13        1           0.000306239    0.000049271   -0.000128676
     14        1          -0.000126908    0.000196422   -0.000054082
     15        1          -0.000310139    0.000072690    0.000049941
     16        1          -0.000238729   -0.000084515    0.000058641
     17        1          -0.000085714   -0.000224437    0.000060606
     18        1           0.000102245    0.000048665    0.000021894
     19        1           0.000263598   -0.000055335   -0.000015156
     20        1           0.000115356   -0.000175426    0.000112880
     21        1          -0.000112164   -0.000013533   -0.000045469
     22        1           0.000085022    0.000186878   -0.000125708
 -------------------------------------------------------------------
 Cartesian Forces:  Max     0.004440837 RMS     0.001042974

 GradGradGradGradGradGradGradGradGradGradGradGradGradGradGradGradGradGrad
 Berny optimization.
 Using GEDIIS/GDIIS optimizer.
 FormGI is forming the generalized inverse of G from B-inverse, IUseBI=4.
 Internal  Forces:  Max     0.003652197 RMS     0.000584760
 Search for a local minimum.
 Step number   2 out of a maximum of  121 on scan point     1 out of    37
 All quantities printed in internal units (Hartrees-Bohrs-Radians)
 Mixed Optimization -- En-DIIS/RFO-DIIS
 Update second derivatives using D2CorX and points    1    2
 DE= -4.06D-04 DEPred=-4.76D-04 R= 8.53D-01
 TightC=F SS=  1.41D+00  RLast= 1.10D-01 DXNew= 5.0454D-01 3.2858D-01
 Trust test= 8.53D-01 RLast= 1.10D-01 DXMaxT set to 3.29D-01
 ITU=  1  0
 Use linear search instead of GDIIS.
     Eigenvalues ---    0.01364   0.01695   0.02034   0.02036   0.02085
     Eigenvalues ---    0.02087   0.02098   0.02109   0.02128   0.02131
     Eigenvalues ---    0.02141   0.02141   0.02148   0.02148   0.02154
     Eigenvalues ---    0.02156   0.02156   0.02178   0.15658   0.15999
     Eigenvalues ---    0.15999   0.15999   0.16000   0.16000   0.16000
     Eigenvalues ---    0.16000   0.16000   0.16002   0.21021   0.22000
     Eigenvalues ---    0.22000   0.22000   0.22006   0.23475   0.24994
     Eigenvalues ---    0.25034   0.34823   0.35165   0.35166   0.35170
     Eigenvalues ---    0.35181   0.35194   0.35200   0.35214   0.35218
     Eigenvalues ---    0.35221   0.37104   0.41480   0.41810   0.41817
     Eigenvalues ---    0.42035   0.45166   0.45171   0.45633   0.46238
     Eigenvalues ---    0.46352   0.46353   0.46611   0.559901000.00000
     Eigenvalues --- 1000.000001000.000001000.000001000.000001000.00000
     Eigenvalues --- 1000.000001000.000001000.000001000.000001000.00000
     Eigenvalues --- 1000.000001000.000001000.000001000.000001000.00000
     Eigenvalues --- 1000.000001000.000001000.000001000.000001000.00000
     Eigenvalues --- 1000.000001000.000001000.000001000.000001000.00000
     Eigenvalues --- 1000.000001000.000001000.000001000.000001000.00000
     Eigenvalues --- 1000.000001000.000001000.000001000.000001000.00000
     Eigenvalues --- 1000.000001000.000001000.000001000.000001000.00000
     Eigenvalues --- 1000.000001000.000001000.000001000.000001000.00000
     Eigenvalues --- 1000.000001000.000001000.000001000.000001000.00000
     Eigenvalues --- 1000.00000
 RFO step:  Lambda=-5.86670112D-05 EMin= 1.36361931D-02
 Quartic linear search produced a step of -0.12129.
 Iteration  1 RMS(Cart)=  0.00483467 RMS(Int)=  0.00000955
 Iteration  2 RMS(Cart)=  0.00001583 RMS(Int)=  0.00000504
 Iteration  3 RMS(Cart)=  0.00000000 RMS(Int)=  0.00000504
 Iteration  1 RMS(Cart)=  0.00000279 RMS(Int)=  0.00000126
 Iteration  2 RMS(Cart)=  0.00000166 RMS(Int)=  0.00000141
 Iteration  3 RMS(Cart)=  0.00000098 RMS(Int)=  0.00000160
 Variable       Old X    -DE/DX   Delta X   Delta X   Delta X     New X
                                 (Linear)    (Quad)   (Total)
    R1        2.64070  -0.00091  -0.00073  -0.00061  -0.00134   2.63936
    R2        2.64545  -0.00174  -0.00086  -0.00215  -0.00301   2.64244
    R3        2.05749  -0.00011  -0.00042   0.00036  -0.00006   2.05743
    R4        2.65730  -0.00029  -0.00024  -0.00006  -0.00030   2.65700
    R5        2.05879  -0.00018  -0.00067   0.00055  -0.00011   2.05867
    R6        2.65747  -0.00045  -0.00022  -0.00040  -0.00062   2.65685
    R7        2.78612   0.00365   0.00262   0.00551   0.00813   2.79425
    R8        2.64073  -0.00094  -0.00075  -0.00065  -0.00140   2.63933
    R9        2.05877  -0.00020  -0.00067   0.00052  -0.00015   2.05862
   R10        2.64548  -0.00176  -0.00091  -0.00213  -0.00304   2.64244
   R11        2.05753  -0.00012  -0.00042   0.00033  -0.00009   2.05745
   R12        2.05559  -0.00011  -0.00025   0.00011  -0.00014   2.05545
   R13        2.65745  -0.00045  -0.00021  -0.00041  -0.00062   2.65683
   R14        2.65731  -0.00028  -0.00020  -0.00010  -0.00030   2.65702
   R15        2.64072  -0.00095  -0.00077  -0.00063  -0.00140   2.63932
   R16        2.05877  -0.00019  -0.00068   0.00054  -0.00014   2.05863
   R17        2.64548  -0.00175  -0.00088  -0.00216  -0.00303   2.64244
   R18        2.05752  -0.00012  -0.00042   0.00034  -0.00008   2.05744
   R19        2.64546  -0.00175  -0.00088  -0.00215  -0.00303   2.64243
   R20        2.05561  -0.00011  -0.00024   0.00008  -0.00016   2.05545
   R21        2.64076  -0.00095  -0.00077  -0.00062  -0.00139   2.63937
   R22        2.05751  -0.00011  -0.00043   0.00036  -0.00007   2.05744
   R23        2.05877  -0.00018  -0.00067   0.00057  -0.00011   2.05867
    A1        2.09814   0.00019   0.00009   0.00036   0.00046   2.09859
    A2        2.08992   0.00010  -0.00022   0.00114   0.00092   2.09083
    A3        2.09513  -0.00029   0.00013  -0.00150  -0.00137   2.09376
    A4        2.10155  -0.00039   0.00119  -0.00301  -0.00182   2.09973
    A5        2.09026  -0.00006  -0.00028  -0.00038  -0.00066   2.08960
    A6        2.09129   0.00045  -0.00094   0.00337   0.00243   2.09372
    A7        2.07795  -0.00001  -0.00205   0.00355   0.00150   2.07946
    A8        2.10273   0.00028   0.00110  -0.00100   0.00010   2.10283
    A9        2.10230  -0.00026   0.00098  -0.00270  -0.00172   2.10058
   A10        2.10147  -0.00033   0.00121  -0.00282  -0.00161   2.09986
   A11        2.09143   0.00034  -0.00095   0.00288   0.00193   2.09337
   A12        2.09023  -0.00001  -0.00030  -0.00004  -0.00033   2.08990
   A13        2.09815   0.00018   0.00009   0.00027   0.00036   2.09851
   A14        2.08990   0.00011  -0.00021   0.00119   0.00098   2.09088
   A15        2.09514  -0.00029   0.00012  -0.00147  -0.00134   2.09380
   A16        2.08906   0.00036  -0.00053   0.00162   0.00109   2.09015
   A17        2.09695  -0.00016   0.00026  -0.00072  -0.00046   2.09649
   A18        2.09717  -0.00019   0.00027  -0.00090  -0.00062   2.09655
   A19        2.10262  -0.00031   0.00101  -0.00292  -0.00191   2.10071
   A20        2.10244   0.00032   0.00107  -0.00081   0.00027   2.10271
   A21        2.07792   0.00000  -0.00205   0.00359   0.00153   2.07945
   A22        2.10153  -0.00034   0.00121  -0.00286  -0.00165   2.09988
   A23        2.09126   0.00036  -0.00097   0.00301   0.00205   2.09331
   A24        2.09034  -0.00002  -0.00028  -0.00013  -0.00040   2.08994
   A25        2.09814   0.00018   0.00008   0.00029   0.00037   2.09851
   A26        2.08996   0.00010  -0.00022   0.00116   0.00094   2.09090
   A27        2.09509  -0.00028   0.00013  -0.00145  -0.00131   2.09378
   A28        2.08905   0.00036  -0.00052   0.00162   0.00110   2.09015
   A29        2.09706  -0.00018   0.00026  -0.00081  -0.00055   2.09651
   A30        2.09707  -0.00018   0.00026  -0.00081  -0.00055   2.09652
   A31        2.09815   0.00019   0.00009   0.00035   0.00044   2.09859
   A32        2.09507  -0.00028   0.00012  -0.00145  -0.00133   2.09375
   A33        2.08996   0.00009  -0.00022   0.00109   0.00088   2.09084
   A34        2.10154  -0.00039   0.00120  -0.00301  -0.00181   2.09973
   A35        2.09126   0.00045  -0.00093   0.00339   0.00246   2.09372
   A36        2.09031  -0.00007  -0.00030  -0.00040  -0.00070   2.08961
    D1        0.00270  -0.00004  -0.00047   0.00389   0.00342   0.00611
    D2        3.13034  -0.00010  -0.00212   0.00228   0.00017   3.13051
    D3       -3.14028   0.00002   0.00088   0.00261   0.00349  -3.13679
    D4       -0.01263  -0.00004  -0.00077   0.00101   0.00024  -0.01239
    D5        0.00267  -0.00010  -0.00027  -0.00128  -0.00155   0.00112
    D6        3.14152   0.00001   0.00007  -0.00046  -0.00039   3.14113
    D7       -3.13754  -0.00016  -0.00163  -0.00000  -0.00163  -3.13917
    D8        0.00132  -0.00005  -0.00129   0.00081  -0.00047   0.00085
    D9       -0.00925   0.00022   0.00122  -0.00452  -0.00329  -0.01253
   D10       -3.12912  -0.00028  -0.00130   0.00339   0.00208  -3.12703
   D11       -3.13688   0.00028   0.00286  -0.00288  -0.00001  -3.13689
   D12        0.02644  -0.00022   0.00034   0.00502   0.00536   0.03180
   D13        0.01055  -0.00026  -0.00124   0.00257   0.00133   0.01188
   D14       -3.12004  -0.00019   0.00082   0.00080   0.00161  -3.11843
   D15        3.13043   0.00024   0.00128  -0.00531  -0.00401   3.12641
   D16       -0.00016   0.00032   0.00334  -0.00709  -0.00373  -0.00389
   D17       -2.45278   0.00097  -0.00290   0.00807   0.00518  -2.44760
   D18        0.66660   0.00149  -0.00000   0.00000  -0.00001   0.66659
   D19        0.71084   0.00046  -0.00545   0.01601   0.01057   0.72142
   D20       -2.45297   0.00098  -0.00256   0.00794   0.00539  -2.44758
   D21       -0.00532   0.00013   0.00051   0.00001   0.00052  -0.00480
   D22        3.13746   0.00013   0.00157  -0.00027   0.00130   3.13876
   D23        3.12528   0.00006  -0.00156   0.00180   0.00025   3.12553
   D24       -0.01513   0.00006  -0.00050   0.00153   0.00103  -0.01410
   D25       -0.00136   0.00005   0.00025  -0.00066  -0.00041  -0.00177
   D26       -3.14022  -0.00006  -0.00009  -0.00147  -0.00157   3.14140
   D27        3.13904   0.00005  -0.00081  -0.00038  -0.00119   3.13785
   D28        0.00019  -0.00005  -0.00115  -0.00120  -0.00235  -0.00216
   D29        3.13076   0.00025   0.00160  -0.00570  -0.00409   3.12667
   D30        0.00056   0.00031   0.00354  -0.00768  -0.00412  -0.00356
   D31        0.01108  -0.00027  -0.00125   0.00230   0.00104   0.01213
   D32       -3.11912  -0.00021   0.00069   0.00033   0.00101  -3.11811
   D33       -3.12936  -0.00029  -0.00164   0.00373   0.00209  -3.12727
   D34        0.02575  -0.00021   0.00017   0.00558   0.00575   0.03150
   D35       -0.00967   0.00022   0.00122  -0.00431  -0.00308  -0.01275
   D36       -3.13775   0.00030   0.00302  -0.00245   0.00058  -3.13717
   D37       -0.00555   0.00014   0.00054   0.00012   0.00065  -0.00490
   D38        3.13747   0.00012   0.00150  -0.00035   0.00115   3.13862
   D39        3.12466   0.00007  -0.00142   0.00211   0.00070   3.12536
   D40       -0.01551   0.00006  -0.00045   0.00165   0.00120  -0.01430
   D41       -0.00154   0.00005   0.00024  -0.00055  -0.00031  -0.00185
   D42       -3.14019  -0.00006  -0.00013  -0.00164  -0.00178   3.14122
   D43        3.13862   0.00006  -0.00074  -0.00008  -0.00082   3.13781
   D44       -0.00003  -0.00005  -0.00111  -0.00117  -0.00228  -0.00230
   D45        0.00295  -0.00010  -0.00027  -0.00145  -0.00172   0.00122
   D46       -3.13707  -0.00017  -0.00168  -0.00035  -0.00202  -3.13908
   D47       -3.14159   0.00001   0.00010  -0.00036  -0.00026   3.14133
   D48        0.00158  -0.00005  -0.00131   0.00075  -0.00056   0.00103
   D49        0.00272  -0.00003  -0.00046   0.00389   0.00343   0.00616
   D50        3.13081  -0.00011  -0.00228   0.00207  -0.00020   3.13061
   D51       -3.14044   0.00003   0.00093   0.00279   0.00373  -3.13672
   D52       -0.01236  -0.00004  -0.00088   0.00097   0.00010  -0.01226
         Item               Value     Threshold  Converged?
 Maximum Force            0.003652     0.000450     NO 
 RMS     Force            0.000543     0.000300     NO 
 Maximum Displacement     0.017679     0.001800     NO 
 RMS     Displacement     0.004842     0.001200     NO 
 Predicted change in Energy=-3.713393D-05
 GradGradGradGradGradGradGradGradGradGradGradGradGradGradGradGradGradGrad

                          Input orientation:                          
 ---------------------------------------------------------------------
 Center     Atomic      Atomic             Coordinates (Angstroms)
 Number     Number       Type             X           Y           Z
 ---------------------------------------------------------------------
      1          6           0       -2.927609   -0.645946    0.856220
      2          6           0       -1.536853   -0.517764    0.866517
      3          6           0       -0.904992    0.424205    0.035645
      4          6           0       -1.689883    1.222656   -0.814710
      5          6           0       -3.080208    1.089851   -0.821636
      6          6           0       -3.702613    0.156972    0.013616
      7          6           0        0.568241    0.550539    0.029895
      8          6           0        1.172536    1.817840   -0.043749
      9          6           0        2.564041    1.937120   -0.031160
     10          6           0        3.367728    0.796532    0.060761
     11          6           0        2.773347   -0.466527    0.142472
     12          6           0        1.382294   -0.591396    0.131048
     13          1           0        0.928245   -1.580207    0.184766
     14          1           0       -3.408548   -1.374969    1.506290
     15          1           0       -0.941936   -1.140321    1.533821
     16          1           0       -1.212320    1.941429   -1.479568
     17          1           0       -3.680096    1.714325   -1.481601
     18          1           0       -4.785518    0.055201    0.006873
     19          1           0        0.553849    2.712703   -0.100297
     20          1           0        3.023205    2.922475   -0.091387
     21          1           0        4.451227    0.891558    0.070064
     22          1           0        3.395862   -1.356678    0.216519
 ---------------------------------------------------------------------
                    Distance matrix (angstroms):
                    1          2          3          4          5
     1  C    0.000000
     2  C    1.396688   0.000000
     3  C    2.430955   1.406023   0.000000
     4  C    2.795648   2.424666   1.405945   0.000000
     5  C    2.418983   2.795752   2.430963   1.396671   0.000000
     6  C    1.398317   2.423474   2.810442   2.423405   1.398319
     7  C    3.786206   2.504522   1.478651   2.502843   3.785122
     8  C    4.867378   3.691127   2.502927   3.023584   4.384165
     9  C    6.133343   4.863087   3.785177   4.384094   5.761968
    10  C    6.507285   5.141161   4.288985   5.150481   6.514641
    11  C    5.748263   4.370892   3.786158   4.867233   6.133182
    12  C    4.370825   3.011271   2.504441   3.691004   4.862933
    13  H    4.023842   2.769527   2.720416   3.963532   4.920341
    14  H    1.088746   2.155772   3.415789   3.884393   3.406227
    15  H    2.155562   1.089403   2.166480   3.414481   3.885107
    16  H    3.884924   3.414245   2.166170   1.089375   2.155706
    17  H    3.406248   3.884504   3.415794   2.155790   1.088755
    18  H    2.159821   3.408973   3.898137   3.408945   2.159863
    19  H    4.931125   3.967579   2.717337   2.786567   4.044793
    20  H    7.003125   5.791973   4.657061   5.062190   6.414314
    21  H    7.578204   6.203034   5.376680   6.213346   7.586630
    22  H    6.395361   5.045588   4.658498   5.794928   7.000197
                    6          7          8          9         10
     6  C    0.000000
     7  C    4.288981   0.000000
     8  C    5.150616   1.405933   0.000000
     9  C    6.514744   2.430957   1.396665   0.000000
    10  C    7.099365   2.810443   2.423399   1.398322   0.000000
    11  C    6.507182   2.430964   2.795640   2.418982   1.398314
    12  C    5.141024   1.406033   2.424659   2.795753   2.423476
    13  H    4.948933   2.166487   3.414472   3.885106   3.408129
    14  H    2.159026   4.658560   5.795082   7.000394   7.261053
    15  H    3.408128   2.720558   3.963638   4.920537   4.949193
    16  H    3.408145   2.717251   2.786465   4.044602   4.965908
    17  H    2.159058   4.656972   5.062230   6.414255   7.272761
    18  H    1.087697   5.376675   6.213523   7.586771   8.187057
    19  H    4.966106   2.166129   1.089381   2.155733   3.408162
    20  H    7.272940   3.415792   2.155798   1.088752   2.159046
    21  H    8.187058   3.898138   3.408924   2.159841   1.087697
    22  H    7.260899   3.415807   3.884389   3.406226   2.159019
                   11         12         13         14         15
    11  C    0.000000
    12  C    1.396694   0.000000
    13  H    2.155568   1.089400   0.000000
    14  H    6.395396   5.045537   4.538317   0.000000
    15  H    4.024075   2.769681   2.347557   2.477901   0.000000
    16  H    4.931005   3.967532   4.444541   4.973657   4.318658
    17  H    7.002904   5.791785   5.904873   4.306387   4.973861
    18  H    7.578062   6.202855   5.945864   2.487908   4.305110
    19  H    3.884921   3.414223   4.318624   5.915300   4.444492
    20  H    3.406237   3.884502   4.973858   7.898610   5.905078
    21  H    2.159842   3.408992   4.305134   8.305176   5.946202
    22  H    1.088750   2.155787   2.477924   6.925593   4.538566
                   16         17         18         19         20
    16  H    0.000000
    17  H    2.478205   0.000000
    18  H    4.305242   2.488012   0.000000
    19  H    2.369938   4.564104   5.965119   0.000000
    20  H    4.563898   6.951731   8.319078   2.478266   0.000000
    21  H    5.964843   8.318835   9.274747   4.305247   2.487958
    22  H    5.915197   7.898345   8.304958   4.973658   4.306371
                   21         22
    21  H    0.000000
    22  H    2.487933   0.000000
 Stoichiometry    C12H10
 Framework group  C1[X(C12H10)]
 Deg. of freedom    60
 Full point group                 C1      NOp   1
 Largest Abelian subgroup         C1      NOp   1
 Largest concise Abelian subgroup C1      NOp   1
                         Standard orientation:                         
 ---------------------------------------------------------------------
 Center     Atomic      Atomic             Coordinates (Angstroms)
 Number     Number       Type             X           Y           Z
 ---------------------------------------------------------------------
      1          6           0        2.844531    1.139654    0.411748
      2          6           0        1.447845    1.137916    0.413441
      3          6           0        0.739276   -0.007097    0.008749
      4          6           0        1.454728   -1.142227   -0.411121
      5          6           0        2.851380   -1.134876   -0.411624
      6          6           0        3.549682    0.004401    0.000343
      7          6           0       -0.739274   -0.007118   -0.008499
      8          6           0       -1.454847   -1.142169    0.411337
      9          6           0       -2.851493   -1.134814    0.411487
     10          6           0       -3.549683    0.004456   -0.000699
     11          6           0       -2.844420    1.139719   -0.411873
     12          6           0       -1.447729    1.137960   -0.413243
     13          1           0       -0.906759    2.023449   -0.744986
     14          1           0        3.384823    2.029325    0.731028
     15          1           0        0.906971    2.023366    0.745454
     16          1           0        0.918823   -2.028858   -0.747913
     17          1           0        3.396982   -2.019479   -0.735945
     18          1           0        4.637373    0.008059   -0.000606
     19          1           0       -0.918985   -2.028718    0.748437
     20          1           0       -3.397201   -2.019400    0.735667
     21          1           0       -4.637374    0.008025   -0.000169
     22          1           0       -3.384637    2.029406   -0.731247
 ---------------------------------------------------------------------
 Rotational constants (GHZ):      2.8351459      0.5494944      0.4783311
 Standard basis: VSTO-6G (5D, 7F)
 There are    58 symmetry adapted cartesian basis functions of A   symmetry.
 There are    58 symmetry adapted basis functions of A   symmetry.
    58 basis functions,   348 primitive gaussians,    58 cartesian basis functions
    29 alpha electrons       29 beta electrons
       nuclear repulsion energy       328.5155708857 Hartrees.
 Integral buffers will be    131072 words long.
 Regular integral format.
 Two-electron integral symmetry is turned off.
 Do NDO integrals.
 One-electron integrals computed using PRISM.
 NBasis=    58 RedAO= F EigKep=  0.00D+00  NBF=    58
 NBsUse=    58 1.00D-04 EigRej=  0.00D+00 NBFU=    58
 Initial guess from the checkpoint file:  "bi-phenyl-opt.chk"
 B after Tr=     0.000000   -0.000000    0.000000
         Rot=    1.000000   -0.000002   -0.000014   -0.000006 Ang=  -0.00 deg.
 Overlap will be assumed to be unity.
 Keep J ints in memory in canonical form, NReq=912245.
 Requested convergence on RMS density matrix=1.00D-08 within 128 cycles.
 Requested convergence on MAX density matrix=1.00D-06.
 Requested convergence on             energy=1.00D-06.
 No special actions if energy rises.
 SCF Done:  E(RPM6) =  0.762757009031E-01 A.U. after   12 cycles
            NFock= 11  Conv=0.53D-08     -V/T= 1.0021
 Calling FoFJK, ICntrl=      2127 FMM=F ISym2X=0 I1Cent= 0 IOpClX= 0 NMat=1 NMatS=1 NMatT=0.
 ***** Axes restored to original set *****
 -------------------------------------------------------------------
 Center     Atomic                   Forces (Hartrees/Bohr)
[...]
           D41         -0.11022  -0.10092
           D42       -179.98454 179.98043
           D43        179.67952 179.71450
           D44         -0.19480  -0.20416
           D45          0.07241   0.03346
           D46       -179.87179-179.94658
           D47        179.94673 179.95211
           D48          0.00253  -0.02793
           D49          0.43037   0.36270
           D50        179.36327 179.36165
           D51       -179.62535-179.65722
           D52         -0.69245  -0.65827
                          Input orientation:                          
 ---------------------------------------------------------------------
 Center     Atomic      Atomic             Coordinates (Angstroms)
 Number     Number       Type             X           Y           Z
 ---------------------------------------------------------------------
      1          6           0       -3.071612    1.088629   -0.833029
      2          6           0       -1.680454    1.215121   -0.819703
      3          6           0       -0.903371    0.402046    0.023126
      4          6           0       -1.543463   -0.527497    0.861100
      5          6           0       -2.934934   -0.648677    0.844886
      6          6           0       -3.702195    0.157364   -0.002058
      7          6           0        0.569064    0.544806    0.054450
      8          6           0        1.389988   -0.592980    0.141144
      9          6           0        2.780317   -0.458892    0.151765
     10          6           0        3.366219    0.808378    0.071415
     11          6           0        2.554908    1.943464   -0.021931
     12          6           0        1.163924    1.815074   -0.034390
     13          1           0        0.539839    2.705334   -0.096849
     14          1           0       -3.665990    1.718449   -1.493025
     15          1           0       -1.197252    1.935778   -1.477822
     16          1           0       -0.954613   -1.149010    1.534028
     17          1           0       -3.423048   -1.371585    1.496552
     18          1           0       -4.785805    0.061162   -0.013360
     19          1           0        0.942222   -1.584456    0.189600
     20          1           0        3.409202   -1.345111    0.219859
     21          1           0        4.449299    0.910591    0.080168
     22          1           0        3.007751    2.931611   -0.085529
 ---------------------------------------------------------------------
                    Distance matrix (angstroms):
                    1          2          3          4          5
     1  C    0.000000
     2  C    1.396961   0.000000
     3  C    2.430158   1.405457   0.000000
     4  C    2.795921   2.424991   1.405691   0.000000
     5  C    2.419155   2.796126   2.430340   1.396832   0.000000
     6  C    1.398357   2.423805   2.809611   2.423675   1.398465
     7  C    3.786540   2.504754   1.479671   2.502655   3.785127
     8  C    4.866487   3.690538   2.502699   3.021218   4.382157
     9  C    6.132676   4.862566   3.785145   4.382115   5.760254
    10  C    6.507091   5.140860   4.289154   5.149091   6.513509
    11  C    5.748595   4.370951   3.786514   4.866418   6.132611
    12  C    4.370962   3.011170   2.504728   3.690458   4.862492
    13  H    4.024708   2.770010   2.720733   3.963459   4.920396
    14  H    1.088832   2.156167   3.415216   3.884752   3.406400
    15  H    2.155608   1.089014   2.165998   3.414402   3.885089
    16  H    3.884800   3.414090   2.165924   1.088970   2.155672
    17  H    3.406333   3.884935   3.415482   2.156183   1.088816
    18  H    2.160093   3.409548   3.897541   3.409396   2.160134
    19  H    4.929708   3.966706   2.716637   2.783290   4.041958
    20  H    7.002329   5.791379   4.657204   5.060491   6.412780
    21  H    7.578241   6.202933   5.377076   6.212177   7.585711
    22  H    6.396405   5.046248   4.659118   5.794400   6.999974
                    6          7          8          9         10
     6  C    0.000000
     7  C    4.289167   0.000000
     8  C    5.149160   1.405699   0.000000
     9  C    6.513554   2.430334   1.396820   0.000000
    10  C    7.098711   2.809597   2.423666   1.398467   0.000000
    11  C    6.507063   2.430155   2.795922   2.419151   1.398342
    12  C    5.140832   1.405464   2.425003   2.796122   2.423786
    13  H    4.949342   2.166016   3.414421   3.885084   3.408105
    14  H    2.159000   4.659163   5.794491   7.000073   7.261382
    15  H    3.408134   2.720759   3.963518   4.920472   4.949387
    16  H    3.408134   2.716571   2.783244   4.041858   4.963889
    17  H    2.159037   4.657163   5.060501   6.412737   7.271685
    18  H    1.087931   5.377093   6.212261   7.585771   8.186636
    19  H    4.963998   2.165934   1.088975   2.155671   3.408135
    20  H    7.271770   3.415484   2.156182   1.088815   2.159026
    21  H    8.186633   3.897523   3.409373   2.160118   1.087927
    22  H    7.261321   3.415205   3.884749   3.406397   2.158993
                   11         12         13         14         15
    11  C    0.000000
    12  C    1.396952   0.000000
    13  H    2.155588   1.089012   0.000000
    14  H    6.396430   5.046288   4.540071   0.000000
    15  H    4.024721   2.770057   2.348784   2.478333   0.000000
    16  H    4.929619   3.966601   4.443998   4.973625   4.318105
    17  H    7.002234   5.791276   5.904631   4.306379   4.973904
    18  H    7.578205   6.202896   5.946520   2.487970   4.305409
    19  H    3.884806   3.414107   4.318132   5.914054   4.444063
    20  H    3.406318   3.884930   4.973897   7.897957   5.904724
    21  H    2.160086   3.409531   4.305382   8.305751   5.946585
    22  H    1.088828   2.156147   2.478290   6.927599   4.540067
                   16         17         18         19         20
    16  H    0.000000
    17  H    2.478732   0.000000
    18  H    4.305457   2.487912   0.000000
    19  H    2.365393   4.561690   5.963183   0.000000
    20  H    4.561620   6.950560   8.318061   2.478748   0.000000
    21  H    5.963047   8.317951   9.274558   4.305441   2.487871
    22  H    5.913947   7.897825   8.305673   4.973627   4.306364
                   21         22
    21  H    0.000000
    22  H    2.487979   0.000000
 Stoichiometry    C12H10
 Framework group  C1[X(C12H10)]
 Deg. of freedom    60
 Full point group                 C1      NOp   1
 Largest Abelian subgroup         C1      NOp   1
 Largest concise Abelian subgroup C1      NOp   1
                         Standard orientation:                         
 ---------------------------------------------------------------------
 Center     Atomic      Atomic             Coordinates (Angstroms)
 Number     Number       Type             X           Y           Z
 ---------------------------------------------------------------------
      1          6           0        2.844664   -1.139435   -0.411842
      2          6           0        1.447705   -1.138416   -0.413512
      3          6           0        0.739783    0.006308   -0.008833
      4          6           0        1.453718    1.142267    0.410522
      5          6           0        2.850532    1.135214    0.411718
      6          6           0        3.549362   -0.004002   -0.000023
      7          6           0       -0.739784    0.006316    0.008718
      8          6           0       -1.453772    1.142263   -0.410609
      9          6           0       -2.850574    1.135202   -0.411640
     10          6           0       -3.549349   -0.004042    0.000119
     11          6           0       -2.844616   -1.139475    0.411830
     12          6           0       -1.447666   -1.138399    0.413516
     13          1           0       -0.907231   -2.023582    0.745675
     14          1           0        3.385575   -2.028454   -0.732175
     15          1           0        0.907285   -2.023583   -0.745741
     16          1           0        0.917417    2.028551    0.746286
     17          1           0        3.396116    2.019412    0.737373
     18          1           0        4.637287   -0.007287    0.001377
     19          1           0       -0.917503    2.028558   -0.746414
     20          1           0       -3.396217    2.019382   -0.737242
     21          1           0       -4.637271   -0.007306   -0.001153
     22          1           0       -3.385479   -2.028499    0.732219
 ---------------------------------------------------------------------
 Rotational constants (GHZ):      2.8347519      0.5496298      0.4784197

 **********************************************************************

            Population analysis using the SCF density.

 **********************************************************************

 Orbital symmetries:
       Occupied  (A) (A) (A) (A) (A) (A) (A) (A) (A) (A) (A) (A)
                 (A) (A) (A) (A) (A) (A) (A) (A) (A) (A) (A) (A)
                 (A) (A) (A) (A) (A)
       Virtual   (A) (A) (A) (A) (A) (A) (A) (A) (A) (A) (A) (A)
                 (A) (A) (A) (A) (A) (A) (A) (A) (A) (A) (A) (A)
                 (A) (A) (A) (A) (A)
 The electronic state is 1-A.
 Alpha  occ. eigenvalues --   -1.10300  -1.08999  -0.99451  -0.96490  -0.94512
 Alpha  occ. eigenvalues --   -0.91288  -0.80659  -0.80538  -0.75876  -0.74030
 Alpha  occ. eigenvalues --   -0.66540  -0.61682  -0.58926  -0.57388  -0.55225
 Alpha  occ. eigenvalues --   -0.54522  -0.52925  -0.51947  -0.51891  -0.49439
 Alpha  occ. eigenvalues --   -0.47496  -0.46219  -0.44746  -0.43296  -0.43257
 Alpha  occ. eigenvalues --   -0.37477  -0.35793  -0.35708  -0.33068
 Alpha virt. eigenvalues --   -0.00695   0.01126   0.01202   0.02719   0.09171
 Alpha virt. eigenvalues --    0.10301   0.13800   0.15554   0.16646   0.16799
 Alpha virt. eigenvalues --    0.17638   0.17950   0.18512   0.18654   0.19027
 Alpha virt. eigenvalues --    0.19416   0.19666   0.20207   0.20499   0.20937
 Alpha virt. eigenvalues --    0.21423   0.22032   0.22306   0.22590   0.22692
 Alpha virt. eigenvalues --    0.22845   0.23203   0.23290   0.23431
          Condensed to atoms (all electrons):
               1          2          3          4          5          6
     1  C    4.130110   0.000000   0.000000   0.000000   0.000000   0.000000
     2  C    0.000000   4.170799   0.000000   0.000000   0.000000   0.000000
     3  C    0.000000   0.000000   3.982687   0.000000   0.000000   0.000000
     4  C    0.000000   0.000000   0.000000   4.170679   0.000000   0.000000
     5  C    0.000000   0.000000   0.000000   0.000000   4.130141   0.000000
     6  C    0.000000   0.000000   0.000000   0.000000   0.000000   4.155819
     7  C    0.000000   0.000000   0.000000   0.000000   0.000000   0.000000
     8  C    0.000000   0.000000   0.000000   0.000000   0.000000   0.000000
     9  C    0.000000   0.000000   0.000000   0.000000   0.000000   0.000000
    10  C    0.000000   0.000000   0.000000   0.000000   0.000000   0.000000
    11  C    0.000000   0.000000   0.000000   0.000000   0.000000   0.000000
    12  C    0.000000   0.000000   0.000000   0.000000   0.000000   0.000000
    13  H    0.000000   0.000000   0.000000   0.000000   0.000000   0.000000
    14  H    0.000000   0.000000   0.000000   0.000000   0.000000   0.000000
    15  H    0.000000   0.000000   0.000000   0.000000   0.000000   0.000000
    16  H    0.000000   0.000000   0.000000   0.000000   0.000000   0.000000
    17  H    0.000000   0.000000   0.000000   0.000000   0.000000   0.000000
    18  H    0.000000   0.000000   0.000000   0.000000   0.000000   0.000000
    19  H    0.000000   0.000000   0.000000   0.000000   0.000000   0.000000
    20  H    0.000000   0.000000   0.000000   0.000000   0.000000   0.000000
    21  H    0.000000   0.000000   0.000000   0.000000   0.000000   0.000000
    22  H    0.000000   0.000000   0.000000   0.000000   0.000000   0.000000
               7          8          9         10         11         12
     1  C    0.000000   0.000000   0.000000   0.000000   0.000000   0.000000
     2  C    0.000000   0.000000   0.000000   0.000000   0.000000   0.000000
     3  C    0.000000   0.000000   0.000000   0.000000   0.000000   0.000000
     4  C    0.000000   0.000000   0.000000   0.000000   0.000000   0.000000
     5  C    0.000000   0.000000   0.000000   0.000000   0.000000   0.000000
     6  C    0.000000   0.000000   0.000000   0.000000   0.000000   0.000000
     7  C    3.982685   0.000000   0.000000   0.000000   0.000000   0.000000
     8  C    0.000000   4.170677   0.000000   0.000000   0.000000   0.000000
     9  C    0.000000   0.000000   4.130142   0.000000   0.000000   0.000000
    10  C    0.000000   0.000000   0.000000   4.155818   0.000000   0.000000
    11  C    0.000000   0.000000   0.000000   0.000000   4.130114   0.000000
    12  C    0.000000   0.000000   0.000000   0.000000   0.000000   4.170800
    13  H    0.000000   0.000000   0.000000   0.000000   0.000000   0.000000
    14  H    0.000000   0.000000   0.000000   0.000000   0.000000   0.000000
    15  H    0.000000   0.000000   0.000000   0.000000   0.000000   0.000000
    16  H    0.000000   0.000000   0.000000   0.000000   0.000000   0.000000
    17  H    0.000000   0.000000   0.000000   0.000000   0.000000   0.000000
    18  H    0.000000   0.000000   0.000000   0.000000   0.000000   0.000000
    19  H    0.000000   0.000000   0.000000   0.000000   0.000000   0.000000
    20  H    0.000000   0.000000   0.000000   0.000000   0.000000   0.000000
    21  H    0.000000   0.000000   0.000000   0.000000   0.000000   0.000000
    22  H    0.000000   0.000000   0.000000   0.000000   0.000000   0.000000
              13         14         15         16         17         18
     1  C    0.000000   0.000000   0.000000   0.000000   0.000000   0.000000
     2  C    0.000000   0.000000   0.000000   0.000000   0.000000   0.000000
     3  C    0.000000   0.000000   0.000000   0.000000   0.000000   0.000000
     4  C    0.000000   0.000000   0.000000   0.000000   0.000000   0.000000
     5  C    0.000000   0.000000   0.000000   0.000000   0.000000   0.000000
     6  C    0.000000   0.000000   0.000000   0.000000   0.000000   0.000000
     7  C    0.000000   0.000000   0.000000   0.000000   0.000000   0.000000
     8  C    0.000000   0.000000   0.000000   0.000000   0.000000   0.000000
     9  C    0.000000   0.000000   0.000000   0.000000   0.000000   0.000000
    10  C    0.000000   0.000000   0.000000   0.000000   0.000000   0.000000
    11  C    0.000000   0.000000   0.000000   0.000000   0.000000   0.000000
    12  C    0.000000   0.000000   0.000000   0.000000   0.000000   0.000000
    13  H    0.847343   0.000000   0.000000   0.000000   0.000000   0.000000
    14  H    0.000000   0.855594   0.000000   0.000000   0.000000   0.000000
    15  H    0.000000   0.000000   0.847343   0.000000   0.000000   0.000000
    16  H    0.000000   0.000000   0.000000   0.847382   0.000000   0.000000
    17  H    0.000000   0.000000   0.000000   0.000000   0.855587   0.000000
    18  H    0.000000   0.000000   0.000000   0.000000   0.000000   0.853859
    19  H    0.000000   0.000000   0.000000   0.000000   0.000000   0.000000
    20  H    0.000000   0.000000   0.000000   0.000000   0.000000   0.000000
    21  H    0.000000   0.000000   0.000000   0.000000   0.000000   0.000000
    22  H    0.000000   0.000000   0.000000   0.000000   0.000000   0.000000
              19         20         21         22
     1  C    0.000000   0.000000   0.000000   0.000000
     2  C    0.000000   0.000000   0.000000   0.000000
     3  C    0.000000   0.000000   0.000000   0.000000
     4  C    0.000000   0.000000   0.000000   0.000000
     5  C    0.000000   0.000000   0.000000   0.000000
     6  C    0.000000   0.000000   0.000000   0.000000
     7  C    0.000000   0.000000   0.000000   0.000000
     8  C    0.000000   0.000000   0.000000   0.000000
     9  C    0.000000   0.000000   0.000000   0.000000
    10  C    0.000000   0.000000   0.000000   0.000000
    11  C    0.000000   0.000000   0.000000   0.000000
    12  C    0.000000   0.000000   0.000000   0.000000
    13  H    0.000000   0.000000   0.000000   0.000000
    14  H    0.000000   0.000000   0.000000   0.000000
    15  H    0.000000   0.000000   0.000000   0.000000
    16  H    0.000000   0.000000   0.000000   0.000000
    17  H    0.000000   0.000000   0.000000   0.000000
    18  H    0.000000   0.000000   0.000000   0.000000
    19  H    0.847381   0.000000   0.000000   0.000000
    20  H    0.000000   0.855587   0.000000   0.000000
    21  H    0.000000   0.000000   0.853860   0.000000
    22  H    0.000000   0.000000   0.000000   0.855594
 Mulliken charges:
               1
     1  C   -0.130110
     2  C   -0.170799
     3  C    0.017313
     4  C   -0.170679
     5  C   -0.130141
     6  C   -0.155819
     7  C    0.017315
     8  C   -0.170677
     9  C   -0.130142
    10  C   -0.155818
    11  C   -0.130114
    12  C   -0.170800
    13  H    0.152657
    14  H    0.144406
    15  H    0.152657
    16  H    0.152618
    17  H    0.144413
    18  H    0.146141
    19  H    0.152619
    20  H    0.144413
    21  H    0.146140
    22  H    0.144406
 Sum of Mulliken charges =   0.00000
 Mulliken charges with hydrogens summed into heavy atoms:
               1
     1  C    0.014296
     2  C   -0.018142
     3  C    0.017313
     4  C   -0.018061
     5  C    0.014273
     6  C   -0.009678
     7  C    0.017315
     8  C   -0.018058
     9  C    0.014271
    10  C   -0.009678
    11  C    0.014292
    12  C   -0.018142
 Charge=             -0.0000 electrons
 Dipole moment (field-independent basis, Debye):
    X=              0.0000    Y=             -0.0073    Z=              0.0001  Tot=              0.0073
 N-N= 3.285257112930D+02 E-N=-5.829973373565D+02  KE=-3.710769221805D+01
 1\1\GINC-GTX1080DELTA\Scan\RPM6\ZDO\C12H10\MVEROT\18-Apr-2022\0\\#n PM
 6 Opt=modredundant\\Optimisation de geometrie\\0,1\C,-3.0716119463,1.0
 886285695,-0.8330292263\C,-1.6804535964,1.2151206806,-0.8197032229\C,-
 0.9033709377,0.4020456876,0.0231263291\C,-1.5434625044,-0.5274966509,0
 .8610999252\C,-2.934933673,-0.6486765403,0.8448864664\C,-3.7021945269,
 0.1573642644,-0.0020575554\C,0.5690637518,0.5448062739,0.0544501933\C,
 1.3899881994,-0.5929798349,0.1411444839\C,2.7803171711,-0.4588916811,0
 .1517648758\C,3.3662193845,0.808377814,0.0714153392\C,2.5549075089,1.9
 434640926,-0.021930764\C,1.1639238183,1.8150736225,-0.0343895159\H,0.5
 398390451,2.7053343256,-0.0968489897\H,-3.6659901164,1.7184493305,-1.4
 930250863\H,-1.1972515009,1.9357778577,-1.4778219564\H,-0.9546129983,-
 1.1490102042,1.5340282637\H,-3.4230475196,-1.371584779,1.4965520817\H,
 -4.7858046419,0.0611621723,-0.0133595827\H,0.9422223768,-1.5844562078,
 0.1896001147\H,3.409202308,-1.3451105729,0.2198585516\H,4.4492992099,0
 .910590919,0.0801681718\H,3.0077511878,2.9316108609,-0.0855288968\\Ver
 sion=AM64L-G09RevD.01\State=1-A\HF=0.0762731,0.0757865,0.0756569,0.075
 7474,0.0758835,0.0759543,0.07592,0.0757988,0.075674,0.0757025,0.076050
 3,0.0767559,0.0776235,0.0782997,0.0785833,0.0784501,0.0779066,0.077068
 7,0.0762688,0.0757851,0.0756569,0.0757474,0.0758835,0.0759543,0.07592,
 0.0757989,0.075674,0.0757027,0.0760533,0.0767615,0.0776265,0.0783001,0
 .078583,0.0784502,0.0779083,0.0770738,0.076273\RMSD=5.468e-09,3.279e-0
 9,8.841e-09,5.213e-09,9.866e-09,7.339e-09,8.011e-09,7.502e-09,3.891e-0
 9,5.813e-09,3.958e-09,3.679e-09,2.285e-09,3.363e-09,9.014e-09,3.085e-0
 9,2.434e-09,6.585e-09,2.608e-09,7.470e-09,8.730e-09,2.355e-09,8.046e-0
 9,5.870e-09,7.028e-09,9.297e-09,4.588e-09,4.750e-09,5.040e-09,4.595e-0
 9,8.002e-09,2.615e-09,3.048e-09,2.545e-09,8.909e-09,4.363e-09,5.185e-0
 9\PG=C01 [X(C12H10)]\\@


 WOMEN HOLD UP HALF THE SKY. -- MAO TSE TUNG
 Job cpu time:       0 days  0 hours  1 minutes  9.8 seconds.
 File lengths (MBytes):  RWF=    137 Int=      0 D2E=      0 Chk=      8 Scr=      2
 Normal termination of Gaussian 09 at Mon Apr 18 01:06:38 2022.
