 Entering Gaussian System, Link 0=g09
 Input=/scratch/mverot/Methylcyclopropane-opt/Methylcyclopropane-opt.com
 Output=/scratch/mverot/Methylcyclopropane-opt/Methylcyclopropane-opt.log
 Initial command:
 /opt/g09/l1.exe "/scratch/mverot/Methylcyclopropane-opt/Gau-743907.inp" -scrdir="/scratch/mverot/Methylcyclopropane-opt/"
 Entering Link 1 = /opt/g09/l1.exe PID=    743909.
  
 Copyright (c) 1988,1990,1992,1993,1995,1998,2003,2009,2013,
            Gaussian, Inc.  All Rights Reserved.
  
 This is part of the Gaussian(R) 09 program.  It is based on
 the Gaussian(R) 03 system (copyright 2003, Gaussian, Inc.),
 the Gaussian(R) 98 system (copyright 1998, Gaussian, Inc.),
 the Gaussian(R) 94 system (copyright 1995, Gaussian, Inc.),
 the Gaussian 92(TM) system (copyright 1992, Gaussian, Inc.),
 the Gaussian 90(TM) system (copyright 1990, Gaussian, Inc.),
 the Gaussian 88(TM) system (copyright 1988, Gaussian, Inc.),
 the Gaussian 86(TM) system (copyright 1986, Carnegie Mellon
 University), and the Gaussian 82(TM) system (copyright 1983,
 Carnegie Mellon University). Gaussian is a federally registered
 trademark of Gaussian, Inc.
  
 This software contains proprietary and confidential information,
 including trade secrets, belonging to Gaussian, Inc.
  
 This software is provided under written license and may be
 used, copied, transmitted, or stored only in accord with that
 written license.
  
 The following legend is applicable only to US Government
 contracts under FAR:
  
                    RESTRICTED RIGHTS LEGEND
  
 Use, reproduction and disclosure by the US Government is
 subject to restrictions as set forth in subparagraphs (a)
 and (c) of the Commercial Computer Software - Restricted
 Rights clause in FAR 52.227-19.
  
 Gaussian, Inc.
 340 Quinnipiac St., Bldg. 40, Wallingford CT 06492
  
  
 ---------------------------------------------------------------
 Warning -- This program may not be used in any manner that
 competes with the business of Gaussian, Inc. or will provide
 assistance to any competitor of Gaussian, Inc.  The licensee
 of this program is prohibited from giving any competitor of
 Gaussian, Inc. access to this program.  By using this program,
 the user acknowledges that Gaussian, Inc. is engaged in the
 business of creating and licensing software in the field of
 computational chemistry and represents and warrants to the
 licensee that it is not a competitor of Gaussian, Inc. and that
 it will not use this program in any manner prohibited above.
 ---------------------------------------------------------------
  

 Cite this work as:
 Gaussian 09, Revision D.01,
 M. J. Frisch, G. W. Trucks, H. B. Schlegel, G. E. Scuseria, 
 M. A. Robb, J. R. Cheeseman, G. Scalmani, V. Barone, B. Mennucci, 
 G. A. Petersson, H. Nakatsuji, M. Caricato, X. Li, H. P. Hratchian, 
 A. F. Izmaylov, J. Bloino, G. Zheng, J. L. Sonnenberg, M. Hada, 
 M. Ehara, K. Toyota, R. Fukuda, J. Hasegawa, M. Ishida, T. Nakajima, 
 Y. Honda, O. Kitao, H. Nakai, T. Vreven, J. A. Montgomery, Jr., 
 J. E. Peralta, F. Ogliaro, M. Bearpark, J. J. Heyd, E. Brothers, 
 K. N. Kudin, V. N. Staroverov, T. Keith, R. Kobayashi, J. Normand, 
 K. Raghavachari, A. Rendell, J. C. Burant, S. S. Iyengar, J. Tomasi, 
 M. Cossi, N. Rega, J. M. Millam, M. Klene, J. E. Knox, J. B. Cross, 
 V. Bakken, C. Adamo, J. Jaramillo, R. Gomperts, R. E. Stratmann, 
 O. Yazyev, A. J. Austin, R. Cammi, C. Pomelli, J. W. Ochterski, 
 R. L. Martin, K. Morokuma, V. G. Zakrzewski, G. A. Voth, 
 P. Salvador, J. J. Dannenberg, S. Dapprich, A. D. Daniels, 
 O. Farkas, J. B. Foresman, J. V. Ortiz, J. Cioslowski, 
 and D. J. Fox, Gaussian, Inc., Wallingford CT, 2013.
 
 ******************************************
 Gaussian 09:  AM64L-G09RevD.01 24-Apr-2013
                16-Apr-2022 
 ******************************************
 %chk=Methylcyclopropane-opt
 ---------------
 #n AM1 Opt freq
 ---------------
 1/14=-1,18=20,19=15,26=1,38=1/1,3;
 2/9=110,12=2,17=6,18=5,40=1/2;
 3/5=2,16=1,25=1,41=700000,71=1/1,2,3;
 4/35=1/1;
 5/5=2,35=1,38=5/2;
 6/7=2,8=2,9=2,10=2,28=1/1;
 7//1,2,3,16;
 1/14=-1,18=20,19=15,26=1/3(2);
 2/9=110/2;
 99//99;
 2/9=110/2;
 3/5=2,16=1,25=1,41=700000,71=1,135=20/1,2,3;
 4/5=5,16=3,35=1/1;
 5/5=2,35=1,38=5/2;
 7//1,2,3,16;
 1/14=-1,18=20,19=15,26=1/3(-5);
 2/9=110/2;
 6/7=2,8=2,9=2,10=2,19=2,28=1/1;
 99/9=1/99;
 -------------------------
 Optimisation de geometrie
 -------------------------
 Symbolic Z-matrix:
 Charge =  0 Multiplicity = 1
 C                     1.9579    1.4794    1.713 
 C                     3.1125    2.13      0.9901 
 C                     3.0696    0.6273    1.1501 
 C                     0.5784    1.4519    1.0898 
 H                     1.9586    1.5948    2.7964 
 H                     2.9248    2.541     0.0007 
 H                     3.8415    2.6904    1.5694 
 H                     3.7695    0.1609    1.8385 
 H                     2.8526    0.0284    0.2685 
 H                     0.642     1.3338    0.0012 
 H                    -0.0199    0.6184    1.4787 
 H                     0.0298    2.3808    1.2904 
 

 GradGradGradGradGradGradGradGradGradGradGradGradGradGradGradGradGradGrad
 Berny optimization.
 Initialization pass.
                           ----------------------------
                           !    Initial Parameters    !
                           ! (Angstroms and Degrees)  !
 --------------------------                            --------------------------
 ! Name  Definition              Value          Derivative Info.                !
 --------------------------------------------------------------------------------
 ! R1    R(1,2)                  1.5096         estimate D2E/DX2                !
 ! R2    R(1,3)                  1.5096         estimate D2E/DX2                !
 ! R3    R(1,4)                  1.514          estimate D2E/DX2                !
 ! R4    R(1,5)                  1.0895         estimate D2E/DX2                !
 ! R5    R(2,3)                  1.5118         estimate D2E/DX2                !
 ! R6    R(2,6)                  1.0877         estimate D2E/DX2                !
 ! R7    R(2,7)                  1.0868         estimate D2E/DX2                !
 ! R8    R(3,8)                  1.0869         estimate D2E/DX2                !
 ! R9    R(3,9)                  1.0877         estimate D2E/DX2                !
 ! R10   R(4,10)                 1.0968         estimate D2E/DX2                !
 ! R11   R(4,11)                 1.0972         estimate D2E/DX2                !
 ! R12   R(4,12)                 1.0973         estimate D2E/DX2                !
 ! A1    A(2,1,4)              120.5043         estimate D2E/DX2                !
 ! A2    A(2,1,5)              115.4694         estimate D2E/DX2                !
 ! A3    A(3,1,4)              120.4824         estimate D2E/DX2                !
 ! A4    A(3,1,5)              115.4741         estimate D2E/DX2                !
 ! A5    A(4,1,5)              114.3194         estimate D2E/DX2                !
 ! A6    A(1,2,6)              117.8043         estimate D2E/DX2                !
 ! A7    A(1,2,7)              118.6864         estimate D2E/DX2                !
 ! A8    A(3,2,6)              117.8374         estimate D2E/DX2                !
 ! A9    A(3,2,7)              118.3704         estimate D2E/DX2                !
 ! A10   A(6,2,7)              113.9404         estimate D2E/DX2                !
 ! A11   A(1,3,8)              118.7037         estimate D2E/DX2                !
 ! A12   A(1,3,9)              117.7835         estimate D2E/DX2                !
 ! A13   A(2,3,8)              118.3788         estimate D2E/DX2                !
 ! A14   A(2,3,9)              117.8525         estimate D2E/DX2                !
 ! A15   A(8,3,9)              113.9272         estimate D2E/DX2                !
 ! A16   A(1,4,10)             110.9566         estimate D2E/DX2                !
 ! A17   A(1,4,11)             111.3918         estimate D2E/DX2                !
 ! A18   A(1,4,12)             111.4025         estimate D2E/DX2                !
 ! A19   A(10,4,11)            107.5538         estimate D2E/DX2                !
 ! A20   A(10,4,12)            107.5526         estimate D2E/DX2                !
 ! A21   A(11,4,12)            107.7971         estimate D2E/DX2                !
 ! D1    D(4,1,2,6)             -2.1519         estimate D2E/DX2                !
 ! D2    D(4,1,2,7)            142.0891         estimate D2E/DX2                !
 ! D3    D(5,1,2,6)           -146.253          estimate D2E/DX2                !
 ! D4    D(5,1,2,7)             -2.012          estimate D2E/DX2                !
 ! D5    D(4,1,3,8)           -142.0494         estimate D2E/DX2                !
 ! D6    D(4,1,3,9)              2.1587         estimate D2E/DX2                !
 ! D7    D(5,1,3,8)              2.0239         estimate D2E/DX2                !
 ! D8    D(5,1,3,9)            146.2321         estimate D2E/DX2                !
 ! D9    D(2,1,4,10)            35.5338         estimate D2E/DX2                !
 ! D10   D(2,1,4,11)           155.3284         estimate D2E/DX2                !
 ! D11   D(2,1,4,12)           -84.2663         estimate D2E/DX2                !
 ! D12   D(3,1,4,10)           -35.5225         estimate D2E/DX2                !
 ! D13   D(3,1,4,11)            84.272          estimate D2E/DX2                !
 ! D14   D(3,1,4,12)          -155.3227         estimate D2E/DX2                !
 ! D15   D(5,1,4,10)          -179.9815         estimate D2E/DX2                !
 ! D16   D(5,1,4,11)           -60.1869         estimate D2E/DX2                !
 ! D17   D(5,1,4,12)            60.2184         estimate D2E/DX2                !
 ! D18   D(6,2,3,8)            143.7568         estimate D2E/DX2                !
 ! D19   D(6,2,3,9)             -0.0306         estimate D2E/DX2                !
 ! D20   D(7,2,3,8)             -0.0187         estimate D2E/DX2                !
 ! D21   D(7,2,3,9)           -143.8061         estimate D2E/DX2                !
 --------------------------------------------------------------------------------
 Trust Radius=3.00D-01 FncErr=1.00D-07 GrdErr=1.00D-07
 Number of steps in this run=     64 maximum allowed number of steps=    100.
 GradGradGradGradGradGradGradGradGradGradGradGradGradGradGradGradGradGrad

                          Input orientation:                          
 ---------------------------------------------------------------------
 Center     Atomic      Atomic             Coordinates (Angstroms)
 Number     Number       Type             X           Y           Z
 ---------------------------------------------------------------------
      1          6           0        1.957900    1.479400    1.713000
      2          6           0        3.112500    2.130000    0.990100
      3          6           0        3.069600    0.627300    1.150100
      4          6           0        0.578400    1.451900    1.089800
      5          1           0        1.958600    1.594800    2.796400
      6          1           0        2.924800    2.541000    0.000700
      7          1           0        3.841500    2.690400    1.569400
      8          1           0        3.769500    0.160900    1.838500
      9          1           0        2.852600    0.028400    0.268500
     10          1           0        0.642000    1.333800    0.001200
     11          1           0       -0.019900    0.618400    1.478700
     12          1           0        0.029800    2.380800    1.290400
 ---------------------------------------------------------------------
                    Distance matrix (angstroms):
                    1          2          3          4          5
     1  C    0.000000
     2  C    1.509624   0.000000
     3  C    1.509572   1.511803   0.000000
     4  C    1.513986   2.625152   2.624820   0.000000
     5  H    1.089529   2.209218   2.209226   2.199513   0.000000
     6  H    2.234695   1.087688   2.237037   2.806754   3.105604
     7  H    2.243901   1.086774   2.242326   3.523027   2.500236
     8  H    2.244123   2.242496   1.086869   3.522833   2.500600
     9  H    2.234383   2.237181   1.087653   2.805864   3.105338
    10  H    2.164036   2.777630   2.777113   1.096833   3.100758
    11  H    2.169772   3.512206   3.106939   1.097237   2.569855
    12  H    2.169950   3.107430   3.512098   1.097296   2.570234
                    6          7          8          9         10
     6  H    0.000000
     7  H    1.823041   0.000000
     8  H    3.123444   2.544793   0.000000
     9  H    2.527862   3.123541   1.822954   0.000000
    10  H    2.582345   3.812665   3.812168   2.581138   0.000000
    11  H    3.814726   4.383129   3.833838   3.172371   1.770004
    12  H    3.173329   3.834417   4.383346   3.813957   1.770038
                   11         12
    11  H    0.000000
    12  H    1.773127   0.000000
 Stoichiometry    C4H8
 Framework group  C1[X(C4H8)]
 Deg. of freedom    30
 Full point group                 C1      NOp   1
 Largest Abelian subgroup         C1      NOp   1
 Largest concise Abelian subgroup C1      NOp   1
                         Standard orientation:                         
 ---------------------------------------------------------------------
 Center     Atomic      Atomic             Coordinates (Angstroms)
 Number     Number       Type             X           Y           Z
 ---------------------------------------------------------------------
      1          6           0        0.181680   -0.000273    0.498944
      2          6           0       -0.958395   -0.755789   -0.140110
      3          6           0       -0.957934    0.756013   -0.139899
      4          6           0        1.555629   -0.000079   -0.136995
      5          1           0        0.191529   -0.000492    1.588429
      6          1           0       -0.765468   -1.263628   -1.082418
      7          1           0       -1.667002   -1.272065    0.502084
      8          1           0       -1.666440    1.272727    0.502214
      9          1           0       -0.764227    1.264234   -1.081800
     10          1           0        1.481395    0.000470   -1.231313
     11          1           0        2.132133    0.886322    0.156030
     12          1           0        2.132202   -0.886805    0.155131
 ---------------------------------------------------------------------
 Rotational constants (GHZ):     15.5813968      6.2930882      5.5272478
 Standard basis: VSTO-6G (5D, 7F)
 There are    24 symmetry adapted cartesian basis functions of A   symmetry.
 There are    24 symmetry adapted basis functions of A   symmetry.
    24 basis functions,   144 primitive gaussians,    24 cartesian basis functions
    12 alpha electrons       12 beta electrons
       nuclear repulsion energy        82.2741162356 Hartrees.
 Integral buffers will be    131072 words long.
 Regular integral format.
 Two-electron integral symmetry is turned off.
 Do NDO integrals.
 One-electron integrals computed using PRISM.
 NBasis=    24 RedAO= F EigKep=  0.00D+00  NBF=    24
 NBsUse=    24 1.00D-04 EigRej=  0.00D+00 NBFU=    24
 Simple Huckel Guess.
 Overlap will be assumed to be unity.
 Keep J ints in memory in canonical form, NReq=889405.
 Requested convergence on RMS density matrix=1.00D-08 within 128 cycles.
 Requested convergence on MAX density matrix=1.00D-06.
 Requested convergence on             energy=1.00D-06.
 No special actions if energy rises.
 SCF Done:  E(RAM1) =  0.201578878518E-01 A.U. after   11 cycles
            NFock= 10  Conv=0.76D-08     -V/T= 1.0014

 **********************************************************************

            Population analysis using the SCF density.

 **********************************************************************

 Orbital symmetries:
       Occupied  (A) (A) (A) (A) (A) (A) (A) (A) (A) (A) (A) (A)
       Virtual   (A) (A) (A) (A) (A) (A) (A) (A) (A) (A) (A) (A)
 The electronic state is 1-A.
 Alpha  occ. eigenvalues --   -1.41935  -1.08581  -0.85578  -0.78718  -0.61748
 Alpha  occ. eigenvalues --   -0.55823  -0.51486  -0.48786  -0.45374  -0.45157
 Alpha  occ. eigenvalues --   -0.41119  -0.39990
 Alpha virt. eigenvalues --    0.10991   0.13809   0.15082   0.15085   0.16371
 Alpha virt. eigenvalues --    0.17666   0.17892   0.17911   0.18637   0.18935
 Alpha virt. eigenvalues --    0.19200   0.19795
          Condensed to atoms (all electrons):
               1          2          3          4          5          6
     1  C    4.161710   0.000000   0.000000   0.000000   0.000000   0.000000
     2  C    0.000000   4.213429   0.000000   0.000000   0.000000   0.000000
     3  C    0.000000   0.000000   4.213514   0.000000   0.000000   0.000000
     4  C    0.000000   0.000000   0.000000   4.179086   0.000000   0.000000
     5  H    0.000000   0.000000   0.000000   0.000000   0.887241   0.000000
     6  H    0.000000   0.000000   0.000000   0.000000   0.000000   0.892015
     7  H    0.000000   0.000000   0.000000   0.000000   0.000000   0.000000
     8  H    0.000000   0.000000   0.000000   0.000000   0.000000   0.000000
     9  H    0.000000   0.000000   0.000000   0.000000   0.000000   0.000000
    10  H    0.000000   0.000000   0.000000   0.000000   0.000000   0.000000
    11  H    0.000000   0.000000   0.000000   0.000000   0.000000   0.000000
    12  H    0.000000   0.000000   0.000000   0.000000   0.000000   0.000000
               7          8          9         10         11         12
     1  C    0.000000   0.000000   0.000000   0.000000   0.000000   0.000000
     2  C    0.000000   0.000000   0.000000   0.000000   0.000000   0.000000
     3  C    0.000000   0.000000   0.000000   0.000000   0.000000   0.000000
     4  C    0.000000   0.000000   0.000000   0.000000   0.000000   0.000000
     5  H    0.000000   0.000000   0.000000   0.000000   0.000000   0.000000
     6  H    0.000000   0.000000   0.000000   0.000000   0.000000   0.000000
     7  H    0.891739   0.000000   0.000000   0.000000   0.000000   0.000000
     8  H    0.000000   0.891746   0.000000   0.000000   0.000000   0.000000
     9  H    0.000000   0.000000   0.892031   0.000000   0.000000   0.000000
    10  H    0.000000   0.000000   0.000000   0.929426   0.000000   0.000000
    11  H    0.000000   0.000000   0.000000   0.000000   0.924034   0.000000
    12  H    0.000000   0.000000   0.000000   0.000000   0.000000   0.924030
 Mulliken charges:
               1
     1  C   -0.161710
     2  C   -0.213429
     3  C   -0.213514
     4  C   -0.179086
     5  H    0.112759
     6  H    0.107985
     7  H    0.108261
     8  H    0.108254
     9  H    0.107969
    10  H    0.070574
    11  H    0.075966
    12  H    0.075970
 Sum of Mulliken charges =   0.00000
 Mulliken charges with hydrogens summed into heavy atoms:
               1
     1  C   -0.048951
     2  C    0.002817
     3  C    0.002710
     4  C    0.043425
 Charge=              0.0000 electrons
 Dipole moment (field-independent basis, Debye):
    X=              0.0913    Y=              0.0002    Z=             -0.0290  Tot=              0.0958
 N-N= 8.227411623564D+01 E-N=-1.334997060263D+02  KE=-1.492231393146D+01
 Calling FoFJK, ICntrl=      2127 FMM=F ISym2X=0 I1Cent= 0 IOpClX= 0 NMat=1 NMatS=1 NMatT=0.
 ***** Axes restored to original set *****
 -------------------------------------------------------------------
 Center     Atomic                   Forces (Hartrees/Bohr)
 Number     Number              X              Y              Z
 -------------------------------------------------------------------
      1        6          -0.010860890   -0.001312163   -0.015241282
      2        6          -0.009984469   -0.018382272    0.002886872
      3        6          -0.008845342    0.019039778   -0.001022009
      4        6           0.027026923    0.000321323    0.009787298
      5        1          -0.005737553    0.001580906    0.013261595
      6        1          -0.000181184    0.006240786   -0.010289483
      7        1           0.007489250    0.007467447    0.005092119
      8        1           0.007040764   -0.006591778    0.006562321
      9        1          -0.000578314   -0.008246251   -0.008791761
     10        1           0.003291845   -0.001676480   -0.014845051
     11        1          -0.004695099   -0.011588313    0.007624766
     12        1          -0.003965933    0.013147017    0.004974613
 -------------------------------------------------------------------
 Cartesian Forces:  Max     0.027026923 RMS     0.009865075

 GradGradGradGradGradGradGradGradGradGradGradGradGradGradGradGradGradGrad
 Berny optimization.
 FormGI is forming the generalized inverse of G from B-inverse, IUseBI=4.
 Internal  Forces:  Max     0.022841941 RMS     0.006162822
 Search for a local minimum.
 Step number   1 out of a maximum of   64
 All quantities printed in internal units (Hartrees-Bohrs-Radians)
 Mixed Optimization -- RFO/linear search
 Second derivative matrix not updated -- first step.
 ITU=  0
     Eigenvalues ---    0.00581   0.01830   0.02212   0.03012   0.03013
     Eigenvalues ---    0.03536   0.03857   0.05591   0.05653   0.09911
     Eigenvalues ---    0.10456   0.10995   0.15049   0.16000   0.16000
     Eigenvalues ---    0.16000   0.16000   0.17327   0.25999   0.27719
     Eigenvalues ---    0.30953   0.31318   0.33983   0.33990   0.34035
     Eigenvalues ---    0.34867   0.35081   0.35085   0.35177   0.35188
 RFO step:  Lambda=-6.66368376D-03 EMin= 5.80934526D-03
 Linear search not attempted -- first point.
 Iteration  1 RMS(Cart)=  0.02972004 RMS(Int)=  0.00034418
 Iteration  2 RMS(Cart)=  0.00041446 RMS(Int)=  0.00012844
 Iteration  3 RMS(Cart)=  0.00000017 RMS(Int)=  0.00012844
 Variable       Old X    -DE/DX   Delta X   Delta X   Delta X     New X
                                 (Linear)    (Quad)   (Total)
    R1        2.85278  -0.00170   0.00000  -0.00317  -0.00310   2.84968
    R2        2.85268  -0.00166   0.00000  -0.00300  -0.00293   2.84975
    R3        2.86102  -0.02284   0.00000  -0.07224  -0.07224   2.78878
    R4        2.05891   0.01335   0.00000   0.03757   0.03757   2.09648
    R5        2.85689  -0.00250   0.00000  -0.01221  -0.01234   2.84455
    R6        2.05543   0.01175   0.00000   0.03287   0.03287   2.08830
    R7        2.05371   0.01159   0.00000   0.03232   0.03232   2.08603
    R8        2.05388   0.01152   0.00000   0.03214   0.03214   2.08602
    R9        2.05537   0.01178   0.00000   0.03296   0.03296   2.08832
   R10        2.07271   0.01511   0.00000   0.04353   0.04353   2.11624
   R11        2.07348   0.01407   0.00000   0.04059   0.04059   2.11406
   R12        2.07359   0.01402   0.00000   0.04047   0.04047   2.11406
    A1        2.10320  -0.00195   0.00000  -0.01197  -0.01204   2.09116
    A2        2.01532   0.00419   0.00000   0.02946   0.02934   2.04466
    A3        2.10281  -0.00193   0.00000  -0.01168  -0.01175   2.09106
    A4        2.01540   0.00417   0.00000   0.02945   0.02933   2.04473
    A5        1.99525  -0.00251   0.00000  -0.01948  -0.01934   1.97591
    A6        2.05607   0.00225   0.00000   0.01278   0.01278   2.06885
    A7        2.07147  -0.00098   0.00000  -0.00392  -0.00397   2.06750
    A8        2.05665  -0.00030   0.00000   0.00487   0.00478   2.06143
    A9        2.06595   0.00182   0.00000   0.01086   0.01092   2.07687
   A10        1.98864  -0.00176   0.00000  -0.01561  -0.01560   1.97304
   A11        2.07177  -0.00098   0.00000  -0.00399  -0.00404   2.06773
   A12        2.05571   0.00226   0.00000   0.01309   0.01310   2.06880
   A13        2.06610   0.00184   0.00000   0.01079   0.01084   2.07694
   A14        2.05691  -0.00033   0.00000   0.00458   0.00449   2.06141
   A15        1.98840  -0.00175   0.00000  -0.01550  -0.01549   1.97291
   A16        1.93656  -0.00140   0.00000  -0.00564  -0.00569   1.93087
   A17        1.94415  -0.00442   0.00000  -0.02789  -0.02821   1.91595
   A18        1.94434  -0.00444   0.00000  -0.02803  -0.02835   1.91599
   A19        1.87717   0.00341   0.00000   0.02305   0.02300   1.90017
   A20        1.87715   0.00341   0.00000   0.02303   0.02298   1.90013
   A21        1.88141   0.00410   0.00000   0.01950   0.01892   1.90033
    D1       -0.03756   0.00044   0.00000   0.01212   0.01206  -0.02550
    D2        2.47992  -0.00099   0.00000  -0.00455  -0.00464   2.47528
    D3       -2.55260   0.00168   0.00000   0.02152   0.02167  -2.53092
    D4       -0.03512   0.00025   0.00000   0.00486   0.00498  -0.03014
    D5       -2.47923   0.00096   0.00000   0.00398   0.00407  -2.47516
    D6        0.03768  -0.00043   0.00000  -0.01205  -0.01199   0.02568
    D7        0.03532  -0.00027   0.00000  -0.00498  -0.00509   0.03023
    D8        2.55223  -0.00166   0.00000  -0.02101  -0.02116   2.53107
    D9        0.62018  -0.00102   0.00000  -0.00724  -0.00720   0.61298
   D10        2.71099  -0.00060   0.00000  -0.00046  -0.00057   2.71042
   D11       -1.47072  -0.00144   0.00000  -0.01390  -0.01372  -1.48444
   D12       -0.61999   0.00102   0.00000   0.00726   0.00723  -0.61276
   D13        1.47082   0.00144   0.00000   0.01404   0.01386   1.48468
   D14       -2.71089   0.00060   0.00000   0.00061   0.00071  -2.71018
   D15       -3.14127  -0.00001   0.00000  -0.00021  -0.00021  -3.14148
   D16       -1.05046   0.00042   0.00000   0.00657   0.00642  -1.04404
   D17        1.05101  -0.00042   0.00000  -0.00687  -0.00672   1.04429
   D18        2.50903  -0.00100   0.00000  -0.00526  -0.00530   2.50373
   D19       -0.00053   0.00001   0.00000   0.00047   0.00047  -0.00006
   D20       -0.00033   0.00001   0.00000   0.00009   0.00009  -0.00023
   D21       -2.50989   0.00103   0.00000   0.00583   0.00586  -2.50402
         Item               Value     Threshold  Converged?
 Maximum Force            0.022842     0.000450     NO 
 RMS     Force            0.006163     0.000300     NO 
 Maximum Displacement     0.088583     0.001800     NO 
 RMS     Displacement     0.029941     0.001200     NO 
 Predicted change in Energy=-3.413819D-03
 GradGradGradGradGradGradGradGradGradGradGradGradGradGradGradGradGradGrad

                          Input orientation:                          
 ---------------------------------------------------------------------
 Center     Atomic      Atomic             Coordinates (Angstroms)
 Number     Number       Type             X           Y           Z
 ---------------------------------------------------------------------
      1          6           0        1.943882    1.479614    1.712589
      2          6           0        3.095039    2.126459    0.984273
      3          6           0        3.052513    0.630257    1.143680
      4          6           0        0.605546    1.451364    1.091363
      5          1           0        1.911724    1.598085    2.815188
      6          1           0        2.913594    2.548386   -0.020843
      7          1           0        3.829050    2.706381    1.570332
      8          1           0        3.756409    0.146334    1.842886
      9          1           0        2.841583    0.017080    0.248833
     10          1           0        0.688360    1.330520   -0.018881
     11          1           0        0.014098    0.596727    1.505254
     12          1           0        0.065502    2.405894    1.312125
 ---------------------------------------------------------------------
                    Distance matrix (angstroms):
                    1          2          3          4          5
     1  C    0.000000
     2  C    1.507983   0.000000
     3  C    1.508021   1.505271   0.000000
     4  C    1.475759   2.581627   2.581589   0.000000
     5  H    1.109411   2.243137   2.243218   2.167764   0.000000
     6  H    2.255526   1.105080   2.248251   2.787032   3.154344
     7  H    2.253674   1.103878   2.257284   3.492199   2.540497
     8  H    2.253856   2.257327   1.103875   3.492253   2.540830
     9  H    2.255539   2.248242   1.105092   2.786914   3.154424
    10  H    2.143958   2.726159   2.726012   1.119867   3.098412
    11  H    2.132263   3.479037   3.060037   1.118714   2.513887
    12  H    2.132294   3.060011   3.479008   1.118710   2.514018
                    6          7          8          9         10
     6  H    0.000000
     7  H    1.842514   0.000000
     8  H    3.154945   2.575539   0.000000
     9  H    2.546650   3.154963   1.842449   0.000000
    10  H    2.536705   3.779223   3.779074   2.536369   0.000000
    11  H    3.813794   4.359900   3.784408   3.147898   1.821008
    12  H    3.147814   3.784343   4.360059   3.813614   1.820978
                   11         12
    11  H    0.000000
    12  H    1.820172   0.000000
 Stoichiometry    C4H8
 Framework group  C1[X(C4H8)]
 Deg. of freedom    30
 Full point group                 C1      NOp   1
 Largest Abelian subgroup         C1      NOp   1
 Largest concise Abelian subgroup C1      NOp   1
                         Standard orientation:                         
 ---------------------------------------------------------------------
 Center     Atomic      Atomic             Coordinates (Angstroms)
 Number     Number       Type             X           Y           Z
 ---------------------------------------------------------------------
      1          6           0        0.197362   -0.000102    0.498243
      2          6           0       -0.945697   -0.752608   -0.135132
      3          6           0       -0.945656    0.752662   -0.134989
      4          6           0        1.523747    0.000026   -0.148724
      5          1           0        0.251367   -0.000291    1.606339
      6          1           0       -0.768316   -1.273223   -1.093619
      7          1           0       -1.652067   -1.287753    0.523054
      8          1           0       -1.652122    1.287787    0.523104
      9          1           0       -0.768183    1.273427   -1.093393
     10          1           0        1.418919    0.000336   -1.263675
     11          1           0        2.095949    0.910009    0.161175
     12          1           0        2.095910   -0.910163    0.160627
 ---------------------------------------------------------------------
 Rotational constants (GHZ):     15.4234702      6.4531902      5.6594511
 Standard basis: VSTO-6G (5D, 7F)
 There are    24 symmetry adapted cartesian basis functions of A   symmetry.
 There are    24 symmetry adapted basis functions of A   symmetry.
    24 basis functions,   144 primitive gaussians,    24 cartesian basis functions
    12 alpha electrons       12 beta electrons
       nuclear repulsion energy        82.3538403651 Hartrees.
 Integral buffers will be    131072 words long.
 Regular integral format.
 Two-electron integral symmetry is turned off.
 Do NDO integrals.
 One-electron integrals computed using PRISM.
 NBasis=    24 RedAO= F EigKep=  0.00D+00  NBF=    24
 NBsUse=    24 1.00D-04 EigRej=  0.00D+00 NBFU=    24
 Initial guess from the checkpoint file:  "Methylcyclopropane-opt.chk"
 B after Tr=     0.000000   -0.000000    0.000000
         Rot=    0.999990    0.000052   -0.004581   -0.000070 Ang=   0.53 deg.
 Overlap will be assumed to be unity.
 Keep J ints in memory in canonical form, NReq=889405.
 Requested convergence on RMS density matrix=1.00D-08 within 128 cycles.
 Requested convergence on MAX density matrix=1.00D-06.
 Requested convergence on             energy=1.00D-06.
 No special actions if energy rises.
 SCF Done:  E(RAM1) =  0.173823217847E-01 A.U. after   10 cycles
            NFock=  9  Conv=0.43D-08     -V/T= 1.0012
 Calling FoFJK, ICntrl=      2127 FMM=F ISym2X=0 I1Cent= 0 IOpClX= 0 NMat=1 NMatS=1 NMatT=0.
 ***** Axes restored to original set *****
 -------------------------------------------------------------------
 Center     Atomic                   Forces (Hartrees/Bohr)
 Number     Number              X              Y              Z
 -------------------------------------------------------------------
      1        6           0.010979356    0.000046688    0.003524253
      2        6          -0.000689862   -0.004807785    0.000904184
      3        6          -0.000419075    0.004927739   -0.000137745
      4        6          -0.006632076   -0.000163270   -0.003304468
      5        1          -0.000481902    0.000030143    0.000189057
      6        1           0.000835115    0.001055731    0.001134833
      7        1           0.000003676    0.000387660   -0.001283098
      8        1          -0.000037241   -0.000638237   -0.001160395
      9        1           0.000777790   -0.000833565    0.001339563
     10        1          -0.002101017    0.000168865    0.001037235
     11        1          -0.001094984    0.000717583   -0.001209812
     12        1          -0.001139780   -0.000891550   -0.001033607
 -------------------------------------------------------------------
 Cartesian Forces:  Max     0.010979356 RMS     0.002680475

 GradGradGradGradGradGradGradGradGradGradGradGradGradGradGradGradGradGrad
 Berny optimization.
 Using GEDIIS/GDIIS optimizer.
 FormGI is forming the generalized inverse of G from B-inverse, IUseBI=4.
 Internal  Forces:  Max     0.011848530 RMS     0.001852061
 Search for a local minimum.
 Step number   2 out of a maximum of   64
 All quantities printed in internal units (Hartrees-Bohrs-Radians)
 Mixed Optimization -- RFO/linear search
 Update second derivatives using D2CorX and points    1    2
 DE= -2.78D-03 DEPred=-3.41D-03 R= 8.13D-01
 TightC=F SS=  1.41D+00  RLast= 1.57D-01 DXNew= 5.0454D-01 4.7157D-01
 Trust test= 8.13D-01 RLast= 1.57D-01 DXMaxT set to 4.72D-01
 ITU=  1  0
 Use linear search instead of GDIIS.
     Eigenvalues ---    0.00581   0.01848   0.02228   0.03027   0.03029
     Eigenvalues ---    0.03526   0.03821   0.05790   0.05879   0.09896
     Eigenvalues ---    0.10377   0.10608   0.15068   0.15950   0.16000
     Eigenvalues ---    0.16000   0.16749   0.17308   0.25831   0.27624
     Eigenvalues ---    0.30222   0.31629   0.33986   0.34008   0.34520
     Eigenvalues ---    0.34923   0.35083   0.35139   0.35183   0.42351
 RFO step:  Lambda=-3.87774127D-04 EMin= 5.80934526D-03
 Quartic linear search produced a step of -0.14461.
 Iteration  1 RMS(Cart)=  0.01103212 RMS(Int)=  0.00004047
 Iteration  2 RMS(Cart)=  0.00003384 RMS(Int)=  0.00001937
 Iteration  3 RMS(Cart)=  0.00000000 RMS(Int)=  0.00001937
 Variable       Old X    -DE/DX   Delta X   Delta X   Delta X     New X
                                 (Linear)    (Quad)   (Total)
    R1        2.84968  -0.00031   0.00045  -0.00063  -0.00019   2.84948
    R2        2.84975  -0.00034   0.00042  -0.00068  -0.00027   2.84947
    R3        2.78878   0.01185   0.01045   0.01784   0.02828   2.81706
    R4        2.09648   0.00021  -0.00543   0.00821   0.00278   2.09926
    R5        2.84455  -0.00277   0.00179  -0.01186  -0.01005   2.83450
    R6        2.08830  -0.00077  -0.00475   0.00488   0.00013   2.08843
    R7        2.08603  -0.00048  -0.00467   0.00548   0.00081   2.08683
    R8        2.08602  -0.00048  -0.00465   0.00543   0.00078   2.08681
    R9        2.08832  -0.00077  -0.00477   0.00489   0.00012   2.08844
   R10        2.11624  -0.00120  -0.00629   0.00592  -0.00037   2.11587
   R11        2.11406  -0.00042  -0.00587   0.00729   0.00142   2.11548
   R12        2.11406  -0.00041  -0.00585   0.00727   0.00142   2.11547
    A1        2.09116   0.00112   0.00174   0.00047   0.00222   2.09338
    A2        2.04466  -0.00015  -0.00424   0.00716   0.00294   2.04761
    A3        2.09106   0.00112   0.00170   0.00059   0.00229   2.09335
    A4        2.04473  -0.00015  -0.00424   0.00711   0.00289   2.04762
    A5        1.97591  -0.00081   0.00280  -0.00754  -0.00477   1.97114
    A6        2.06885   0.00008  -0.00185   0.00356   0.00170   2.07055
    A7        2.06750   0.00061   0.00057   0.00413   0.00471   2.07221
    A8        2.06143   0.00081  -0.00069   0.00906   0.00838   2.06981
    A9        2.07687  -0.00005  -0.00158   0.00250   0.00090   2.07777
   A10        1.97304  -0.00107   0.00226  -0.01258  -0.01032   1.96272
   A11        2.06773   0.00059   0.00058   0.00397   0.00455   2.07228
   A12        2.06880   0.00007  -0.00189   0.00362   0.00171   2.07052
   A13        2.07694  -0.00005  -0.00157   0.00249   0.00091   2.07785
   A14        2.06141   0.00080  -0.00065   0.00901   0.00837   2.06977
   A15        1.97291  -0.00105   0.00224  -0.01249  -0.01025   1.96266
   A16        1.93087   0.00221   0.00082   0.01067   0.01146   1.94232
   A17        1.91595   0.00173   0.00408   0.00322   0.00731   1.92325
   A18        1.91599   0.00172   0.00410   0.00316   0.00727   1.92326
   A19        1.90017  -0.00202  -0.00333  -0.00586  -0.00922   1.89095
   A20        1.90013  -0.00201  -0.00332  -0.00584  -0.00920   1.89093
   A21        1.90033  -0.00176  -0.00274  -0.00574  -0.00842   1.89192
    D1       -0.02550   0.00063  -0.00174   0.01167   0.00994  -0.01556
    D2        2.47528  -0.00037   0.00067  -0.00081  -0.00014   2.47515
    D3       -2.53092   0.00067  -0.00313   0.01413   0.01097  -2.51995
    D4       -0.03014  -0.00033  -0.00072   0.00164   0.00089  -0.02925
    D5       -2.47516   0.00037  -0.00059   0.00071   0.00011  -2.47505
    D6        0.02568  -0.00064   0.00173  -0.01178  -0.01006   0.01562
    D7        0.03023   0.00034   0.00074  -0.00165  -0.00089   0.02934
    D8        2.53107  -0.00068   0.00306  -0.01414  -0.01106   2.52001
    D9        0.61298  -0.00015   0.00104  -0.00258  -0.00154   0.61144
   D10        2.71042  -0.00014   0.00008  -0.00101  -0.00090   2.70952
   D11       -1.48444  -0.00017   0.00198  -0.00413  -0.00218  -1.48662
   D12       -0.61276   0.00015  -0.00105   0.00253   0.00149  -0.61127
   D13        1.48468   0.00017  -0.00200   0.00410   0.00213   1.48681
   D14       -2.71018   0.00014  -0.00010   0.00098   0.00085  -2.70932
   D15       -3.14148   0.00000   0.00003  -0.00006  -0.00003  -3.14150
   D16       -1.04404   0.00002  -0.00093   0.00151   0.00061  -1.04342
   D17        1.04429  -0.00002   0.00097  -0.00161  -0.00066   1.04362
   D18        2.50373  -0.00087   0.00077  -0.00595  -0.00519   2.49854
   D19       -0.00006   0.00000  -0.00007   0.00011   0.00004  -0.00002
   D20       -0.00023   0.00000  -0.00001   0.00019   0.00017  -0.00006
   D21       -2.50402   0.00088  -0.00085   0.00624   0.00540  -2.49862
         Item               Value     Threshold  Converged?
 Maximum Force            0.011849     0.000450     NO 
 RMS     Force            0.001852     0.000300     NO 
 Maximum Displacement     0.044442     0.001800     NO 
 RMS     Displacement     0.011029     0.001200     NO 
 Predicted change in Energy=-2.764635D-04
 GradGradGradGradGradGradGradGradGradGradGradGradGradGradGradGradGradGrad

                          Input orientation:                          
 ---------------------------------------------------------------------
 Center     Atomic      Atomic             Coordinates (Angstroms)
 Number     Number       Type             X           Y           Z
 ---------------------------------------------------------------------
      1          6           0        1.950119    1.479613    1.714561
      2          6           0        3.102403    2.123750    0.985840
      3          6           0        3.060048    0.632835    1.144719
      4          6           0        0.596999    1.451427    1.089632
      5          1           0        1.914775    1.598274    2.818522
      6          1           0        2.921344    2.554245   -0.015779
      7          1           0        3.840278    2.704181    1.567326
      8          1           0        3.767638    0.147300    1.839721
      9          1           0        2.849094    0.011972    0.255114
     10          1           0        0.664842    1.330988   -0.021472
     11          1           0       -0.000779    0.598793    1.500577
     12          1           0        0.050540    2.403724    1.308040
 ---------------------------------------------------------------------
                    Distance matrix (angstroms):
                    1          2          3          4          5
     1  C    0.000000
     2  C    1.507881   0.000000
     3  C    1.507877   1.499955   0.000000
     4  C    1.490726   2.596120   2.596100   0.000000
     5  H    1.110883   2.246176   2.246183   2.178798   0.000000
     6  H    2.256588   1.105147   2.248958   2.800129   3.155998
     7  H    2.256977   1.104304   2.253405   3.509479   2.548742
     8  H    2.257011   2.253443   1.104290   3.509464   2.548820
     9  H    2.256571   2.248940   1.105156   2.800069   3.156005
    10  H    2.165141   2.754061   2.753984   1.119670   3.114376
    11  H    2.151194   3.495738   3.081631   1.119464   2.530867
    12  H    2.151195   3.081568   3.495691   1.119459   2.530943
                    6          7          8          9         10
     6  H    0.000000
     7  H    1.836612   0.000000
     8  H    3.154755   2.572376   0.000000
     9  H    2.557686   3.154733   1.836578   0.000000
    10  H    2.566747   3.807011   3.806902   2.566566   0.000000
    11  H    3.829090   4.380734   3.810490   3.165014   1.815433
    12  H    3.164912   3.810461   4.380748   3.828973   1.815415
                   11         12
    11  H    0.000000
    12  H    1.815896   0.000000
 Stoichiometry    C4H8
 Framework group  C1[X(C4H8)]
 Deg. of freedom    30
 Full point group                 C1      NOp   1
 Largest Abelian subgroup         C1      NOp   1
 Largest concise Abelian subgroup C1      NOp   1
                         Standard orientation:                         
 ---------------------------------------------------------------------
 Center     Atomic      Atomic             Coordinates (Angstroms)
 Number     Number       Type             X           Y           Z
 ---------------------------------------------------------------------
      1          6           0        0.191753   -0.000020    0.500372
      2          6           0       -0.950785   -0.749971   -0.136718
      3          6           0       -0.950760    0.749984   -0.136692
      4          6           0        1.534629   -0.000000   -0.146892
      5          1           0        0.245937   -0.000053    1.609933
      6          1           0       -0.770868   -1.278839   -1.090278
      7          1           0       -1.662864   -1.286147    0.515161
      8          1           0       -1.662821    1.286229    0.515126
      9          1           0       -0.770799    1.278846   -1.090259
     10          1           0        1.447812    0.000126   -1.263190
     11          1           0        2.112328    0.907889    0.161654
     12          1           0        2.112252   -0.908008    0.161430
 ---------------------------------------------------------------------
 Rotational constants (GHZ):     15.4584989      6.3788218      5.6079385
 Standard basis: VSTO-6G (5D, 7F)
 There are    24 symmetry adapted cartesian basis functions of A   symmetry.
 There are    24 symmetry adapted basis functions of A   symmetry.
    24 basis functions,   144 primitive gaussians,    24 cartesian basis functions
    12 alpha electrons       12 beta electrons
       nuclear repulsion energy        82.2253212944 Hartrees.
 Integral buffers will be    131072 words long.
 Regular integral format.
 Two-electron integral symmetry is turned off.
 Do NDO integrals.
 One-electron integrals computed using PRISM.
 NBasis=    24 RedAO= F EigKep=  0.00D+00  NBF=    24
 NBsUse=    24 1.00D-04 EigRej=  0.00D+00 NBFU=    24
 Initial guess from the checkpoint file:  "Methylcyclopropane-opt.chk"
 B after Tr=    -0.000000    0.000000   -0.000000
         Rot=    0.999999    0.000050    0.001231    0.000000 Ang=   0.14 deg.
 Overlap will be assumed to be unity.
 Keep J ints in memory in canonical form, NReq=889405.
 Requested convergence on RMS density matrix=1.00D-08 within 128 cycles.
 Requested convergence on MAX density matrix=1.00D-06.
 Requested convergence on             energy=1.00D-06.
 No special actions if energy rises.
 SCF Done:  E(RAM1) =  0.171448442798E-01 A.U. after    9 cycles
            NFock=  8  Conv=0.73D-08     -V/T= 1.0012
 Calling FoFJK, ICntrl=      2127 FMM=F ISym2X=0 I1Cent= 0 IOpClX= 0 NMat=1 NMatS=1 NMatT=0.
 ***** Axes restored to original set *****
 -------------------------------------------------------------------
 Center     Atomic                   Forces (Hartrees/Bohr)
 Number     Number              X              Y              Z
 -------------------------------------------------------------------
      1        6          -0.000231862   -0.000050038   -0.000527084
      2        6          -0.001332938   -0.001033174    0.000232193
      3        6          -0.001278252    0.001126839   -0.000016125
      4        6           0.001535998    0.000018388    0.000584194
      5        1          -0.000669741   -0.000135224   -0.001444160
      6        1           0.000519807    0.000451956    0.000773159
      7        1          -0.000259401    0.000193953   -0.000708215
      8        1          -0.000269690   -0.000320782   -0.000644711
      9        1           0.000498101   -0.000306389    0.000856323
     10        1           0.000059945    0.000169487    0.001614109
     11        1           0.000743025    0.000933947   -0.000466803
     12        1           0.000685008   -0.001048963   -0.000252881
 -------------------------------------------------------------------
 Cartesian Forces:  Max     0.001614109 RMS     0.000757337

 GradGradGradGradGradGradGradGradGradGradGradGradGradGradGradGradGradGrad
 Berny optimization.
 Using GEDIIS/GDIIS optimizer.
 FormGI is forming the generalized inverse of G from B-inverse, IUseBI=4.
 Internal  Forces:  Max     0.003366069 RMS     0.000692144
 Search for a local minimum.
 Step number   3 out of a maximum of   64
 All quantities printed in internal units (Hartrees-Bohrs-Radians)
 Mixed Optimization -- En-DIIS/RFO-DIIS
 Update second derivatives using D2CorX and points    1    2    3
 DE= -2.37D-04 DEPred=-2.76D-04 R= 8.59D-01
 TightC=F SS=  1.41D+00  RLast= 4.86D-02 DXNew= 7.9309D-01 1.4578D-01
 Trust test= 8.59D-01 RLast= 4.86D-02 DXMaxT set to 4.72D-01
 ITU=  1  1  0
 Use linear search instead of GDIIS.
     Eigenvalues ---    0.00581   0.01846   0.02230   0.03014   0.03043
     Eigenvalues ---    0.03406   0.03792   0.05687   0.05809   0.08734
     Eigenvalues ---    0.10062   0.10318   0.15074   0.15957   0.16000
     Eigenvalues ---    0.16008   0.16581   0.17306   0.26150   0.27557
     Eigenvalues ---    0.30137   0.33982   0.33987   0.34402   0.34878
     Eigenvalues ---    0.35083   0.35123   0.35183   0.36584   0.53031
 RFO step:  Lambda=-6.64264044D-05 EMin= 5.80934475D-03
 Quartic linear search produced a step of -0.11611.
 Iteration  1 RMS(Cart)=  0.00324194 RMS(Int)=  0.00000716
 Iteration  2 RMS(Cart)=  0.00000698 RMS(Int)=  0.00000232
 Iteration  3 RMS(Cart)=  0.00000000 RMS(Int)=  0.00000232
 Variable       Old X    -DE/DX   Delta X   Delta X   Delta X     New X
                                 (Linear)    (Quad)   (Total)
    R1        2.84948  -0.00111   0.00002  -0.00336  -0.00334   2.84614
    R2        2.84947  -0.00111   0.00003  -0.00338  -0.00335   2.84613
    R3        2.81706  -0.00337  -0.00328  -0.00211  -0.00539   2.81167
    R4        2.09926  -0.00143  -0.00032  -0.00272  -0.00305   2.09622
    R5        2.83450  -0.00004   0.00117  -0.00237  -0.00120   2.83330
    R6        2.08843  -0.00061  -0.00001  -0.00139  -0.00141   2.08702
    R7        2.08683  -0.00044  -0.00009  -0.00080  -0.00089   2.08594
    R8        2.08681  -0.00044  -0.00009  -0.00079  -0.00088   2.08593
    R9        2.08844  -0.00061  -0.00001  -0.00140  -0.00141   2.08703
   R10        2.11587  -0.00162   0.00004  -0.00412  -0.00408   2.11179
   R11        2.11548  -0.00128  -0.00016  -0.00279  -0.00296   2.11252
   R12        2.11547  -0.00128  -0.00016  -0.00278  -0.00295   2.11252
    A1        2.09338  -0.00034  -0.00026  -0.00056  -0.00082   2.09256
    A2        2.04761   0.00036  -0.00034   0.00381   0.00347   2.05107
    A3        2.09335  -0.00034  -0.00027  -0.00053  -0.00080   2.09256
    A4        2.04762   0.00036  -0.00034   0.00379   0.00345   2.05108
    A5        1.97114  -0.00018   0.00055  -0.00408  -0.00352   1.96762
    A6        2.07055   0.00038  -0.00020   0.00186   0.00166   2.07221
    A7        2.07221   0.00016  -0.00055   0.00238   0.00183   2.07404
    A8        2.06981   0.00025  -0.00097   0.00600   0.00502   2.07483
    A9        2.07777   0.00040  -0.00010   0.00217   0.00207   2.07984
   A10        1.96272  -0.00064   0.00120  -0.00750  -0.00630   1.95641
   A11        2.07228   0.00016  -0.00053   0.00231   0.00178   2.07406
   A12        2.07052   0.00038  -0.00020   0.00187   0.00167   2.07219
   A13        2.07785   0.00040  -0.00011   0.00214   0.00203   2.07988
   A14        2.06977   0.00025  -0.00097   0.00601   0.00504   2.07481
   A15        1.96266  -0.00064   0.00119  -0.00746  -0.00627   1.95640
   A16        1.94232  -0.00023  -0.00133   0.00157   0.00024   1.94257
   A17        1.92325  -0.00003  -0.00085   0.00182   0.00097   1.92423
   A18        1.92326  -0.00003  -0.00084   0.00180   0.00096   1.92422
   A19        1.89095   0.00010   0.00107  -0.00204  -0.00096   1.88999
   A20        1.89093   0.00011   0.00107  -0.00202  -0.00094   1.88998
   A21        1.89192   0.00008   0.00098  -0.00133  -0.00035   1.89157
    D1       -0.01556   0.00016  -0.00115   0.00667   0.00552  -0.01004
    D2        2.47515  -0.00023   0.00002  -0.00132  -0.00130   2.47384
    D3       -2.51995   0.00049  -0.00127   0.00944   0.00817  -2.51178
    D4       -0.02925   0.00009  -0.00010   0.00145   0.00135  -0.02790
    D5       -2.47505   0.00023  -0.00001   0.00125   0.00124  -2.47381
    D6        0.01562  -0.00017   0.00117  -0.00675  -0.00558   0.01005
    D7        0.02934  -0.00009   0.00010  -0.00150  -0.00140   0.02794
    D8        2.52001  -0.00049   0.00128  -0.00949  -0.00821   2.51180
    D9        0.61144   0.00012   0.00018   0.00002   0.00020   0.61164
   D10        2.70952   0.00009   0.00010  -0.00031  -0.00020   2.70931
   D11       -1.48662   0.00016   0.00025   0.00033   0.00058  -1.48604
   D12       -0.61127  -0.00012  -0.00017  -0.00003  -0.00020  -0.61147
   D13        1.48681  -0.00016  -0.00025  -0.00036  -0.00060   1.48621
   D14       -2.70932  -0.00009  -0.00010   0.00028   0.00018  -2.70914
   D15       -3.14150   0.00000   0.00000  -0.00001  -0.00001  -3.14151
   D16       -1.04342  -0.00003  -0.00007  -0.00034  -0.00041  -1.04384
   D17        1.04362   0.00003   0.00008   0.00030   0.00037   1.04400
   D18        2.49854  -0.00021   0.00060  -0.00149  -0.00089   2.49765
   D19       -0.00002  -0.00000  -0.00000   0.00001   0.00001  -0.00002
   D20       -0.00006   0.00000  -0.00002   0.00006   0.00004  -0.00002
   D21       -2.49862   0.00021  -0.00063   0.00157   0.00094  -2.49768
         Item               Value     Threshold  Converged?
 Maximum Force            0.003366     0.000450     NO 
 RMS     Force            0.000692     0.000300     NO 
 Maximum Displacement     0.008583     0.001800     NO 
 RMS     Displacement     0.003243     0.001200     NO 
 Predicted change in Energy=-3.780616D-05
 GradGradGradGradGradGradGradGradGradGradGradGradGradGradGradGradGradGrad

                          Input orientation:                          
 ---------------------------------------------------------------------
 Center     Atomic      Atomic             Coordinates (Angstroms)
 Number     Number       Type             X           Y           Z
 ---------------------------------------------------------------------
      1          6           0        1.950625    1.479542    1.714169
      2          6           0        3.100843    2.123447    0.985637
      3          6           0        3.058516    0.633164    1.144452
      4          6           0        0.600178    1.451411    1.090254
      5          1           0        1.911282    1.598119    2.816382
      6          1           0        2.919689    2.558787   -0.013046
      7          1           0        3.838817    2.705391    1.564585
      8          1           0        3.766107    0.145663    1.837335
      9          1           0        2.847226    0.008178    0.258750
     10          1           0        0.667768    1.331230   -0.018719
     11          1           0        0.002498    0.599989    1.499594
     12          1           0        0.053750    2.402178    1.307407
 ---------------------------------------------------------------------
                    Distance matrix (angstroms):
                    1          2          3          4          5
     1  C    0.000000
     2  C    1.506112   0.000000
     3  C    1.506106   1.499319   0.000000
     4  C    1.487873   2.591506   2.591503   0.000000
     5  H    1.109271   2.245585   2.245581   2.172563   0.000000
     6  H    2.255466   1.104402   2.251021   2.797084   3.153637
     7  H    2.256180   1.103832   2.253776   3.505173   2.551164
     8  H    2.256186   2.253796   1.103825   3.505169   2.551183
     9  H    2.255449   2.251011   1.104408   2.797060   3.153630
    10  H    2.161162   2.748853   2.748806   1.117513   3.107307
    11  H    2.148221   3.490676   3.076763   1.117900   2.524608
    12  H    2.148220   3.076687   3.490642   1.117899   2.524667
                    6          7          8          9         10
     6  H    0.000000
     7  H    1.831723   0.000000
     8  H    3.156501   2.575245   0.000000
     9  H    2.566073   3.156488   1.831713   0.000000
    10  H    2.564776   3.801411   3.801343   2.564662   0.000000
    11  H    3.825568   4.376560   3.805947   3.159495   1.811787
    12  H    3.159387   3.805892   4.376560   3.825497   1.811784
                   11         12
    11  H    0.000000
    12  H    1.813132   0.000000
 Stoichiometry    C4H8
 Framework group  C1[X(C4H8)]
 Deg. of freedom    30
 Full point group                 C1      NOp   1
 Largest Abelian subgroup         C1      NOp   1
 Largest concise Abelian subgroup C1      NOp   1
                         Standard orientation:                         
 ---------------------------------------------------------------------
 Center     Atomic      Atomic             Coordinates (Angstroms)
 Number     Number       Type             X           Y           Z
 ---------------------------------------------------------------------
      1          6           0        0.191586    0.000003    0.499924
      2          6           0       -0.949208   -0.749660   -0.136448
      3          6           0       -0.949204    0.749658   -0.136449
      4          6           0        1.531478   -0.000002   -0.146957
      5          1           0        0.250298    0.000004    1.607640
      6          1           0       -0.769485   -1.283048   -1.086659
      7          1           0       -1.661043   -1.287603    0.513439
      8          1           0       -1.661030    1.287641    0.513404
      9          1           0       -0.769460    1.283025   -1.086675
     10          1           0        1.444390    0.000079   -1.261071
     11          1           0        2.109242    0.906520    0.159812
     12          1           0        2.109171   -0.906613    0.159682
 ---------------------------------------------------------------------
 Rotational constants (GHZ):     15.4715207      6.4013399      5.6220364
 Standard basis: VSTO-6G (5D, 7F)
 There are    24 symmetry adapted cartesian basis functions of A   symmetry.
 There are    24 symmetry adapted basis functions of A   symmetry.
    24 basis functions,   144 primitive gaussians,    24 cartesian basis functions
    12 alpha electrons       12 beta electrons
       nuclear repulsion energy        82.2771990965 Hartrees.
 Integral buffers will be    131072 words long.
 Regular integral format.
 Two-electron integral symmetry is turned off.
 Do NDO integrals.
 One-electron integrals computed using PRISM.
 NBasis=    24 RedAO= F EigKep=  0.00D+00  NBF=    24
 NBsUse=    24 1.00D-04 EigRej=  0.00D+00 NBFU=    24
 Initial guess from the checkpoint file:  "Methylcyclopropane-opt.chk"
 B after Tr=    -0.000000   -0.000000    0.000000
         Rot=    1.000000    0.000010   -0.000172   -0.000003 Ang=   0.02 deg.
 Overlap will be assumed to be unity.
 Keep J ints in memory in canonical form, NReq=889405.
 Requested convergence on RMS density matrix=1.00D-08 within 128 cycles.
 Requested convergence on MAX density matrix=1.00D-06.
 Requested convergence on             energy=1.00D-06.
 No special actions if energy rises.
 SCF Done:  E(RAM1) =  0.171027372171E-01 A.U. after    9 cycles
            NFock=  8  Conv=0.29D-08     -V/T= 1.0011
 Calling FoFJK, ICntrl=      2127 FMM=F ISym2X=0 I1Cent= 0 IOpClX= 0 NMat=1 NMatS=1 NMatT=0.
 ***** Axes restored to original set *****
 -------------------------------------------------------------------
 Center     Atomic                   Forces (Hartrees/Bohr)
 Number     Number              X              Y              Z
 -------------------------------------------------------------------
      1        6          -0.000170980    0.000066692    0.000557849
      2        6          -0.000296565   -0.000046692   -0.000126781
      3        6          -0.000298329    0.000030779   -0.000146560
      4        6          -0.000054293    0.000004602    0.000030899
      5        1          -0.000232583   -0.000011636   -0.000172791
      6        1           0.000275484    0.000204107    0.000045257
      7        1           0.000115328    0.000134529   -0.000182649
      8        1           0.000109446   -0.000175123   -0.000146173
      9        1           0.000265008   -0.000204690    0.000090589
     10        1           0.000103235   -0.000005180   -0.000019932
     11        1           0.000092779    0.000018282    0.000033072
     12        1           0.000091470   -0.000015669    0.000037220
 -------------------------------------------------------------------
 Cartesian Forces:  Max     0.000557849 RMS     0.000170810

 GradGradGradGradGradGradGradGradGradGradGradGradGradGradGradGradGradGrad
 Berny optimization.
 Using GEDIIS/GDIIS optimizer.
 FormGI is forming the generalized inverse of G from B-inverse, IUseBI=4.
 Internal  Forces:  Max     0.000245766 RMS     0.000115491
 Search for a local minimum.
 Step number   4 out of a maximum of   64
 All quantities printed in internal units (Hartrees-Bohrs-Radians)
 Mixed Optimization -- En-DIIS/RFO-DIIS
 Swapping is turned off.
 Update second derivatives using D2CorX and points    1    2    3    4
 DE= -4.21D-05 DEPred=-3.78D-05 R= 1.11D+00
 TightC=F SS=  1.41D+00  RLast= 2.23D-02 DXNew= 7.9309D-01 6.7007D-02
 Trust test= 1.11D+00 RLast= 2.23D-02 DXMaxT set to 4.72D-01
 ITU=  1  1  1  0
     Eigenvalues ---    0.00581   0.01851   0.02234   0.03044   0.03115
     Eigenvalues ---    0.03195   0.03788   0.05683   0.05799   0.07035
     Eigenvalues ---    0.10068   0.10294   0.15065   0.15949   0.15990
     Eigenvalues ---    0.16000   0.16994   0.17310   0.26069   0.27528
     Eigenvalues ---    0.31052   0.33978   0.33987   0.34502   0.34787
     Eigenvalues ---    0.35083   0.35106   0.35183   0.38669   0.51845
 En-DIIS/RFO-DIIS IScMMF=        0 using points:     4    3
 RFO step:  Lambda=-2.10838651D-06.
 DidBck=F Rises=F RFO-DIIS coefs:    1.13491   -0.13491
 Iteration  1 RMS(Cart)=  0.00137643 RMS(Int)=  0.00000196
 Iteration  2 RMS(Cart)=  0.00000178 RMS(Int)=  0.00000090
 Iteration  3 RMS(Cart)=  0.00000000 RMS(Int)=  0.00000090
 Variable       Old X    -DE/DX   Delta X   Delta X   Delta X     New X
                                 (Linear)    (Quad)   (Total)
    R1        2.84614   0.00021  -0.00045   0.00103   0.00058   2.84672
    R2        2.84613   0.00021  -0.00045   0.00104   0.00059   2.84672
    R3        2.81167  -0.00025  -0.00073   0.00031  -0.00042   2.81125
    R4        2.09622  -0.00016  -0.00041  -0.00020  -0.00061   2.09561
    R5        2.83330   0.00023  -0.00016   0.00013  -0.00003   2.83327
    R6        2.08702  -0.00001  -0.00019   0.00014  -0.00005   2.08697
    R7        2.08594   0.00005  -0.00012   0.00034   0.00022   2.08616
    R8        2.08593   0.00006  -0.00012   0.00035   0.00023   2.08616
    R9        2.08703  -0.00001  -0.00019   0.00013  -0.00006   2.08697
   R10        2.11179   0.00003  -0.00055   0.00036  -0.00019   2.11160
   R11        2.11252  -0.00005  -0.00040   0.00012  -0.00028   2.11224
   R12        2.11252  -0.00005  -0.00040   0.00012  -0.00028   2.11225
    A1        2.09256  -0.00007  -0.00011  -0.00052  -0.00063   2.09192
    A2        2.05107   0.00015   0.00047   0.00157   0.00203   2.05311
    A3        2.09256  -0.00008  -0.00011  -0.00052  -0.00063   2.09193
    A4        2.05108   0.00015   0.00047   0.00157   0.00203   2.05311
    A5        1.96762  -0.00009  -0.00047  -0.00112  -0.00160   1.96603
    A6        2.07221   0.00021   0.00022   0.00237   0.00260   2.07481
    A7        2.07404   0.00003   0.00025   0.00152   0.00177   2.07580
    A8        2.07483   0.00006   0.00068   0.00080   0.00148   2.07631
    A9        2.07984   0.00009   0.00028  -0.00018   0.00010   2.07994
   A10        1.95641  -0.00024  -0.00085  -0.00281  -0.00366   1.95275
   A11        2.07406   0.00003   0.00024   0.00151   0.00175   2.07581
   A12        2.07219   0.00021   0.00023   0.00239   0.00262   2.07481
   A13        2.07988   0.00009   0.00027  -0.00021   0.00006   2.07994
   A14        2.07481   0.00007   0.00068   0.00082   0.00149   2.07630
   A15        1.95640  -0.00024  -0.00085  -0.00280  -0.00364   1.95275
   A16        1.94257  -0.00011   0.00003  -0.00034  -0.00031   1.94226
   A17        1.92423  -0.00008   0.00013  -0.00040  -0.00027   1.92395
   A18        1.92422  -0.00008   0.00013  -0.00040  -0.00027   1.92395
   A19        1.88999   0.00010  -0.00013   0.00042   0.00029   1.89027
   A20        1.88998   0.00010  -0.00013   0.00042   0.00029   1.89028
   A21        1.89157   0.00009  -0.00005   0.00036   0.00031   1.89188
    D1       -0.01004   0.00005   0.00074   0.00062   0.00136  -0.00868
    D2        2.47384  -0.00004  -0.00018   0.00135   0.00118   2.47502
    D3       -2.51178   0.00011   0.00110   0.00112   0.00223  -2.50956
    D4       -0.02790   0.00002   0.00018   0.00186   0.00204  -0.02586
    D5       -2.47381   0.00004   0.00017  -0.00139  -0.00122  -2.47503
    D6        0.01005  -0.00005  -0.00075  -0.00062  -0.00137   0.00867
    D7        0.02794  -0.00002  -0.00019  -0.00189  -0.00208   0.02586
    D8        2.51180  -0.00011  -0.00111  -0.00112  -0.00223   2.50957
    D9        0.61164  -0.00002   0.00003  -0.00044  -0.00041   0.61122
   D10        2.70931  -0.00003  -0.00003  -0.00041  -0.00044   2.70888
   D11       -1.48604  -0.00002   0.00008  -0.00047  -0.00039  -1.48643
   D12       -0.61147   0.00002  -0.00003   0.00042   0.00040  -0.61107
   D13        1.48621   0.00002  -0.00008   0.00045   0.00037   1.48658
   D14       -2.70914   0.00003   0.00002   0.00039   0.00041  -2.70873
   D15       -3.14151  -0.00000  -0.00000  -0.00001  -0.00001  -3.14153
   D16       -1.04384  -0.00000  -0.00006   0.00002  -0.00004  -1.04387
   D17        1.04400   0.00000   0.00005  -0.00005   0.00001   1.04400
   D18        2.49765  -0.00022  -0.00012  -0.00463  -0.00475   2.49290
   D19       -0.00002  -0.00000   0.00000   0.00001   0.00001  -0.00000
   D20       -0.00002   0.00000   0.00001   0.00000   0.00001  -0.00001
   D21       -2.49768   0.00022   0.00013   0.00464   0.00477  -2.49291
         Item               Value     Threshold  Converged?
 Maximum Force            0.000246     0.000450     YES
 RMS     Force            0.000115     0.000300     YES
 Maximum Displacement     0.005453     0.001800     NO 
 RMS     Displacement     0.001376     0.001200     NO 
 Predicted change in Energy=-3.718048D-06
 GradGradGradGradGradGradGradGradGradGradGradGradGradGradGradGradGradGrad

                          Input orientation:                          
 ---------------------------------------------------------------------
 Center     Atomic      Atomic             Coordinates (Angstroms)
 Number     Number       Type             X           Y           Z
 ---------------------------------------------------------------------
      1          6           0        1.949905    1.479640    1.714925
      2          6           0        3.100139    2.123461    0.985711
      3          6           0        3.057815    0.633192    1.144521
      4          6           0        0.599891    1.451462    1.090609
      5          1           0        1.908396    1.598234    2.816731
      6          1           0        2.921216    2.560188   -0.012738
      7          1           0        3.839817    2.705307    1.562799
      8          1           0        3.767116    0.145330    1.835593
      9          1           0        2.848693    0.006767    0.259360
     10          1           0        0.668231    1.331289   -0.018218
     11          1           0        0.002414    0.600036    1.499832
     12          1           0        0.053667    2.402194    1.307676
 ---------------------------------------------------------------------
                    Distance matrix (angstroms):
                    1          2          3          4          5
     1  C    0.000000
     2  C    1.506419   0.000000
     3  C    1.506419   1.499304   0.000000
     4  C    1.487650   2.591105   2.591112   0.000000
     5  H    1.108947   2.246942   2.246944   2.170996   0.000000
     6  H    2.257398   1.104375   2.251937   2.799142   3.155479
     7  H    2.257692   1.103947   2.253918   3.506025   2.555062
     8  H    2.257698   2.253921   1.103947   3.506037   2.555074
     9  H    2.257397   2.251933   1.104378   2.799147   3.155483
    10  H    2.160666   2.747651   2.747619   1.117411   3.105833
    11  H    2.147717   3.490135   3.076170   1.117752   2.522576
    12  H    2.147714   3.076093   3.490114   1.117752   2.522621
                    6          7          8          9         10
     6  H    0.000000
     7  H    1.829537   0.000000
     8  H    3.156488   2.575498   0.000000
     9  H    2.568901   3.156485   1.829538   0.000000
    10  H    2.566352   3.800855   3.800815   2.566285   0.000000
    11  H    3.827462   4.377419   3.806898   3.161019   1.811771
    12  H    3.160901   3.806823   4.377424   3.827428   1.811773
                   11         12
    11  H    0.000000
    12  H    1.813097   0.000000
 Stoichiometry    C4H8
 Framework group  C1[X(C4H8)]
 Deg. of freedom    30
 Full point group                 C1      NOp   1
 Largest Abelian subgroup         C1      NOp   1
 Largest concise Abelian subgroup C1      NOp   1
                         Standard orientation:                         
 ---------------------------------------------------------------------
 Center     Atomic      Atomic             Coordinates (Angstroms)
 Number     Number       Type             X           Y           Z
 ---------------------------------------------------------------------
      1          6           0        0.192214    0.000005    0.500377
      2          6           0       -0.948952   -0.749654   -0.136057
      3          6           0       -0.948963    0.749650   -0.136057
      4          6           0        1.531311    0.000002   -0.147636
      5          1           0        0.253693    0.000003    1.607618
      6          1           0       -0.771932   -1.284456   -1.085949
      7          1           0       -1.662161   -1.287753    0.512390
      8          1           0       -1.662182    1.287744    0.512380
      9          1           0       -0.771945    1.284445   -1.085956
     10          1           0        1.442863    0.000072   -1.261541
     11          1           0        2.109032    0.906513    0.158705
     12          1           0        2.108972   -0.906584    0.158598
 ---------------------------------------------------------------------
 Rotational constants (GHZ):     15.4676171      6.4015983      5.6217952
 Standard basis: VSTO-6G (5D, 7F)
 There are    24 symmetry adapted cartesian basis functions of A   symmetry.
 There are    24 symmetry adapted basis functions of A   symmetry.
    24 basis functions,   144 primitive gaussians,    24 cartesian basis functions
    12 alpha electrons       12 beta electrons
       nuclear repulsion energy        82.2742365541 Hartrees.
 Integral buffers will be    131072 words long.
 Regular integral format.
 Two-electron integral symmetry is turned off.
 Do NDO integrals.
 One-electron integrals computed using PRISM.
 NBasis=    24 RedAO= F EigKep=  0.00D+00  NBF=    24
 NBsUse=    24 1.00D-04 EigRej=  0.00D+00 NBFU=    24
 Initial guess from the checkpoint file:  "Methylcyclopropane-opt.chk"
 B after Tr=    -0.000000   -0.000000   -0.000000
         Rot=    1.000000   -0.000001   -0.000254   -0.000003 Ang=  -0.03 deg.
 Overlap will be assumed to be unity.
 Keep J ints in memory in canonical form, NReq=889405.
 Requested convergence on RMS density matrix=1.00D-08 within 128 cycles.
 Requested convergence on MAX density matrix=1.00D-06.
 Requested convergence on             energy=1.00D-06.
 No special actions if energy rises.
 SCF Done:  E(RAM1) =  0.170993568141E-01 A.U. after    8 cycles
            NFock=  7  Conv=0.39D-08     -V/T= 1.0011
 Calling FoFJK, ICntrl=      2127 FMM=F ISym2X=0 I1Cent= 0 IOpClX= 0 NMat=1 NMatS=1 NMatT=0.
 ***** Axes restored to original set *****
 -------------------------------------------------------------------
 Center     Atomic                   Forces (Hartrees/Bohr)
 Number     Number              X              Y              Z
 -------------------------------------------------------------------
      1        6           0.000363556   -0.000003692    0.000059699
      2        6          -0.000128805   -0.000098668   -0.000010591
      3        6          -0.000124822    0.000101184   -0.000034853
      4        6          -0.000122998   -0.000008368   -0.000108512
      5        1           0.000045851   -0.000002442   -0.000008977
      6        1          -0.000022594    0.000028988    0.000017993
      7        1          -0.000016850    0.000023324    0.000041549
      8        1          -0.000018118   -0.000012864    0.000046002
      9        1          -0.000023726   -0.000023084    0.000024859
     10        1           0.000047013   -0.000012132   -0.000102761
     11        1          -0.000000793   -0.000049768    0.000043581
     12        1           0.000002287    0.000057522    0.000032011
 -------------------------------------------------------------------
 Cartesian Forces:  Max     0.000363556 RMS     0.000083095

 GradGradGradGradGradGradGradGradGradGradGradGradGradGradGradGradGradGrad
 Berny optimization.
 Using GEDIIS/GDIIS optimizer.
 FormGI is forming the generalized inverse of G from B-inverse, IUseBI=4.
 Internal  Forces:  Max     0.000184569 RMS     0.000053083
 Search for a local minimum.
 Step number   5 out of a maximum of   64
 All quantities printed in internal units (Hartrees-Bohrs-Radians)
 Mixed Optimization -- En-DIIS/RFO-DIIS
 Swapping is turned off.
 Update second derivatives using D2CorX and points    1    2    3    4    5
 DE= -3.38D-06 DEPred=-3.72D-06 R= 9.09D-01
 TightC=F SS=  1.41D+00  RLast= 1.17D-02 DXNew= 7.9309D-01 3.4964D-02
 Trust test= 9.09D-01 RLast= 1.17D-02 DXMaxT set to 4.72D-01
 ITU=  1  1  1  1  0
     Eigenvalues ---    0.00581   0.01852   0.02236   0.02903   0.03046
     Eigenvalues ---    0.03411   0.03783   0.05686   0.05802   0.06928
     Eigenvalues ---    0.10123   0.10277   0.15123   0.15907   0.15990
     Eigenvalues ---    0.16000   0.16748   0.17311   0.26122   0.27512
     Eigenvalues ---    0.33893   0.33986   0.34021   0.34594   0.35012
     Eigenvalues ---    0.35083   0.35091   0.35183   0.38335   0.52365
 En-DIIS/RFO-DIIS IScMMF=        0 using points:     5    4    3
 RFO step:  Lambda=-3.00428497D-07.
 DidBck=F Rises=F RFO-DIIS coefs:    0.88370    0.14662   -0.03033
 Iteration  1 RMS(Cart)=  0.00049365 RMS(Int)=  0.00000014
 Iteration  2 RMS(Cart)=  0.00000013 RMS(Int)=  0.00000005
 Variable       Old X    -DE/DX   Delta X   Delta X   Delta X     New X
                                 (Linear)    (Quad)   (Total)
    R1        2.84672  -0.00018  -0.00017  -0.00033  -0.00050   2.84622
    R2        2.84672  -0.00018  -0.00017  -0.00033  -0.00050   2.84622
    R3        2.81125   0.00012  -0.00011   0.00046   0.00035   2.81160
    R4        2.09561  -0.00001  -0.00002  -0.00004  -0.00006   2.09554
    R5        2.83327   0.00002  -0.00003   0.00014   0.00011   2.83338
    R6        2.08697  -0.00000  -0.00004   0.00003  -0.00000   2.08696
    R7        2.08616   0.00002  -0.00005   0.00013   0.00008   2.08623
    R8        2.08616   0.00002  -0.00005   0.00013   0.00008   2.08623
    R9        2.08697  -0.00000  -0.00004   0.00003  -0.00001   2.08696
   R10        2.11160   0.00011  -0.00010   0.00037   0.00026   2.11187
   R11        2.11224   0.00005  -0.00006   0.00018   0.00013   2.11237
   R12        2.11225   0.00005  -0.00006   0.00018   0.00013   2.11237
    A1        2.09192  -0.00009   0.00005  -0.00047  -0.00042   2.09150
    A2        2.05311  -0.00001  -0.00013   0.00022   0.00009   2.05320
    A3        2.09193  -0.00009   0.00005  -0.00048  -0.00043   2.09150
    A4        2.05311  -0.00001  -0.00013   0.00022   0.00009   2.05320
    A5        1.96603   0.00009   0.00008   0.00024   0.00032   1.96635
    A6        2.07481   0.00002  -0.00025   0.00021  -0.00004   2.07477
    A7        2.07580  -0.00003  -0.00015  -0.00017  -0.00032   2.07549
    A8        2.07631   0.00001  -0.00002   0.00054   0.00052   2.07683
    A9        2.07994   0.00003   0.00005   0.00022   0.00027   2.08021
   A10        1.95275  -0.00000   0.00023  -0.00045  -0.00022   1.95253
   A11        2.07581  -0.00003  -0.00015  -0.00018  -0.00033   2.07549
   A12        2.07481   0.00002  -0.00025   0.00022  -0.00004   2.07477
   A13        2.07994   0.00003   0.00005   0.00021   0.00026   2.08021
   A14        2.07630   0.00001  -0.00002   0.00055   0.00053   2.07683
   A15        1.95275  -0.00000   0.00023  -0.00045  -0.00022   1.95254
   A16        1.94226  -0.00004   0.00004  -0.00028  -0.00024   1.94202
   A17        1.92395  -0.00004   0.00006  -0.00028  -0.00022   1.92373
   A18        1.92395  -0.00004   0.00006  -0.00028  -0.00022   1.92373
   A19        1.89027   0.00004  -0.00006   0.00031   0.00025   1.89052
   A20        1.89028   0.00004  -0.00006   0.00031   0.00025   1.89052
   A21        1.89188   0.00004  -0.00005   0.00026   0.00022   1.89209
    D1       -0.00868   0.00003   0.00001   0.00084   0.00085  -0.00783
    D2        2.47502   0.00001  -0.00018   0.00001  -0.00016   2.47486
    D3       -2.50956   0.00001  -0.00001   0.00077   0.00076  -2.50880
    D4       -0.02586  -0.00001  -0.00020  -0.00006  -0.00026  -0.02611
    D5       -2.47503  -0.00001   0.00018  -0.00001   0.00017  -2.47486
    D6        0.00867  -0.00003  -0.00001  -0.00084  -0.00085   0.00782
    D7        0.02586   0.00001   0.00020   0.00005   0.00025   0.02611
    D8        2.50957  -0.00001   0.00001  -0.00078  -0.00077   2.50880
    D9        0.61122   0.00001   0.00005  -0.00008  -0.00003   0.61119
   D10        2.70888   0.00001   0.00004  -0.00007  -0.00002   2.70885
   D11       -1.48643   0.00001   0.00006  -0.00010  -0.00004  -1.48647
   D12       -0.61107  -0.00001  -0.00005   0.00006   0.00001  -0.61106
   D13        1.48658  -0.00001  -0.00006   0.00008   0.00002   1.48660
   D14       -2.70873  -0.00001  -0.00004   0.00005   0.00000  -2.70872
   D15       -3.14153   0.00000   0.00000  -0.00000  -0.00000  -3.14153
   D16       -1.04387   0.00000  -0.00001   0.00001   0.00001  -1.04387
   D17        1.04400  -0.00000   0.00001  -0.00002  -0.00001   1.04400
   D18        2.49290   0.00006   0.00053   0.00035   0.00087   2.49377
   D19       -0.00000   0.00000  -0.00000   0.00000  -0.00000  -0.00000
   D20       -0.00001   0.00000   0.00000   0.00001   0.00001  -0.00000
   D21       -2.49291  -0.00006  -0.00053  -0.00034  -0.00086  -2.49378
         Item               Value     Threshold  Converged?
 Maximum Force            0.000185     0.000450     YES
 RMS     Force            0.000053     0.000300     YES
 Maximum Displacement     0.001360     0.001800     YES
 RMS     Displacement     0.000494     0.001200     YES
 Predicted change in Energy=-3.407393D-07
 Optimization completed.
    -- Stationary point found.
                           ----------------------------
                           !   Optimized Parameters   !
                           ! (Angstroms and Degrees)  !
 --------------------------                            --------------------------
 ! Name  Definition              Value          Derivative Info.                !
 --------------------------------------------------------------------------------
 ! R1    R(1,2)                  1.5064         -DE/DX =   -0.0002              !
 ! R2    R(1,3)                  1.5064         -DE/DX =   -0.0002              !
 ! R3    R(1,4)                  1.4876         -DE/DX =    0.0001              !
 ! R4    R(1,5)                  1.1089         -DE/DX =    0.0                 !
 ! R5    R(2,3)                  1.4993         -DE/DX =    0.0                 !
 ! R6    R(2,6)                  1.1044         -DE/DX =    0.0                 !
 ! R7    R(2,7)                  1.1039         -DE/DX =    0.0                 !
 ! R8    R(3,8)                  1.1039         -DE/DX =    0.0                 !
 ! R9    R(3,9)                  1.1044         -DE/DX =    0.0                 !
 ! R10   R(4,10)                 1.1174         -DE/DX =    0.0001              !
 ! R11   R(4,11)                 1.1178         -DE/DX =    0.0001              !
 ! R12   R(4,12)                 1.1178         -DE/DX =    0.0001              !
 ! A1    A(2,1,4)              119.8584         -DE/DX =   -0.0001              !
 ! A2    A(2,1,5)              117.6344         -DE/DX =    0.0                 !
 ! A3    A(3,1,4)              119.8589         -DE/DX =   -0.0001              !
 ! A4    A(3,1,5)              117.6345         -DE/DX =    0.0                 !
 ! A5    A(4,1,5)              112.6451         -DE/DX =    0.0001              !
 ! A6    A(1,2,6)              118.878          -DE/DX =    0.0                 !
 ! A7    A(1,2,7)              118.9348         -DE/DX =    0.0                 !
 ! A8    A(3,2,6)              118.9639         -DE/DX =    0.0                 !
 ! A9    A(3,2,7)              119.1716         -DE/DX =    0.0                 !
 ! A10   A(6,2,7)              111.8845         -DE/DX =    0.0                 !
 ! A11   A(1,3,8)              118.9354         -DE/DX =    0.0                 !
 ! A12   A(1,3,9)              118.8776         -DE/DX =    0.0                 !
 ! A13   A(2,3,8)              119.172          -DE/DX =    0.0                 !
 ! A14   A(2,3,9)              118.9633         -DE/DX =    0.0                 !
 ! A15   A(8,3,9)              111.8845         -DE/DX =    0.0                 !
 ! A16   A(1,4,10)             111.2832         -DE/DX =    0.0                 !
 ! A17   A(1,4,11)             110.2345         -DE/DX =    0.0                 !
 ! A18   A(1,4,12)             110.2343         -DE/DX =    0.0                 !
 ! A19   A(10,4,11)            108.3047         -DE/DX =    0.0                 !
 ! A20   A(10,4,12)            108.3048         -DE/DX =    0.0                 !
 ! A21   A(11,4,12)            108.3966         -DE/DX =    0.0                 !
[...]
                             2090.60  2380.87  4397.13  4398.47  4516.75
                             4516.95  4536.90  4554.12  4601.63  4613.61
 
 Zero-point correction=                           0.110764 (Hartree/Particle)
 Thermal correction to Energy=                    0.115462
 Thermal correction to Enthalpy=                  0.116406
 Thermal correction to Gibbs Free Energy=         0.083871
 Sum of electronic and zero-point Energies=              0.127864
 Sum of electronic and thermal Energies=                 0.132561
 Sum of electronic and thermal Enthalpies=               0.133505
 Sum of electronic and thermal Free Energies=            0.100971
 
                     E (Thermal)             CV                S
                      KCal/Mol        Cal/Mol-Kelvin    Cal/Mol-Kelvin
 Total                   72.453             15.863             68.474
 Electronic               0.000              0.000              0.000
 Translational            0.889              2.981             37.993
 Rotational               0.889              2.981             23.872
 Vibrational             70.676              9.901              6.609
 Vibration     1          0.607              1.939              3.233
 Vibration     2          0.719              1.599              1.220
 Vibration     3          0.766              1.470              0.962
                       Q            Log10(Q)             Ln(Q)
 Total Bot       0.264163D-38        -38.578128        -88.829424
 Total V=0       0.234340D+13         12.369847         28.482625
 Vib (Bot)       0.435242D-50        -50.361269       -115.961107
 Vib (Bot)    1  0.182726D+01          0.261799          0.602815
 Vib (Bot)    2  0.549519D+00         -0.260017         -0.598712
 Vib (Bot)    3  0.445218D+00         -0.351427         -0.809191
 Vib (V=0)       0.386106D+01          0.586706          1.350941
 Vib (V=0)    1  0.239443D+01          0.379202          0.873145
 Vib (V=0)    2  0.124295D+01          0.094453          0.217486
 Vib (V=0)    3  0.116949D+01          0.067997          0.156569
 Electronic      0.100000D+01          0.000000          0.000000
 Translational   0.164993D+08          7.217465         16.618827
 Rotational      0.367854D+05          4.565675         10.512856
 ***** Axes restored to original set *****
 -------------------------------------------------------------------
 Center     Atomic                   Forces (Hartrees/Bohr)
 Number     Number              X              Y              Z
 -------------------------------------------------------------------
      1        6           0.000363555   -0.000003693    0.000059699
      2        6          -0.000128805   -0.000098668   -0.000010591
      3        6          -0.000124822    0.000101184   -0.000034853
      4        6          -0.000122998   -0.000008368   -0.000108512
      5        1           0.000045851   -0.000002442   -0.000008977
      6        1          -0.000022594    0.000028988    0.000017993
      7        1          -0.000016850    0.000023324    0.000041549
      8        1          -0.000018118   -0.000012864    0.000046002
      9        1          -0.000023726   -0.000023084    0.000024859
     10        1           0.000047013   -0.000012132   -0.000102761
     11        1          -0.000000793   -0.000049768    0.000043581
     12        1           0.000002287    0.000057522    0.000032011
 -------------------------------------------------------------------
 Cartesian Forces:  Max     0.000363555 RMS     0.000083094
 FormGI is forming the generalized inverse of G from B-inverse, IUseBI=4.

 GradGradGradGradGradGradGradGradGradGradGradGradGradGradGradGradGradGrad
 Berny optimization.
 Internal  Forces:  Max     0.000184569 RMS     0.000053083
 Search for a local minimum.
 Step number   1 out of a maximum of    2
 All quantities printed in internal units (Hartrees-Bohrs-Radians)
 Second derivative matrix not updated -- analytic derivatives used.
 ITU=  0
     Eigenvalues ---    0.00061   0.01923   0.01991   0.02011   0.02528
     Eigenvalues ---    0.03977   0.04061   0.04577   0.04642   0.05841
     Eigenvalues ---    0.05962   0.06871   0.08455   0.13103   0.13198
     Eigenvalues ---    0.13308   0.14435   0.15066   0.29364   0.32456
     Eigenvalues ---    0.33032   0.33099   0.34665   0.34902   0.34986
     Eigenvalues ---    0.35804   0.37006   0.39403   0.44668   0.51947
 Angle between quadratic step and forces=  53.24 degrees.
 Linear search not attempted -- first point.
 Iteration  1 RMS(Cart)=  0.00059161 RMS(Int)=  0.00000021
 Iteration  2 RMS(Cart)=  0.00000020 RMS(Int)=  0.00000009
 Variable       Old X    -DE/DX   Delta X   Delta X   Delta X     New X
                                 (Linear)    (Quad)   (Total)
    R1        2.84672  -0.00018   0.00000  -0.00039  -0.00039   2.84633
    R2        2.84672  -0.00018   0.00000  -0.00039  -0.00039   2.84633
    R3        2.81125   0.00012   0.00000   0.00048   0.00048   2.81173
    R4        2.09561  -0.00001   0.00000  -0.00011  -0.00011   2.09550
    R5        2.83327   0.00002   0.00000   0.00003   0.00003   2.83330
    R6        2.08697  -0.00000   0.00000  -0.00002  -0.00002   2.08694
    R7        2.08616   0.00002   0.00000   0.00011   0.00011   2.08627
    R8        2.08616   0.00002   0.00000   0.00011   0.00011   2.08627
    R9        2.08697  -0.00000   0.00000  -0.00003  -0.00003   2.08694
   R10        2.11160   0.00011   0.00000   0.00026   0.00026   2.11186
   R11        2.11224   0.00005   0.00000   0.00009   0.00009   2.11234
   R12        2.11225   0.00005   0.00000   0.00009   0.00009   2.11234
    A1        2.09192  -0.00009   0.00000  -0.00075  -0.00075   2.09117
    A2        2.05311  -0.00001   0.00000   0.00021   0.00021   2.05332
    A3        2.09193  -0.00009   0.00000  -0.00076  -0.00076   2.09117
    A4        2.05311  -0.00001   0.00000   0.00021   0.00021   2.05332
    A5        1.96603   0.00009   0.00000   0.00060   0.00060   1.96663
    A6        2.07481   0.00002   0.00000  -0.00001  -0.00001   2.07480
    A7        2.07580  -0.00003   0.00000  -0.00039  -0.00039   2.07541
    A8        2.07631   0.00001   0.00000   0.00048   0.00048   2.07679
    A9        2.07994   0.00003   0.00000  -0.00002  -0.00002   2.07992
   A10        1.95275  -0.00000   0.00000  -0.00001  -0.00001   1.95275
   A11        2.07581  -0.00003   0.00000  -0.00040  -0.00040   2.07541
   A12        2.07481   0.00002   0.00000  -0.00000  -0.00000   2.07480
   A13        2.07994   0.00003   0.00000  -0.00002  -0.00002   2.07992
   A14        2.07630   0.00001   0.00000   0.00049   0.00049   2.07679
   A15        1.95275  -0.00000   0.00000  -0.00001  -0.00001   1.95275
   A16        1.94226  -0.00004   0.00000  -0.00039  -0.00039   1.94187
   A17        1.92395  -0.00004   0.00000  -0.00028  -0.00028   1.92368
   A18        1.92395  -0.00004   0.00000  -0.00027  -0.00027   1.92368
   A19        1.89027   0.00004   0.00000   0.00034   0.00034   1.89061
   A20        1.89028   0.00004   0.00000   0.00034   0.00034   1.89061
   A21        1.89188   0.00004   0.00000   0.00030   0.00030   1.89218
    D1       -0.00868   0.00003   0.00000   0.00111   0.00111  -0.00757
    D2        2.47502   0.00001   0.00000   0.00044   0.00044   2.47546
    D3       -2.50956   0.00001   0.00000   0.00078   0.00078  -2.50878
    D4       -0.02586  -0.00001   0.00000   0.00011   0.00011  -0.02575
    D5       -2.47503  -0.00001   0.00000  -0.00043  -0.00043  -2.47546
    D6        0.00867  -0.00003   0.00000  -0.00110  -0.00110   0.00757
    D7        0.02586   0.00001   0.00000  -0.00012  -0.00012   0.02575
    D8        2.50957  -0.00001   0.00000  -0.00079  -0.00079   2.50878
    D9        0.61122   0.00001   0.00000  -0.00028  -0.00028   0.61095
   D10        2.70888   0.00001   0.00000  -0.00029  -0.00029   2.70859
   D11       -1.48643   0.00001   0.00000  -0.00027  -0.00027  -1.48670
   D12       -0.61107  -0.00001   0.00000   0.00013   0.00013  -0.61095
   D13        1.48658  -0.00001   0.00000   0.00012   0.00012   1.48670
   D14       -2.70873  -0.00001   0.00000   0.00014   0.00014  -2.70859
   D15       -3.14153   0.00000   0.00000  -0.00007  -0.00007  -3.14159
   D16       -1.04387   0.00000   0.00000  -0.00008  -0.00008  -1.04395
   D17        1.04400  -0.00000   0.00000  -0.00006  -0.00006   1.04395
   D18        2.49290   0.00006   0.00000   0.00076   0.00076   2.49366
   D19       -0.00000   0.00000   0.00000   0.00000   0.00000   0.00000
   D20       -0.00001   0.00000   0.00000   0.00001   0.00001   0.00000
   D21       -2.49291  -0.00006   0.00000  -0.00075  -0.00075  -2.49366
         Item               Value     Threshold  Converged?
 Maximum Force            0.000185     0.000450     YES
 RMS     Force            0.000053     0.000300     YES
 Maximum Displacement     0.002101     0.001800     NO 
 RMS     Displacement     0.000592     0.001200     YES
 Predicted change in Energy=-3.532234D-07
 GradGradGradGradGradGradGradGradGradGradGradGradGradGradGradGradGradGrad

 1\1\GINC-GTX1080DELTA\Freq\RAM1\ZDO\C4H8\MVEROT\16-Apr-2022\0\\#N Geom
 =AllCheck Guess=TCheck SCRF=Check GenChk RAM1/ZDO Freq\\Optimisation d
 e geometrie\\0,1\C,1.9499049267,1.4796396021,1.7149247256\C,3.10013932
 02,2.1234605239,0.9857109476\C,3.0578148873,0.6331919338,1.1445208423\
 C,0.5998910906,1.4514623978,1.0906085706\H,1.9083963536,1.5982344058,2
 .8167307385\H,2.9212158474,2.560188129,-0.0127377625\H,3.8398171742,2.
 7053072798,1.562799416\H,3.7671159639,0.1453295204,1.8355926542\H,2.84
 86925384,0.006767455,0.2593598119\H,0.6682313415,1.3312885265,-0.01821
 75385\H,0.0024139642,0.6000364546,1.4998315359\H,0.0536665919,2.402193
 7714,1.3076760584\\Version=AM64L-G09RevD.01\State=1-A\HF=0.0170994\RMS
 D=3.643e-10\RMSF=8.309e-05\ZeroPoint=0.1107644\Thermal=0.1154617\Dipol
 e=-0.0281283,0.0001863,-0.0057728\DipoleDeriv=-0.1030148,0.0106557,0.0
 540716,0.0123388,0.0665519,-0.0218183,0.0699142,-0.0222727,-0.1211248,
 -0.0693216,-0.1017721,-0.0148884,-0.1182462,-0.1487852,0.0611594,-0.03
 25351,0.0549103,-0.1000676,-0.0575608,0.0902412,-0.0384193,0.1026672,-
 0.1817154,-0.0432428,-0.0587581,-0.0359145,-0.0788884,0.0041537,0.0005
 812,0.0256292,0.0039591,-0.0717649,-0.0014154,0.0572712,-0.0023091,-0.
 0779222,0.0001717,-0.0009802,-0.0218004,-0.0005465,0.0480695,0.0053018
 ,-0.0177432,0.0051864,0.0914319,0.0349134,-0.0185919,-0.0088324,-0.010
 8447,0.046466,-0.0227201,-0.0136182,-0.0269539,0.0712619,0.0606003,0.0
 126893,0.0054839,0.0185279,0.0542866,0.0214045,0.0188601,0.029608,0.03
 26151,0.0589596,-0.0119665,0.0067886,-0.0149075,0.0442862,-0.0241073,0
 .0206134,-0.033084,0.0442603,0.0364822,0.0173348,-0.0112379,0.0087786,
 0.0563894,0.0263385,-0.0140394,0.0307874,0.0597665,0.0226823,-0.000250
 8,-0.0049196,0.0002149,0.0319755,-0.0027911,-0.0005412,-0.0029159,0.00
 47825,0.0055807,-0.0139599,0.005711,0.0003813,0.0275532,0.0027392,-0.0
 148943,0.0000432,0.0368991,0.0063548,0.016019,0.002412,-0.0023228,0.02
 66897,-0.0008484,-0.0145288,0.0029146,0.0369865\Polar=33.7451446,-0.19
 46575,32.281492,-1.4394387,-0.1701933,30.3131467\HyperPolar=13.2749819
 ,1.8898155,-0.9633321,0.2094855,21.7316793,-0.6742534,0.3062011,-1.508
 1902,-1.5644582,-14.1391982\PG=C01 [X(C4H8)]\NImag=0\\0.77687942,-0.02
 021599,0.31265840,-0.06477901,0.03649932,0.63344308,-0.19245684,-0.061
 12617,0.09054816,0.45991686,-0.13295834,-0.06793569,0.07872648,0.19073
 803,0.62553139,0.09547303,0.03959153,-0.11263178,0.04728467,-0.1157348
 7,0.54640346,-0.18011586,0.08390639,0.07029854,-0.02362652,0.02506965,
 -0.01975307,0.43971097,0.15539755,-0.10745281,-0.08586227,-0.04572898,
 -0.32178158,0.04976353,-0.16411083,0.68884418,0.06217535,-0.04663649,-
 0.08545485,-0.01332515,0.01043879,-0.04722176,0.09094002,0.08314996,0.
 50329337,-0.26224297,-0.00480213,-0.09692062,-0.03462660,-0.00544309,-
 0.00102674,-0.03304651,0.00704692,-0.00183905,0.58256737,-0.00475243,-
 0.06780419,-0.00195701,-0.02007739,-0.00026395,-0.00855664,0.02302537,
 -0.00014345,0.00969602,0.00038772,0.50994140,-0.09644979,-0.00197050,-
 0.11193190,0.00720251,0.00154949,0.00559117,0.00254359,-0.00076817,0.0
 0389164,0.02303229,0.00181643,0.53293975,-0.03568284,0.00067388,0.0076
 3141,-0.00545701,-0.00255546,0.01933849,-0.00499919,0.00672055,0.01709
 683,-0.00689641,-0.00273900,-0.02897736,0.05865965,0.00086495,-0.04352
 389,-0.02728353,-0.00213925,0.00248848,0.01948084,0.00453281,-0.003551
 52,-0.02399547,-0.00106633,0.00519154,-0.00215456,-0.00222102,0.039023
 84,0.00942420,-0.02733446,-0.29458135,0.01038772,0.00211022,-0.0193754
 3,0.00942370,-0.00615271,-0.01379318,-0.01328113,-0.00260051,-0.022552
 08,-0.01462811,0.03393641,0.34990014,0.00126389,-0.01050069,0.02403458
 ,-0.04714266,0.01969864,-0.04140265,0.00032640,0.00176955,-0.00767635,
 0.00056876,0.00082822,0.00013282,-0.00149907,-0.00240435,0.00068108,0.
 04914600,-0.00591973,-0.00405509,0.00741728,0.01846114,-0.07848924,0.0
 9208684,0.00472969,-0.02092037,0.02693958,-0.00055106,0.00009825,0.000
 31105,0.00031903,0.00011518,-0.00023818,-0.01200144,0.09839514,0.00425
 359,0.01211838,-0.01886798,-0.03963356,0.09435160,-0.25876183,0.001439
 07,0.00836205,-0.00094367,-0.00026829,-0.00073799,0.00050683,0.0005564
 5,0.00106880,-0.00015196,0.04532930,-0.11766795,0.29888400,-0.02340208
 ,-0.01795000,-0.00941526,-0.15965189,-0.09264715,-0.09408716,0.0040632
 8,-0.00395348,0.00446936,-0.00083952,-0.00228366,0.00132194,0.00024533
 ,0.00078187,-0.00027960,-0.00300216,-0.00389640,-0.01145573,0.18219207
 ,-0.00980998,-0.00528789,0.00247667,-0.09134266,-0.11089415,-0.0739133
 5,-0.01955010,-0.02563520,-0.01417403,0.00038280,0.00019824,-0.0002288
 5,-0.00049188,0.00011415,0.00033464,0.00238725,0.00685241,0.00313903,0
 .11896746,0.13632663,0.00946310,0.00523174,0.00754470,-0.09612913,-0.0
 7640716,-0.11460840,-0.00359139,-0.00284337,0.00004135,0.00053045,0.00
 166536,-0.00089891,0.00024545,-0.00020915,0.00040090,-0.02086665,-0.00
 923030,-0.02121285,0.10983899,0.08144435,0.12827311,-0.02179052,0.0164
 4823,-0.01312162,0.00529743,0.00328395,0.00463885,-0.15027501,0.074289
 35,-0.10763365,-0.00071915,0.00255392,0.00081201,0.00022845,-0.0008320
 1,-0.00012451,0.00049422,-0.00171955,-0.00027738,0.00023795,0.00058879
 ,0.00015552,0.16997296,0.01244963,-0.00788106,0.00131435,0.01676556,-0
 .02220366,0.01858324,0.07259899,-0.08815121,0.07305123,-0.00023072,-0.
 00027488,0.00001958,0.00052695,0.00011779,-0.00026027,0.00107988,-0.00
 238828,-0.00091143,-0.00052753,0.00056446,0.00052228,-0.09651320,0.113
 07631,0.00686248,-0.00254444,0.00852666,-0.00714813,0.00781624,-0.0046
 2421,-0.10921200,0.07564796,-0.14672955,0.00049472,-0.00184318,-0.0005
 4612,0.00015021,0.00026081,0.00041418,-0.00019090,0.00071054,0.0002747
 6,0.00024223,-0.00061300,0.00019750,0.12803911,-0.08375342,0.16374326,
 0.00232878,0.01478958,0.02080588,-0.00015375,-0.00485623,-0.00834544,-
 0.04993414,-0.03144910,-0.04207552,0.00055106,-0.00080591,0.00029121,-
 0.00136999,0.00257351,0.00016238,-0.00002164,0.00079754,0.00002994,0.0
 0051825,-0.00125893,0.00003392,-0.00307829,-0.00611376,-0.01957576,0.0
 5127613,0.00611818,-0.00994337,-0.01074475,-0.00571944,-0.02679294,-0.
 02085225,-0.02988049,-0.12164717,-0.11890822,0.00046417,0.00022236,-0.
 00025975,-0.00012282,-0.00020128,0.00021006,-0.00074309,0.00053600,0.0
 0018821,0.00146918,-0.00224937,-0.00016372,0.00193655,0.00712811,0.004
 29682,0.02625975,0.15310361,0.00220111,-0.01435573,-0.01404471,0.00221
 677,-0.00283364,0.00540878,-0.04073669,-0.12126115,-0.21280951,-0.0003
 3189,0.00081843,0.00040042,0.00054086,-0.00110413,0.00003543,0.0001822
 8,-0.00022835,0.00037883,-0.00054891,0.00147726,0.00011181,-0.01240828
 ,-0.00854332,-0.02141235,0.04890956,0.14611100,0.24204302,-0.00626154,
 -0.00314929,-0.03228701,-0.00027072,-0.00025477,-0.00050016,-0.0002434
 0,0.00016092,-0.00052769,-0.04158160,0.00201397,0.01885054,-0.00301603
 ,-0.00004660,-0.00133114,-0.00031955,-0.00019925,0.00021377,0.00008442
 ,-0.00000181,-0.00001363,0.00008460,-0.00000694,-0.00001407,-0.0002987
 1,0.00024927,0.00016088,0.05153445,-0.00107365,0.00387316,-0.00198111,
 -0.00027792,-0.00000612,-0.00026451,0.00027386,0.00004841,0.00032206,0
 .00177536,-0.04427432,-0.02612238,-0.00003828,0.00033678,-0.00000767,-
 0.00016686,-0.00012124,0.00009556,0.00000077,-0.00001799,0.00001558,0.
 00001138,-0.00001772,-0.00001860,0.00012275,-0.00014262,-0.00008311,-0
 .00186643,0.04535277,-0.01282131,-0.00253460,-0.02313717,-0.00006573,-
 0.00007135,0.00019148,-0.00011939,0.00010489,0.00010964,0.01661268,-0.
 02605876,-0.28140031,-0.00125329,-0.00000997,-0.00009075,-0.00024090,-
 0.00006992,-0.00002495,0.00008411,-0.00002336,-0.00003516,0.00008409,0
 .00001478,-0.00003559,-0.00026687,0.00010748,-0.00002458,-0.01493271,0
 .03194037,0.33746538,-0.03029730,-0.02456570,0.00428732,-0.00264754,-0
 .00020784,-0.00228665,0.00080885,-0.00002839,0.00068859,-0.10753597,-0
 .09799831,0.04779416,-0.00011583,-0.00014898,-0.00020973,0.00019380,0.
 00003705,-0.00021461,-0.00057975,0.00011967,0.00043309,0.00013406,-0.0
 0003657,-0.00009628,-0.00000569,0.00006154,0.00001399,-0.00016202,-0.0
 0570851,0.00735803,0.13293259,-0.01101240,-0.00128009,-0.00061287,0.00
 034753,0.00024805,-0.00009762,-0.00009948,0.00011156,0.00007265,-0.098
 87925,-0.18374138,0.06920204,-0.00023896,-0.00009095,-0.00020428,0.000
 03470,-0.00001573,-0.00002126,0.00006109,-0.00000209,-0.00004705,0.000
 02547,0.00001779,-0.00002836,-0.00001916,-0.00000483,-0.00001151,-0.00
 277518,0.00121487,0.00576542,0.12183624,0.21505406,-0.00696041,-0.0070
 4983,0.00656147,-0.00151930,-0.00002461,-0.00059319,0.00019828,-0.0000
 6531,0.00021991,0.04878802,0.06957046,-0.07503572,-0.00033495,-0.00020
 575,-0.00005816,0.00002458,0.00000167,-0.00009958,-0.00021809,0.000053
 51,0.00022659,0.00004095,-0.00004225,-0.00002778,-0.00000118,0.0000372
 7,0.00001374,0.01635286,0.02230498,-0.01993345,-0.05515505,-0.08332407
 ,0.08346197,-0.02822214,0.02649188,-0.00108244,0.00081933,0.00013264,0
 .00066697,-0.00266879,-0.00011406,-0.00229262,-0.09619830,0.09984751,0
 .02344602,-0.00009713,0.00010539,-0.00022493,-0.00000799,-0.00005710,0
 .00002740,0.00013404,0.00000946,-0.00009975,-0.00058676,0.00000762,0.0
 0044839,0.00018797,-0.00009272,-0.00019975,0.00044999,0.00694754,0.005
 56128,0.00727479,-0.00928059,-0.00121568,0.11891499,0.01091221,-0.0013
 6753,0.00200743,0.00009965,0.00009964,-0.00008677,-0.00049592,0.000279
 37,0.00004393,0.10091560,-0.21914951,-0.04139436,0.00016700,-0.0000201
 8,0.00020674,0.00001834,-0.00000715,0.00001507,-0.00002219,0.00003069,
 0.00002138,-0.00007283,0.00001226,0.00006871,-0.00004020,-0.00000858,0
 .00001420,0.00587611,-0.00624595,-0.00916498,0.00663973,-0.03151129,-0
 .00125609,-0.12399750,0.25788817,-0.00884242,0.00898506,0.00457351,0.0
 0018124,0.00007885,0.00022178,-0.00143058,-0.00007550,-0.00060331,0.02
 420950,-0.04181260,-0.05096449,-0.00036593,0.00021572,-0.00014774,-0.0
 0000719,-0.00003229,0.00001836,0.00004806,0.00002718,-0.00004065,-0.00
 020514,0.00000522,0.00021923,0.00003190,-0.00002212,-0.00010091,0.0140
 2827,-0.02620116,-0.01308458,-0.00261280,0.00930694,0.00526423,-0.0250
 3487,0.04952474,0.05464458\\-0.00036355,0.00000369,-0.00005970,0.00012
 880,0.00009867,0.00001059,0.00012482,-0.00010118,0.00003485,0.00012300
 ,0.00000837,0.00010851,-0.00004585,0.00000244,0.00000898,0.00002259,-0
 .00002899,-0.00001799,0.00001685,-0.00002332,-0.00004155,0.00001812,0.
 00001286,-0.00004600,0.00002373,0.00002308,-0.00002486,-0.00004701,0.0
 0001213,0.00010276,0.00000079,0.00004977,-0.00004358,-0.00000229,-0.00
 005752,-0.00003201\\\@


 THE ONLY DIFFERENCE BETWEEN ECCENTRICS AND JOGGERS
 IS THAT JOGGERS WEAR SWEATBANDS WHEN THEY RUN IN THE RAIN.
 Job cpu time:       0 days  0 hours  0 minutes  1.0 seconds.
 File lengths (MBytes):  RWF=     82 Int=      0 D2E=      0 Chk=      2 Scr=      2
 Normal termination of Gaussian 09 at Sat Apr 16 11:43:12 2022.
