 Entering Gaussian System, Link 0=g09
 Input=/scratch/mverot/anthracene-2-7-opt-zindo/anthracene-2-7-opt-zindo.com
 Output=/scratch/mverot/anthracene-2-7-opt-zindo/anthracene-2-7-opt-zindo.log
 Initial command:
 /opt/g09/l1.exe "/scratch/mverot/anthracene-2-7-opt-zindo/Gau-2824258.inp" -scrdir="/scratch/mverot/anthracene-2-7-opt-zindo/"
 Entering Link 1 = /opt/g09/l1.exe PID=   2824260.
  
 Copyright (c) 1988,1990,1992,1993,1995,1998,2003,2009,2013,
            Gaussian, Inc.  All Rights Reserved.
  
 This is part of the Gaussian(R) 09 program.  It is based on
 the Gaussian(R) 03 system (copyright 2003, Gaussian, Inc.),
 the Gaussian(R) 98 system (copyright 1998, Gaussian, Inc.),
 the Gaussian(R) 94 system (copyright 1995, Gaussian, Inc.),
 the Gaussian 92(TM) system (copyright 1992, Gaussian, Inc.),
 the Gaussian 90(TM) system (copyright 1990, Gaussian, Inc.),
 the Gaussian 88(TM) system (copyright 1988, Gaussian, Inc.),
 the Gaussian 86(TM) system (copyright 1986, Carnegie Mellon
 University), and the Gaussian 82(TM) system (copyright 1983,
 Carnegie Mellon University). Gaussian is a federally registered
 trademark of Gaussian, Inc.
  
 This software contains proprietary and confidential information,
 including trade secrets, belonging to Gaussian, Inc.
  
 This software is provided under written license and may be
 used, copied, transmitted, or stored only in accord with that
 written license.
  
 The following legend is applicable only to US Government
 contracts under FAR:
  
                    RESTRICTED RIGHTS LEGEND
  
 Use, reproduction and disclosure by the US Government is
 subject to restrictions as set forth in subparagraphs (a)
 and (c) of the Commercial Computer Software - Restricted
 Rights clause in FAR 52.227-19.
  
 Gaussian, Inc.
 340 Quinnipiac St., Bldg. 40, Wallingford CT 06492
  
  
 ---------------------------------------------------------------
 Warning -- This program may not be used in any manner that
 competes with the business of Gaussian, Inc. or will provide
 assistance to any competitor of Gaussian, Inc.  The licensee
 of this program is prohibited from giving any competitor of
 Gaussian, Inc. access to this program.  By using this program,
 the user acknowledges that Gaussian, Inc. is engaged in the
 business of creating and licensing software in the field of
 computational chemistry and represents and warrants to the
 licensee that it is not a competitor of Gaussian, Inc. and that
 it will not use this program in any manner prohibited above.
 ---------------------------------------------------------------
  

 Cite this work as:
 Gaussian 09, Revision D.01,
 M. J. Frisch, G. W. Trucks, H. B. Schlegel, G. E. Scuseria, 
 M. A. Robb, J. R. Cheeseman, G. Scalmani, V. Barone, B. Mennucci, 
 G. A. Petersson, H. Nakatsuji, M. Caricato, X. Li, H. P. Hratchian, 
 A. F. Izmaylov, J. Bloino, G. Zheng, J. L. Sonnenberg, M. Hada, 
 M. Ehara, K. Toyota, R. Fukuda, J. Hasegawa, M. Ishida, T. Nakajima, 
 Y. Honda, O. Kitao, H. Nakai, T. Vreven, J. A. Montgomery, Jr., 
 J. E. Peralta, F. Ogliaro, M. Bearpark, J. J. Heyd, E. Brothers, 
 K. N. Kudin, V. N. Staroverov, T. Keith, R. Kobayashi, J. Normand, 
 K. Raghavachari, A. Rendell, J. C. Burant, S. S. Iyengar, J. Tomasi, 
 M. Cossi, N. Rega, J. M. Millam, M. Klene, J. E. Knox, J. B. Cross, 
 V. Bakken, C. Adamo, J. Jaramillo, R. Gomperts, R. E. Stratmann, 
 O. Yazyev, A. J. Austin, R. Cammi, C. Pomelli, J. W. Ochterski, 
 R. L. Martin, K. Morokuma, V. G. Zakrzewski, G. A. Voth, 
 P. Salvador, J. J. Dannenberg, S. Dapprich, A. D. Daniels, 
 O. Farkas, J. B. Foresman, J. V. Ortiz, J. Cioslowski, 
 and D. J. Fox, Gaussian, Inc., Wallingford CT, 2013.
 
 ******************************************
 Gaussian 09:  AM64L-G09RevD.01 24-Apr-2013
                12-Apr-2022 
 ******************************************
 %chk=anthracene-2-7-opt-zindo
 ------------------------------------
 #n ZINDO(NSTATE=10) pop=full gfinput
 ------------------------------------
 1/38=1/1;
 2/12=2,17=6,18=5,40=1/2;
 3/5=2,16=1,24=10,25=1,41=400000/1,2,8,3;
 4/5=3,35=1/1;
 5/5=2,35=1,38=5/2;
 8/6=1,108=10/1;
 9/41=10,42=1,49=10/14;
 6/7=3/1;
 99/5=1,9=1/99;
 ----------
 UV-spectra
 ----------
 Symbolic Z-matrix:
 Charge =  0 Multiplicity = 1
 C                     0.0043    1.46805   0.00034 
 C                     1.26368   0.6894    0.00019 
 C                    -1.26225   0.70112   0.00014 
 O                     0.01005   2.70637   0.00056 
 C                    -0.00938  -1.48013  -0.00031 
 C                    -1.26494  -0.70506  -0.00017 
 O                    -0.01514  -2.72082  -0.00063 
 C                     1.25332  -0.71674  -0.00012 
 C                     2.47387   1.38282   0.00036 
 C                    -2.4835   -1.39466  -0.00034 
 C                     2.46543  -1.41763  -0.00026 
 C                    -2.46595   1.40574   0.00027 
 C                     3.68155   0.66144   0.00022 
 C                     3.68118  -0.73978  -0.00009 
 C                    -3.68027   0.69561   0.00009 
 C                    -3.69291  -0.70556  -0.00022 
 H                     2.48811   2.48495   0.0006 
 H                    -2.47292  -2.49822  -0.00059 
 H                     2.44461  -2.52104  -0.00051 
 H                    -2.46996   2.50795   0.00051 
 H                     4.62847  -1.29781  -0.0002 
 H                    -4.64534  -1.25478  -0.00036 
 O                     4.83423   1.40713   0.0004 
 H                     5.58788   0.79792   0.00028 
 O                    -4.82598   1.45196   0.00023 
 H                    -5.58525   0.84977   0.00008 
 
                          Input orientation:                          
 ---------------------------------------------------------------------
 Center     Atomic      Atomic             Coordinates (Angstroms)
 Number     Number       Type             X           Y           Z
 ---------------------------------------------------------------------
      1          6           0        0.004302    1.468046    0.000341
      2          6           0        1.263679    0.689396    0.000187
      3          6           0       -1.262248    0.701118    0.000143
      4          8           0        0.010048    2.706366    0.000559
      5          6           0       -0.009379   -1.480132   -0.000308
      6          6           0       -1.264935   -0.705055   -0.000166
      7          8           0       -0.015136   -2.720816   -0.000633
      8          6           0        1.253316   -0.716741   -0.000123
      9          6           0        2.473872    1.382819    0.000359
     10          6           0       -2.483499   -1.394661   -0.000345
     11          6           0        2.465428   -1.417626   -0.000261
     12          6           0       -2.465953    1.405742    0.000272
     13          6           0        3.681548    0.661443    0.000219
     14          6           0        3.681183   -0.739782   -0.000092
     15          6           0       -3.680273    0.695605    0.000090
     16          6           0       -3.692912   -0.705562   -0.000218
     17          1           0        2.488111    2.484945    0.000602
     18          1           0       -2.472922   -2.498217   -0.000588
     19          1           0        2.444609   -2.521036   -0.000507
     20          1           0       -2.469964    2.507953    0.000513
     21          1           0        4.628471   -1.297813   -0.000202
     22          1           0       -4.645338   -1.254779   -0.000359
     23          8           0        4.834229    1.407129    0.000401
     24          1           0        5.587878    0.797916    0.000282
     25          8           0       -4.825983    1.451957    0.000232
     26          1           0       -5.585254    0.849765    0.000081
 ---------------------------------------------------------------------
                    Distance matrix (angstroms):
                    1          2          3          4          5
     1  C    0.000000
     2  C    1.480651   0.000000
     3  C    1.480651   2.525954   0.000000
     4  O    1.238333   2.374817   2.374817   0.000000
     5  C    2.948210   2.515458   2.515458   4.186543   0.000000
     6  C    2.516611   2.887626   1.406176   3.641892   1.475522
     7  O    4.188908   3.642104   3.642104   5.427241   1.240698
     8  C    2.516611   1.406176   2.887626   3.641892   1.475522
     9  C    2.471040   1.394777   3.797803   2.796820   3.789858
    10  C    3.792657   4.287731   2.425643   4.799604   2.475596
    11  C    3.792657   2.425643   4.287731   4.799604   2.475596
    12  C    2.471040   3.797803   1.394777   2.796821   3.789858
    13  C    3.764671   2.418031   4.943955   4.202573   4.267235
    14  C    4.288818   2.808358   5.149146   5.035193   3.764089
    15  C    3.764672   4.943955   2.418031   4.202574   4.267235
    16  C    4.288818   5.149146   2.808358   5.035193   3.764090
    17  H    2.683914   2.173299   4.152979   2.487936   4.686074
    18  H    4.676311   4.911524   3.420742   5.766526   2.665622
    19  H    4.676310   3.420742   4.911524   5.766526   2.665622
    20  H    2.683914   4.152979   2.173299   2.487936   4.686075
    21  H    5.388221   3.907791   6.220635   6.112551   4.641432
    22  H    5.388221   6.220634   3.907791   6.112552   4.641432
    23  O    4.830312   3.641973   6.137221   4.996073   5.638867
    24  H    5.623647   4.325561   6.850810   5.895284   6.043078
    25  O    4.830312   6.137221   3.641973   4.996073   5.638867
    26  H    5.623647   6.850810   4.325561   5.895284   6.043079
                    6          7          8          9         10
     6  C    0.000000
     7  O    2.371770   0.000000
     8  C    2.518279   2.371770   0.000000
     9  C    4.282278   4.799478   2.428561   0.000000
    10  C    1.400162   2.802053   3.797811   5.682422   0.000000
    11  C    3.797811   2.802053   1.400162   2.800458   4.948980
    12  C    2.428561   4.799478   4.282277   4.939878   2.800458
    13  C    5.131766   5.010505   2.792079   1.406721   6.498875
    14  C    4.946241   4.193719   2.427976   2.441932   6.199369
    15  C    2.792079   5.010505   5.131766   6.192395   2.408626
    16  C    2.427976   4.193719   4.946241   6.510803   1.391954
    17  H    4.925593   5.776349   3.431547   1.102218   6.306207
    18  H    2.162096   2.467845   4.130195   6.287544   1.103607
    19  H    4.130194   2.467845   2.162096   3.903965   5.055192
    20  H    3.431547   5.776349   4.925593   5.070250   3.902637
    21  H    5.923141   4.856751   3.424809   3.439199   7.112630
    22  H    3.424809   4.856751   5.923141   7.592106   2.166359
    23  O    6.454544   6.368381   4.163383   2.360483   7.835763
    24  H    7.015695   6.616287   4.591581   3.168461   8.363882
    25  O    4.163383   6.368381   6.454544   7.300183   3.686524
    26  H    4.591581   6.616288   7.015695   8.076735   3.828620
                   11         12         13         14         15
    11  C    0.000000
    12  C    5.682422   0.000000
    13  C    2.408626   6.192395   0.000000
    14  C    1.391954   6.510803   1.401225   0.000000
    15  C    6.498875   1.406722   7.361900   7.500091   0.000000
    16  C    6.199369   2.441932   7.500091   7.374174   1.401225
    17  H    3.902637   5.070250   2.179324   3.438355   6.422670
    18  H    5.055193   3.903965   6.918161   6.400399   3.414410
    19  H    1.103607   6.287544   3.414410   2.168406   6.918161
    20  H    6.306208   1.102218   6.422671   6.955889   2.179324
    21  H    2.166359   7.592106   2.176086   1.099433   8.544527
    22  H    7.112630   3.439199   8.544527   8.342432   2.176086
    23  O    3.686524   7.300183   1.372851   2.436953   8.544180
    24  H    3.828619   8.076735   1.911209   2.449490   9.268716
    25  O    7.835763   2.360483   8.544180   8.784964   1.372851
    26  H    8.363883   3.168461   9.268716   9.401782   1.911209
                   16         17         18         19         20
    16  C    0.000000
    17  H    6.955888   0.000000
    18  H    2.168406   7.031625   0.000000
    19  H    6.400399   5.006171   4.917583   0.000000
    20  H    3.438355   4.958128   5.006171   7.031625   0.000000
    21  H    8.342432   4.346309   7.202135   2.503104   8.054293
    22  H    1.099433   8.054292   2.503104   7.202135   4.346309
    23  O    8.784964   2.581852   8.285299   4.597909   7.386681
    24  H    9.401782   3.529111   8.708673   4.571170   8.237296
    25  O    2.436953   7.386680   4.597909   8.285299   2.581851
    26  H    2.449490   8.237295   4.571170   8.708674   3.529110
                   21         22         23         24         25
    21  H    0.000000
    22  H    9.273908   0.000000
    23  O    2.712756   9.846215   0.000000
    24  H    2.304896  10.437062   0.969085   0.000000
    25  O    9.846214   2.712757   9.660317  10.434380   0.000000
    26  H   10.437062   2.304897  10.434380  11.173252   0.969085
                   26
    26  H    0.000000
 Stoichiometry    C14H8O4
 Framework group  C1[X(C14H8O4)]
 Deg. of freedom    72
 Full point group                 C1      NOp   1
 Largest Abelian subgroup         C1      NOp   1
 Largest concise Abelian subgroup C1      NOp   1
                         Standard orientation:                         
 ---------------------------------------------------------------------
 Center     Atomic      Atomic             Coordinates (Angstroms)
 Number     Number       Type             X           Y           Z
 ---------------------------------------------------------------------
      1          6           0       -0.000000   -1.299564    0.000016
      2          6           0       -1.262977   -0.526767    0.000010
      3          6           0        1.262977   -0.526767    0.000010
      4          8           0       -0.000000   -2.537898   -0.000039
      5          6           0        0.000000    1.648645    0.000016
      6          6           0        1.259139    0.879403    0.000010
      7          8           0       -0.000000    2.889343   -0.000037
      8          6           0       -1.259139    0.879403    0.000009
      9          6           0       -2.469939   -1.225798    0.000007
     10          6           0        2.474490    1.574656    0.000006
     11          6           0       -2.474490    1.574656    0.000003
     12          6           0        2.469939   -1.225798    0.000005
     13          6           0       -3.680950   -0.510034    0.000003
     14          6           0       -3.687087    0.891177    0.000000
     15          6           0        3.680950   -0.510034    0.000002
     16          6           0        3.687087    0.891177    0.000003
     17          1           0       -2.479064   -2.327978    0.000007
     18          1           0        2.458792    2.678151    0.000005
     19          1           0       -2.458792    2.678151    0.000001
     20          1           0        2.479064   -2.327978    0.000004
     21          1           0       -4.636954    1.444807   -0.000004
     22          1           0        4.636954    1.444808    0.000000
     23          8           0       -4.830158   -1.261060    0.000001
     24          1           0       -5.586626   -0.655352    0.000001
     25          8           0        4.830158   -1.261060   -0.000001
     26          1           0        5.586626   -0.655352   -0.000006
 ---------------------------------------------------------------------
 Rotational constants (GHZ):      0.9778325      0.2662248      0.2092535
 Standard basis: VSTO-6G (5D, 7F)
 AO basis set in the form of general basis input (Overlap normalization):
      1 0
 S   6 1.00       0.000000000000
      0.7310560386D+02 -0.4151277819D-02
      0.1340682447D+02 -0.2067024148D-01
      0.3767606913D+01 -0.5150303337D-01
      0.5387761534D+00  0.3346271174D+00
      0.2445297546D+00  0.5621061301D+00
      0.1166148582D+00  0.1712994697D+00
 P   6 1.00       0.000000000000
      0.1549594249D+02  0.7924233646D-02
      0.4041026682D+01  0.5144104825D-01
      0.1445917850D+01  0.1898400060D+00
      0.6044212998D+00  0.4049863191D+00
      0.2763825918D+00  0.4012362861D+00
      0.1306639377D+00  0.1051855189D+00
 ****
      2 0
 S   6 1.00       0.000000000000
      0.7310560386D+02 -0.4151277819D-02
      0.1340682447D+02 -0.2067024148D-01
      0.3767606913D+01 -0.5150303337D-01
      0.5387761534D+00  0.3346271174D+00
      0.2445297546D+00  0.5621061301D+00
      0.1166148582D+00  0.1712994697D+00
 P   6 1.00       0.000000000000
      0.1549594249D+02  0.7924233646D-02
      0.4041026682D+01  0.5144104825D-01
      0.1445917850D+01  0.1898400060D+00
      0.6044212998D+00  0.4049863191D+00
      0.2763825918D+00  0.4012362861D+00
      0.1306639377D+00  0.1051855189D+00
 ****
      3 0
 S   6 1.00       0.000000000000
      0.7310560386D+02 -0.4151277819D-02
      0.1340682447D+02 -0.2067024148D-01
      0.3767606913D+01 -0.5150303337D-01
      0.5387761534D+00  0.3346271174D+00
      0.2445297546D+00  0.5621061301D+00
      0.1166148582D+00  0.1712994697D+00
 P   6 1.00       0.000000000000
      0.1549594249D+02  0.7924233646D-02
      0.4041026682D+01  0.5144104825D-01
      0.1445917850D+01  0.1898400060D+00
      0.6044212998D+00  0.4049863191D+00
      0.2763825918D+00  0.4012362861D+00
      0.1306639377D+00  0.1051855189D+00
 ****
      4 0
 S   6 1.00       0.000000000000
      0.1432869836D+03 -0.4151277819D-02
      0.2627737596D+02 -0.2067024148D-01
      0.7384509550D+01 -0.5150303337D-01
      0.1056001261D+01  0.3346271174D+00
      0.4792783190D+00  0.5621061301D+00
      0.2285651220D+00  0.1712994697D+00
 P   6 1.00       0.000000000000
      0.3037204728D+02  0.7924233646D-02
      0.7920412296D+01  0.5144104825D-01
      0.2833998986D+01  0.1898400060D+00
      0.1184665748D+01  0.4049863191D+00
      0.5417098800D+00  0.4012362861D+00
      0.2561013179D+00  0.1051855189D+00
 ****
      5 0
 S   6 1.00       0.000000000000
      0.7310560386D+02 -0.4151277819D-02
      0.1340682447D+02 -0.2067024148D-01
      0.3767606913D+01 -0.5150303337D-01
      0.5387761534D+00  0.3346271174D+00
      0.2445297546D+00  0.5621061301D+00
      0.1166148582D+00  0.1712994697D+00
 P   6 1.00       0.000000000000
      0.1549594249D+02  0.7924233646D-02
      0.4041026682D+01  0.5144104825D-01
      0.1445917850D+01  0.1898400060D+00
      0.6044212998D+00  0.4049863191D+00
      0.2763825918D+00  0.4012362861D+00
      0.1306639377D+00  0.1051855189D+00
 ****
      6 0
 S   6 1.00       0.000000000000
      0.7310560386D+02 -0.4151277819D-02
      0.1340682447D+02 -0.2067024148D-01
      0.3767606913D+01 -0.5150303337D-01
      0.5387761534D+00  0.3346271174D+00
      0.2445297546D+00  0.5621061301D+00
      0.1166148582D+00  0.1712994697D+00
 P   6 1.00       0.000000000000
      0.1549594249D+02  0.7924233646D-02
      0.4041026682D+01  0.5144104825D-01
      0.1445917850D+01  0.1898400060D+00
      0.6044212998D+00  0.4049863191D+00
      0.2763825918D+00  0.4012362861D+00
      0.1306639377D+00  0.1051855189D+00
 ****
      7 0
 S   6 1.00       0.000000000000
      0.1432869836D+03 -0.4151277819D-02
      0.2627737596D+02 -0.2067024148D-01
      0.7384509550D+01 -0.5150303337D-01
      0.1056001261D+01  0.3346271174D+00
      0.4792783190D+00  0.5621061301D+00
      0.2285651220D+00  0.1712994697D+00
 P   6 1.00       0.000000000000
      0.3037204728D+02  0.7924233646D-02
      0.7920412296D+01  0.5144104825D-01
      0.2833998986D+01  0.1898400060D+00
      0.1184665748D+01  0.4049863191D+00
      0.5417098800D+00  0.4012362861D+00
      0.2561013179D+00  0.1051855189D+00
 ****
      8 0
 S   6 1.00       0.000000000000
      0.7310560386D+02 -0.4151277819D-02
      0.1340682447D+02 -0.2067024148D-01
      0.3767606913D+01 -0.5150303337D-01
      0.5387761534D+00  0.3346271174D+00
      0.2445297546D+00  0.5621061301D+00
      0.1166148582D+00  0.1712994697D+00
 P   6 1.00       0.000000000000
      0.1549594249D+02  0.7924233646D-02
      0.4041026682D+01  0.5144104825D-01
      0.1445917850D+01  0.1898400060D+00
      0.6044212998D+00  0.4049863191D+00
      0.2763825918D+00  0.4012362861D+00
      0.1306639377D+00  0.1051855189D+00
 ****
      9 0
 S   6 1.00       0.000000000000
      0.7310560386D+02 -0.4151277819D-02
      0.1340682447D+02 -0.2067024148D-01
      0.3767606913D+01 -0.5150303337D-01
      0.5387761534D+00  0.3346271174D+00
      0.2445297546D+00  0.5621061301D+00
      0.1166148582D+00  0.1712994697D+00
 P   6 1.00       0.000000000000
      0.1549594249D+02  0.7924233646D-02
      0.4041026682D+01  0.5144104825D-01
      0.1445917850D+01  0.1898400060D+00
      0.6044212998D+00  0.4049863191D+00
      0.2763825918D+00  0.4012362861D+00
      0.1306639377D+00  0.1051855189D+00
 ****
     10 0
 S   6 1.00       0.000000000000
      0.7310560386D+02 -0.4151277819D-02
      0.1340682447D+02 -0.2067024148D-01
      0.3767606913D+01 -0.5150303337D-01
      0.5387761534D+00  0.3346271174D+00
      0.2445297546D+00  0.5621061301D+00
      0.1166148582D+00  0.1712994697D+00
 P   6 1.00       0.000000000000
      0.1549594249D+02  0.7924233646D-02
      0.4041026682D+01  0.5144104825D-01
      0.1445917850D+01  0.1898400060D+00
      0.6044212998D+00  0.4049863191D+00
      0.2763825918D+00  0.4012362861D+00
      0.1306639377D+00  0.1051855189D+00
 ****
     11 0
 S   6 1.00       0.000000000000
      0.7310560386D+02 -0.4151277819D-02
      0.1340682447D+02 -0.2067024148D-01
      0.3767606913D+01 -0.5150303337D-01
      0.5387761534D+00  0.3346271174D+00
      0.2445297546D+00  0.5621061301D+00
      0.1166148582D+00  0.1712994697D+00
 P   6 1.00       0.000000000000
      0.1549594249D+02  0.7924233646D-02
      0.4041026682D+01  0.5144104825D-01
      0.1445917850D+01  0.1898400060D+00
      0.6044212998D+00  0.4049863191D+00
      0.2763825918D+00  0.4012362861D+00
      0.1306639377D+00  0.1051855189D+00
 ****
     12 0
 S   6 1.00       0.000000000000
      0.7310560386D+02 -0.4151277819D-02
      0.1340682447D+02 -0.2067024148D-01
      0.3767606913D+01 -0.5150303337D-01
      0.5387761534D+00  0.3346271174D+00
      0.2445297546D+00  0.5621061301D+00
      0.1166148582D+00  0.1712994697D+00
 P   6 1.00       0.000000000000
      0.1549594249D+02  0.7924233646D-02
      0.4041026682D+01  0.5144104825D-01
      0.1445917850D+01  0.1898400060D+00
      0.6044212998D+00  0.4049863191D+00
      0.2763825918D+00  0.4012362861D+00
      0.1306639377D+00  0.1051855189D+00
 ****
     13 0
 S   6 1.00       0.000000000000
      0.7310560386D+02 -0.4151277819D-02
      0.1340682447D+02 -0.2067024148D-01
      0.3767606913D+01 -0.5150303337D-01
      0.5387761534D+00  0.3346271174D+00
      0.2445297546D+00  0.5621061301D+00
      0.1166148582D+00  0.1712994697D+00
 P   6 1.00       0.000000000000
      0.1549594249D+02  0.7924233646D-02
      0.4041026682D+01  0.5144104825D-01
      0.1445917850D+01  0.1898400060D+00
      0.6044212998D+00  0.4049863191D+00
      0.2763825918D+00  0.4012362861D+00
      0.1306639377D+00  0.1051855189D+00
 ****
     14 0
 S   6 1.00       0.000000000000
      0.7310560386D+02 -0.4151277819D-02
      0.1340682447D+02 -0.2067024148D-01
      0.3767606913D+01 -0.5150303337D-01
      0.5387761534D+00  0.3346271174D+00
      0.2445297546D+00  0.5621061301D+00
      0.1166148582D+00  0.1712994697D+00
 P   6 1.00       0.000000000000
      0.1549594249D+02  0.7924233646D-02
      0.4041026682D+01  0.5144104825D-01
      0.1445917850D+01  0.1898400060D+00
      0.6044212998D+00  0.4049863191D+00
      0.2763825918D+00  0.4012362861D+00
      0.1306639377D+00  0.1051855189D+00
 ****
     15 0
 S   6 1.00       0.000000000000
      0.7310560386D+02 -0.4151277819D-02
      0.1340682447D+02 -0.2067024148D-01
      0.3767606913D+01 -0.5150303337D-01
      0.5387761534D+00  0.3346271174D+00
      0.2445297546D+00  0.5621061301D+00
      0.1166148582D+00  0.1712994697D+00
 P   6 1.00       0.000000000000
      0.1549594249D+02  0.7924233646D-02
      0.4041026682D+01  0.5144104825D-01
      0.1445917850D+01  0.1898400060D+00
      0.6044212998D+00  0.4049863191D+00
      0.2763825918D+00  0.4012362861D+00
      0.1306639377D+00  0.1051855189D+00
 ****
     16 0
 S   6 1.00       0.000000000000
      0.7310560386D+02 -0.4151277819D-02
      0.1340682447D+02 -0.2067024148D-01
      0.3767606913D+01 -0.5150303337D-01
      0.5387761534D+00  0.3346271174D+00
      0.2445297546D+00  0.5621061301D+00
      0.1166148582D+00  0.1712994697D+00
 P   6 1.00       0.000000000000
      0.1549594249D+02  0.7924233646D-02
      0.4041026682D+01  0.5144104825D-01
      0.1445917850D+01  0.1898400060D+00
      0.6044212998D+00  0.4049863191D+00
      0.2763825918D+00  0.4012362861D+00
      0.1306639377D+00  0.1051855189D+00
 ****
     17 0
 S   6 1.00       0.000000000000
      0.3326836535D+02  0.9163596281D-02
      0.6099718369D+01  0.4936149294D-01
      0.1706481387D+01  0.1685383049D+00
      0.5862224134D+00  0.3705627997D+00
      0.2276473177D+00  0.4164915298D+00
      0.9375773694D-01  0.1303340841D+00
 ****
     18 0
 S   6 1.00       0.000000000000
      0.3326836535D+02  0.9163596281D-02
      0.6099718369D+01  0.4936149294D-01
      0.1706481387D+01  0.1685383049D+00
      0.5862224134D+00  0.3705627997D+00
      0.2276473177D+00  0.4164915298D+00
      0.9375773694D-01  0.1303340841D+00
 ****
     19 0
 S   6 1.00       0.000000000000
      0.3326836535D+02  0.9163596281D-02
      0.6099718369D+01  0.4936149294D-01
      0.1706481387D+01  0.1685383049D+00
      0.5862224134D+00  0.3705627997D+00
      0.2276473177D+00  0.4164915298D+00
      0.9375773694D-01  0.1303340841D+00
 ****
     20 0
 S   6 1.00       0.000000000000
      0.3326836535D+02  0.9163596281D-02
      0.6099718369D+01  0.4936149294D-01
      0.1706481387D+01  0.1685383049D+00
      0.5862224134D+00  0.3705627997D+00
      0.2276473177D+00  0.4164915298D+00
      0.9375773694D-01  0.1303340841D+00
 ****
     21 0
 S   6 1.00       0.000000000000
      0.3326836535D+02  0.9163596281D-02
      0.6099718369D+01  0.4936149294D-01
      0.1706481387D+01  0.1685383049D+00
      0.5862224134D+00  0.3705627997D+00
      0.2276473177D+00  0.4164915298D+00
      0.9375773694D-01  0.1303340841D+00
 ****
     22 0
 S   6 1.00       0.000000000000
      0.3326836535D+02  0.9163596281D-02
      0.6099718369D+01  0.4936149294D-01
      0.1706481387D+01  0.1685383049D+00
      0.5862224134D+00  0.3705627997D+00
      0.2276473177D+00  0.4164915298D+00
      0.9375773694D-01  0.1303340841D+00
 ****
     23 0
 S   6 1.00       0.000000000000
      0.1432869836D+03 -0.4151277819D-02
      0.2627737596D+02 -0.2067024148D-01
      0.7384509550D+01 -0.5150303337D-01
      0.1056001261D+01  0.3346271174D+00
      0.4792783190D+00  0.5621061301D+00
      0.2285651220D+00  0.1712994697D+00
 P   6 1.00       0.000000000000
      0.3037204728D+02  0.7924233646D-02
      0.7920412296D+01  0.5144104825D-01
      0.2833998986D+01  0.1898400060D+00
      0.1184665748D+01  0.4049863191D+00
      0.5417098800D+00  0.4012362861D+00
      0.2561013179D+00  0.1051855189D+00
 ****
     24 0
 S   6 1.00       0.000000000000
      0.3326836535D+02  0.9163596281D-02
      0.6099718369D+01  0.4936149294D-01
      0.1706481387D+01  0.1685383049D+00
      0.5862224134D+00  0.3705627997D+00
      0.2276473177D+00  0.4164915298D+00
      0.9375773694D-01  0.1303340841D+00
 ****
     25 0
 S   6 1.00       0.000000000000
      0.1432869836D+03 -0.4151277819D-02
      0.2627737596D+02 -0.2067024148D-01
      0.7384509550D+01 -0.5150303337D-01
      0.1056001261D+01  0.3346271174D+00
      0.4792783190D+00  0.5621061301D+00
      0.2285651220D+00  0.1712994697D+00
 P   6 1.00       0.000000000000
      0.3037204728D+02  0.7924233646D-02
      0.7920412296D+01  0.5144104825D-01
      0.2833998986D+01  0.1898400060D+00
      0.1184665748D+01  0.4049863191D+00
      0.5417098800D+00  0.4012362861D+00
      0.2561013179D+00  0.1051855189D+00
 ****
     26 0
 S   6 1.00       0.000000000000
      0.3326836535D+02  0.9163596281D-02
      0.6099718369D+01  0.4936149294D-01
      0.1706481387D+01  0.1685383049D+00
      0.5862224134D+00  0.3705627997D+00
      0.2276473177D+00  0.4164915298D+00
      0.9375773694D-01  0.1303340841D+00
 ****

 There are    80 symmetry adapted cartesian basis functions of A   symmetry.
 There are    80 symmetry adapted basis functions of A   symmetry.
    80 basis functions,   480 primitive gaussians,    80 cartesian basis functions
    44 alpha electrons       44 beta electrons
       nuclear repulsion energy       594.5055411194 Hartrees.
 Integral buffers will be    131072 words long.
 Regular integral format.
 Two-electron integral symmetry is turned off.
 Do NDO integrals.
 One-electron integrals computed using PRISM.
 Generate ZINDO/S integrals.
 NDO Nuclear repulsion=   460.265731471233 Hartrees.
 NBasis=    80 RedAO= F EigKep=  0.00D+00  NBF=    80
 NBsUse=    80 1.00D-04 EigRej=  0.00D+00 NBFU=    80
 DipDrv:  will hold  3 matrices at once.
 Simple Huckel Guess.
 Overlap will be assumed to be unity.
 Requested convergence on RMS density matrix=1.00D-08 within 128 cycles.
 Requested convergence on MAX density matrix=1.00D-06.
 Requested convergence on             energy=1.00D-06.
 No special actions if energy rises.
 SCF Done:  E(RZINDO/S) =  -132.234525859     A.U. after   14 cycles
            NFock= 14  Conv=0.57D-08     -V/T= 0.8814
 Range of M.O.s used for correlation:     1    80
 NBasis=    80 NAE=    44 NBE=    44 NFC=     0 NFV=     0
 NROrb=     80 NOA=    44 NOB=    44 NVA=    36 NVB=    36
 Orbital symmetries:
       Occupied  (A) (A) (A) (A) (A) (A) (A) (A) (A) (A) (A) (A)
                 (A) (A) (A) (A) (A) (A) (A) (A) (A) (A) (A) (A)
                 (A) (A) (A) (A) (A) (A) (A) (A) (A) (A) (A) (A)
                 (A) (A) (A) (A) (A) (A) (A) (A)
       Virtual   (A) (A) (A) (A) (A) (A) (A) (A) (A) (A) (A) (A)
                 (A) (A) (A) (A) (A) (A) (A) (A) (A) (A) (A) (A)
                 (A) (A) (A) (A) (A) (A) (A) (A) (A) (A) (A) (A)
    40 initial guesses have been made.
 Convergence on wavefunction:    0.001000000000000
 Iteration     1 Dimension    40 NMult     0 NNew     40
 CISAX will form    40 AO SS matrices at one time.
 New state      1 was old state      5
 New state      2 was old state      6
 New state      3 was old state      1
 New state      4 was old state      2
 New state      5 was old state      3
 New state      6 was old state      4
 New state      9 was old state     13
 New state     10 was old state      9
 Iteration     2 Dimension    80 NMult    40 NNew     40
 New state      9 was old state     10
 New state     10 was old state      9
 Iteration     3 Dimension    90 NMult    80 NNew     10
 Iteration     4 Dimension   100 NMult    90 NNew     10
 Iteration     5 Dimension   109 NMult   100 NNew      9
 Iteration     6 Dimension   112 NMult   109 NNew      3
 ***********************************************************************
 Excited states from <AA,BB:AA,BB> singles matrix:
 ***********************************************************************
 
 Ground to excited state transition densities written to RWF  633
 Ground to excited state transition electric dipole moments (Au):
       state          X           Y           Z        Dip. S.      Osc.
         1         0.0002      0.0000      0.0000      0.0000      0.0000
         2         0.0000      0.0000     -0.0000      0.0000      0.0000
         3        -1.0900     -0.0000      0.0000      1.1881      0.1042
         4         0.0000     -0.9246      0.0000      0.8550      0.0835
         5        -0.8522      0.0000      0.0000      0.7263      0.0717
         6         0.0000     -1.6980     -0.0000      2.8834      0.3110
         7        -3.2439      0.0000     -0.0000     10.5231      1.2534
         8        -0.0000     -0.9197     -0.0000      0.8458      0.1041
         9        -0.0000      0.8598     -0.0000      0.7392      0.0959
        10         0.2132      0.0000     -0.0000      0.0455      0.0059
 Ground to excited state transition velocity dipole moments (Au):
       state          X           Y           Z        Dip. S.      Osc.
         1        -0.0000     -0.0000     -0.0000      0.0000      0.0000
         2        -0.0000     -0.0000      0.0000      0.0000      0.0000
         3         0.0866      0.0000     -0.0000      0.0075      0.0380
         4        -0.0000      0.0321     -0.0000      0.0010      0.0047
         5         0.0732     -0.0000     -0.0000      0.0054      0.0241
         6        -0.0000      0.0720      0.0000      0.0052      0.0214
         7         0.3624     -0.0000     -0.0000      0.1313      0.4901
         8         0.0000      0.0589     -0.0000      0.0035      0.0125
         9         0.0000     -0.0576     -0.0000      0.0033      0.0114
        10        -0.0235     -0.0000      0.0000      0.0006      0.0019
 Ground to excited state transition magnetic dipole moments (Au):
       state          X           Y           Z
         1         0.0000     -0.9034     -0.0001
         2         0.0000     -0.3905      0.0001
         3        -0.0000     -0.0000     -1.0426
         4        -0.0000      0.0000      0.0000
         5         0.0000     -0.0000      0.6401
         6        -0.0000     -0.0000      0.0000
         7        -0.0000     -0.0000      0.2835
         8        -0.0000      0.0000     -0.0000
         9        -0.0000      0.0000      0.0000
        10        -0.0000      0.0000      0.6809
 Ground to excited state transition velocity quadrupole moments (Au):
       state          XX          YY          ZZ          XY          XZ          YZ
         1        -0.0000      0.0000     -0.0000      0.0000      0.0087      0.0000
         2        -0.0000     -0.0000     -0.0000     -0.0000      0.0083      0.0000
         3        -0.0000     -0.0000      0.0000     -0.1751      0.0000      0.0000
         4        -0.5773      0.0914     -0.0135     -0.0000      0.0000     -0.0000
         5        -0.0000     -0.0000      0.0000      0.0192      0.0000      0.0000
         6        -0.4196      0.1393      0.0085      0.0000     -0.0000     -0.0000
         7         0.0000      0.0000     -0.0000      0.3089     -0.0000     -0.0000
         8         1.7163     -0.3327      0.0405      0.0000      0.0000     -0.0000
         9        -0.7310      0.0650      0.0111      0.0000      0.0000     -0.0000
        10         0.0000     -0.0000      0.0000      0.2413      0.0000      0.0000
 <0|del|b> * <b|rxdel|0> + <0|del|b> * <b|delr+rdel|0>
 Rotatory Strengths (R) in cgs (10**-40 erg-esu-cm/Gauss)
       state          XX          YY          ZZ    R(velocity)    E-M Angle
         1         0.0008     -0.0000      0.0008      0.0005       90.00
         2         0.0001      0.0000      0.0001      0.0001       90.00
         3         0.0005      0.0004     -0.0001      0.0003       90.00
         4         0.0001     -0.0000      0.0002      0.0001       90.00
         5        -0.0002     -0.0000     -0.0000     -0.0001       90.00
         6        -0.0001      0.0000     -0.0001     -0.0001       90.00
         7        -0.0001     -0.0002     -0.0002     -0.0002       90.00
         8         0.0001     -0.0000      0.0002      0.0001       90.00
         9        -0.0002     -0.0000     -0.0002     -0.0001       90.00
        10         0.0002      0.0001      0.0000      0.0001       90.00
 1/2[<0|r|b>*<b|rxdel|0> + (<0|rxdel|b>*<b|r|0>)*]
 Rotatory Strengths (R) in cgs (10**-40 erg-esu-cm/Gauss)
       state          XX          YY          ZZ     R(length)
         1        -0.0000      0.0010      0.0000      0.0003
         2        -0.0000      0.0002      0.0000      0.0001
         3        -0.0001     -0.0000      0.0006      0.0002
         4         0.0000      0.0011     -0.0000      0.0004
         5         0.0002      0.0000     -0.0001      0.0000
         6         0.0000     -0.0010      0.0000     -0.0003
         7        -0.0007      0.0000      0.0001     -0.0002
         8        -0.0000      0.0008     -0.0000      0.0003
         9        -0.0000     -0.0009      0.0000     -0.0003
        10         0.0001     -0.0000      0.0005      0.0002
  1/2[<0|del|b>*<b|r|0> + (<0|r|b>*<b|del|0>)*] (Au)
       state          X           Y           Z        Dip. S.   Osc.(frdel)
         1        -0.0000     -0.0000     -0.0000      0.0000      0.0000
         2        -0.0000     -0.0000     -0.0000      0.0000      0.0000
         3        -0.0944     -0.0000     -0.0000      0.0944      0.0630
         4        -0.0000     -0.0297     -0.0000      0.0297      0.0198
         5        -0.0624     -0.0000     -0.0000      0.0624      0.0416
         6        -0.0000     -0.1223     -0.0000      0.1223      0.0815
         7        -1.1756     -0.0000      0.0000      1.1756      0.7838
         8        -0.0000     -0.0542      0.0000      0.0542      0.0361
         9        -0.0000     -0.0495      0.0000      0.0495      0.0330
        10        -0.0050     -0.0000     -0.0000      0.0050      0.0033

 Excitation energies and oscillator strengths:
 
 Excited State   1:      Singlet-A      2.6225 eV  472.78 nm  f=0.0000  <S**2>=0.000
      39 -> 45        -0.33430
      39 -> 46         0.26963
      39 -> 49        -0.20322
      39 -> 50        -0.13051
      40 -> 45         0.47108
      40 -> 49         0.13462
 This state for optimization and/or second-order correction.
 Total Energy, E(CIS) =  -132.138151692    
 Copying the excited state density for this state as the 1-particle RhoCI density.
 
 Excited State   2:      Singlet-A      2.7031 eV  458.68 nm  f=0.0000  <S**2>=0.000
      39 -> 45         0.45554
      39 -> 50        -0.11447
      40 -> 45         0.32104
      40 -> 46         0.29796
      40 -> 50        -0.24289
 
 Excited State   3:      Singlet-A      3.5796 eV  346.37 nm  f=0.1042  <S**2>=0.000
      43 -> 47         0.13245
      44 -> 45         0.67288
 
 Excited State   4:      Singlet-A      3.9884 eV  310.86 nm  f=0.0835  <S**2>=0.000
      41 -> 45        -0.29486
      41 -> 46        -0.11546
      42 -> 47         0.12285
      42 -> 48        -0.13822
      43 -> 45         0.53210
      43 -> 46        -0.13047
      44 -> 47         0.17030
      44 -> 48         0.14970
 
 Excited State   5:      Singlet-A      4.0315 eV  307.54 nm  f=0.0717  <S**2>=0.000
      41 -> 47        -0.16108
      42 -> 45         0.58117
      43 -> 47         0.10592
      43 -> 48         0.15336
      44 -> 46        -0.27515
 
 Excited State   6:      Singlet-A      4.4027 eV  281.61 nm  f=0.3110  <S**2>=0.000
      41 -> 45         0.44833
      42 -> 47        -0.14229
      43 -> 45         0.37894
      43 -> 46         0.25591
      44 -> 48        -0.21458
 
 Excited State   7:      Singlet-A      4.8618 eV  255.02 nm  f=1.2534  <S**2>=0.000
      42 -> 45         0.35634
      43 -> 48        -0.24371
      44 -> 46         0.51568
 
 Excited State   8:      Singlet-A      5.0222 eV  246.87 nm  f=0.1041  <S**2>=0.000
      41 -> 45         0.40187
      41 -> 46        -0.20419
      42 -> 48        -0.12594
      43 -> 45        -0.10260
      43 -> 46        -0.35648
      44 -> 47         0.20204
      44 -> 48         0.23687
 
 Excited State   9:      Singlet-A      5.2939 eV  234.20 nm  f=0.0959  <S**2>=0.000
      41 -> 45        -0.13851
      41 -> 46        -0.27311
      42 -> 48        -0.21538
      43 -> 45        -0.20701
      43 -> 46         0.27544
      43 -> 49        -0.13885
      44 -> 47         0.40766
      44 -> 48        -0.16782
 
 Excited State  10:      Singlet-A      5.3052 eV  233.70 nm  f=0.0059  <S**2>=0.000
      41 -> 48         0.25636
      42 -> 46         0.43768
      43 -> 47         0.33557
      43 -> 48        -0.15393
      44 -> 45        -0.14869
      44 -> 46         0.13676
      44 -> 49        -0.18150
      44 -> 50         0.10601
 SavETr:  write IOETrn=   770 NScale= 10 NData=  16 NLR=1 NState=   10 LETran=     190.

 **********************************************************************

            Population analysis using the SCF density.

 **********************************************************************

 Orbital symmetries:
       Occupied  (A) (A) (A) (A) (A) (A) (A) (A) (A) (A) (A) (A)
                 (A) (A) (A) (A) (A) (A) (A) (A) (A) (A) (A) (A)
                 (A) (A) (A) (A) (A) (A) (A) (A) (A) (A) (A) (A)
                 (A) (A) (A) (A) (A) (A) (A) (A)
       Virtual   (A) (A) (A) (A) (A) (A) (A) (A) (A) (A) (A) (A)
                 (A) (A) (A) (A) (A) (A) (A) (A) (A) (A) (A) (A)
                 (A) (A) (A) (A) (A) (A) (A) (A) (A) (A) (A) (A)
 The electronic state is 1-A.
 Alpha  occ. eigenvalues --   -1.72877  -1.68277  -1.63768  -1.59466  -1.54560
 Alpha  occ. eigenvalues --   -1.49441  -1.33741  -1.26077  -1.19222  -1.14228
 Alpha  occ. eigenvalues --   -1.02400  -0.99522  -0.95339  -0.94256  -0.90471
 Alpha  occ. eigenvalues --   -0.82523  -0.79593  -0.74519  -0.71334  -0.66829
 Alpha  occ. eigenvalues --   -0.66418  -0.61301  -0.60297  -0.59689  -0.59372
 Alpha  occ. eigenvalues --   -0.57879  -0.57485  -0.55849  -0.53833  -0.53445
 Alpha  occ. eigenvalues --   -0.53190  -0.51570  -0.49684  -0.48529  -0.47187
 Alpha  occ. eigenvalues --   -0.46724  -0.46342  -0.43625  -0.37585  -0.36660
 Alpha  occ. eigenvalues --   -0.35717  -0.35419  -0.33819  -0.32955
 Alpha virt. eigenvalues --   -0.06326  -0.01680   0.00227   0.00789   0.04844
 Alpha virt. eigenvalues --    0.04948   0.06013   0.08379   0.08863   0.09637
 Alpha virt. eigenvalues --    0.09950   0.10860   0.11037   0.12762   0.13052
 Alpha virt. eigenvalues --    0.17746   0.18751   0.19405   0.19980   0.22794
 Alpha virt. eigenvalues --    0.23718   0.23950   0.25122   0.29188   0.31173
 Alpha virt. eigenvalues --    0.33563   0.34719   0.37774   0.40221   0.41685
 Alpha virt. eigenvalues --    0.42133   0.43078   0.44397   0.46334   0.49141
 Alpha virt. eigenvalues --    0.49795
     Molecular Orbital Coefficients:
                           1         2         3         4         5
                           O         O         O         O         O
     Eigenvalues --    -1.72877  -1.68277  -1.63768  -1.59466  -1.54560
   1 1   C  1S          0.27387  -0.00000  -0.19754   0.38638   0.00000
   2        2PX        -0.00000  -0.04602  -0.00000  -0.00000   0.08711
   3        2PY        -0.00009  -0.00000   0.01971  -0.18738  -0.00000
   4        2PZ        -0.00000   0.00000   0.00000  -0.00001  -0.00000
   5 2   C  1S          0.28069   0.13827  -0.11995   0.12825  -0.22371
   6        2PX         0.00317  -0.06609  -0.05953   0.04372   0.08609
   7        2PY         0.02744   0.02197  -0.00566  -0.10421  -0.04737
   8        2PZ        -0.00000  -0.00000   0.00000  -0.00000   0.00000
   9 3   C  1S          0.28069  -0.13827  -0.11995   0.12825   0.22371
  10        2PX        -0.00317  -0.06609   0.05953  -0.04372   0.08609
  11        2PY         0.02744  -0.02197  -0.00566  -0.10421   0.04737
  12        2PZ        -0.00000   0.00000   0.00000  -0.00000  -0.00000
  13 4   O  1S          0.20009  -0.00000  -0.17181   0.49746   0.00000
  14        2PX        -0.00000  -0.01087  -0.00000  -0.00000   0.01970
  15        2PY         0.08148  -0.00000  -0.06890   0.18718   0.00000
  16        2PZ         0.00000   0.00000  -0.00000   0.00001  -0.00000
  17 5   C  1S          0.26642  -0.00000  -0.25073  -0.33779  -0.00000
  18        2PX        -0.00000  -0.04336  -0.00000   0.00000   0.09812
  19        2PY        -0.00376  -0.00000  -0.04302  -0.16660  -0.00000
  20        2PZ        -0.00000  -0.00000   0.00000   0.00001   0.00000
  21 6   C  1S          0.27575  -0.13040  -0.14706  -0.12088   0.24124
  22        2PX        -0.00460  -0.06054   0.05635   0.02513   0.09791
  23        2PY        -0.03026   0.02613  -0.01384  -0.09567  -0.03488
  24        2PZ        -0.00000   0.00000   0.00000   0.00000  -0.00000
  25 7   O  1S          0.19024  -0.00000  -0.23598  -0.43606  -0.00000
  26        2PX         0.00000  -0.00939  -0.00000  -0.00000   0.02474
  27        2PY        -0.07786   0.00000   0.09288   0.16413   0.00000
  28        2PZ         0.00000  -0.00000  -0.00000  -0.00001   0.00000
  29 8   C  1S          0.27575   0.13040  -0.14706  -0.12088  -0.24124
  30        2PX         0.00460  -0.06054  -0.05635  -0.02513   0.09791
  31        2PY        -0.03026  -0.02613  -0.01384  -0.09567   0.03488
  32        2PZ        -0.00000  -0.00000   0.00000   0.00000   0.00000
  33 9   C  1S          0.20513   0.20351   0.04426   0.08406  -0.15317
  34        2PX         0.01295  -0.04648  -0.09275   0.06104  -0.06954
  35        2PY         0.06543   0.06617   0.00672  -0.01440  -0.09072
  36        2PZ        -0.00000  -0.00000  -0.00000  -0.00000  -0.00000
  37 10  C  1S          0.18303  -0.15072  -0.03952  -0.10264   0.24656
  38        2PX        -0.02862  -0.00808   0.05095   0.04570  -0.01899
  39        2PY        -0.06526   0.06599  -0.00795  -0.00363  -0.09078
  40        2PZ        -0.00000  -0.00000   0.00000   0.00000   0.00000
  41 11  C  1S          0.18303   0.15072  -0.03952  -0.10264  -0.24656
  42        2PX         0.02862  -0.00808  -0.05095  -0.04570  -0.01899
  43        2PY        -0.06526  -0.06599  -0.00795  -0.00363   0.09078
  44        2PZ         0.00000   0.00000   0.00000   0.00000  -0.00000
  45 12  C  1S          0.20513  -0.20351   0.04426   0.08406   0.15317
  46        2PX        -0.01295  -0.04648   0.09275  -0.06104  -0.06954
  47        2PY         0.06543  -0.06617   0.00672  -0.01440   0.09072
  48        2PZ        -0.00000   0.00000  -0.00000  -0.00000   0.00000
  49 13  C  1S          0.22563   0.34075   0.25285  -0.01358   0.01624
  50        2PX         0.01089  -0.05012  -0.12634   0.01803  -0.20039
  51        2PY         0.00316  -0.02300  -0.05942  -0.01141  -0.10828
  52        2PZ        -0.00000  -0.00000  -0.00000   0.00000  -0.00000
  53 14  C  1S          0.16905   0.21422   0.09616  -0.03881  -0.14283
  54        2PX         0.04785   0.02933  -0.03621  -0.01331  -0.12108
  55        2PY        -0.04819  -0.07752  -0.06422  -0.00417  -0.01558
  56        2PZ         0.00000   0.00000   0.00000  -0.00000  -0.00000
  57 15  C  1S          0.22563  -0.34075   0.25285  -0.01358  -0.01624
  58        2PX        -0.01089  -0.05012   0.12634  -0.01803  -0.20039
  59        2PY         0.00316   0.02300  -0.05942  -0.01141   0.10828
  60        2PZ         0.00000   0.00000  -0.00000   0.00000   0.00000
  61 16  C  1S          0.16905  -0.21422   0.09616  -0.03881   0.14283
  62        2PX        -0.04785   0.02933   0.03621   0.01331  -0.12108
  63        2PY        -0.04819   0.07752  -0.06422  -0.00417   0.01558
  64        2PZ         0.00000  -0.00000  -0.00000   0.00000   0.00000
  65 17  H  1S          0.06663   0.06357   0.01597   0.05318  -0.02660
  66 18  H  1S          0.05643  -0.03821  -0.02623  -0.05692   0.07110
  67 19  H  1S          0.05643   0.03821  -0.02623  -0.05692  -0.07110
  68 20  H  1S          0.06663  -0.06358   0.01597   0.05318   0.02660
  69 21  H  1S          0.04853   0.07142   0.04706  -0.01390  -0.01750
  70 22  H  1S          0.04853  -0.07142   0.04706  -0.01390   0.01750
  71 23  O  1S          0.19160   0.39260   0.43661  -0.03000   0.36253
  72        2PX         0.02884   0.05180   0.04870  -0.00098   0.02293
  73        2PY         0.04815   0.09813   0.10764  -0.00950   0.08405
  74        2PZ         0.00000   0.00000   0.00000  -0.00000   0.00000
  75 24  H  1S          0.08269   0.16888   0.18713  -0.01504   0.15407
  76 25  O  1S          0.19160  -0.39260   0.43661  -0.03000  -0.36253
  77        2PX        -0.02884   0.05180  -0.04870   0.00098   0.02293
  78        2PY         0.04815  -0.09813   0.10764  -0.00950  -0.08405
  79        2PZ        -0.00000   0.00000  -0.00000   0.00000   0.00000
  80 26  H  1S          0.08269  -0.16888   0.18713  -0.01504  -0.15407
                           6         7         8         9        10
                           O         O         O         O         O
     Eigenvalues --    -1.49441  -1.33741  -1.26077  -1.19222  -1.14228
   1 1   C  1S          0.15866   0.12537  -0.00000  -0.04318  -0.00000
   2        2PX        -0.00000   0.00000  -0.22024   0.00000   0.09388
   3        2PY        -0.19856   0.29553   0.00000   0.08213  -0.00000
   4        2PZ        -0.00001   0.00001   0.00000   0.00000   0.00000
   5 2   C  1S         -0.13411   0.19490   0.25702   0.12889  -0.14283
   6        2PX         0.08235   0.18417  -0.06756  -0.14108  -0.03997
   7        2PY        -0.09914   0.08754  -0.12393  -0.09945  -0.07319
   8        2PZ        -0.00000   0.00000  -0.00000   0.00000  -0.00000
   9 3   C  1S         -0.13411   0.19490  -0.25702   0.12889   0.14283
  10        2PX        -0.08235  -0.18417  -0.06756   0.14108  -0.03997
  11        2PY        -0.09914   0.08754   0.12393  -0.09945   0.07319
  12        2PZ        -0.00000   0.00000   0.00000   0.00000   0.00000
  13 4   O  1S          0.35871  -0.26103  -0.00000  -0.19290   0.00000
  14        2PX         0.00000  -0.00000  -0.08636  -0.00000   0.02415
  15        2PY         0.12279  -0.06121  -0.00000  -0.03916  -0.00000
  16        2PZ         0.00001  -0.00000   0.00000  -0.00000   0.00000
  17 5   C  1S          0.20145   0.14605   0.00000  -0.05491   0.00000
  18        2PX        -0.00000   0.00000   0.12051  -0.00000   0.30176
  19        2PY         0.22247  -0.26488   0.00000   0.18250   0.00000
  20        2PZ        -0.00001   0.00000   0.00000  -0.00000   0.00000
  21 6   C  1S         -0.12835   0.17150   0.09972  -0.13951   0.32533
  22        2PX        -0.09605  -0.20720   0.05033   0.00905  -0.00968
  23        2PY         0.10494  -0.10198   0.13926  -0.07639   0.06442
  24        2PZ        -0.00000   0.00000  -0.00000  -0.00000   0.00000
  25 7   O  1S          0.41915  -0.20099   0.00000   0.23478  -0.00000
  26        2PX         0.00000  -0.00000   0.05633  -0.00000   0.11122
  27        2PY        -0.14526   0.04362  -0.00000  -0.04013   0.00000
  28        2PZ         0.00001  -0.00000   0.00000   0.00000   0.00000
  29 8   C  1S         -0.12835   0.17150  -0.09972  -0.13951  -0.32533
  30        2PX         0.09605   0.20720   0.05033  -0.00905  -0.00968
  31        2PY         0.10494  -0.10198  -0.13926  -0.07639  -0.06442
  32        2PZ        -0.00000   0.00000   0.00000  -0.00000  -0.00000
  33 9   C  1S         -0.10297  -0.07503   0.33382   0.36177   0.05823
  34        2PX        -0.00665   0.03767   0.07418  -0.01433  -0.08815
  35        2PY        -0.09651  -0.03496   0.00115   0.02626   0.03636
  36        2PZ        -0.00000   0.00000   0.00000   0.00000  -0.00000
  37 10  C  1S         -0.15723  -0.19001   0.29143  -0.24364   0.07989
  38        2PX        -0.03716  -0.08469   0.01691  -0.02885  -0.24541
  39        2PY         0.09838   0.03716   0.00752  -0.01589   0.04476
  40        2PZ        -0.00000   0.00000  -0.00000  -0.00000   0.00000
  41 11  C  1S         -0.15723  -0.19001  -0.29143  -0.24364  -0.07989
  42        2PX         0.03716   0.08469   0.01691   0.02885  -0.24541
  43        2PY         0.09838   0.03716  -0.00752  -0.01589  -0.04476
  44        2PZ        -0.00000   0.00000   0.00000  -0.00000  -0.00000
  45 12  C  1S         -0.10297  -0.07503  -0.33382   0.36177  -0.05823
  46        2PX         0.00665  -0.03767   0.07418   0.01433  -0.08815
  47        2PY        -0.09651  -0.03496  -0.00115   0.02626  -0.03636
  48        2PZ        -0.00000   0.00000  -0.00000   0.00000   0.00000
  49 13  C  1S         -0.05087  -0.10679   0.04919   0.12612   0.19642
  50        2PX        -0.14477  -0.09876   0.09595   0.14737   0.07944
  51        2PY        -0.09053  -0.09518  -0.12135  -0.12413   0.13476
  52        2PZ        -0.00000  -0.00000   0.00000   0.00000  -0.00000
  53 14  C  1S         -0.15666  -0.23792  -0.22111  -0.18316   0.30835
  54        2PX        -0.09401  -0.07454  -0.03375  -0.00670  -0.01470
  55        2PY         0.00856  -0.00129  -0.06838  -0.09321  -0.05319
  56        2PZ        -0.00000  -0.00000  -0.00000   0.00000  -0.00000
  57 15  C  1S         -0.05087  -0.10679  -0.04919   0.12612  -0.19643
  58        2PX         0.14477   0.09876   0.09595  -0.14737   0.07944
  59        2PY        -0.09053  -0.09518   0.12135  -0.12413  -0.13476
  60        2PZ        -0.00000  -0.00000  -0.00000   0.00000  -0.00000
  61 16  C  1S         -0.15666  -0.23792   0.22111  -0.18316  -0.30835
  62        2PX         0.09401   0.07454  -0.03375   0.00670  -0.01470
  63        2PY         0.00856  -0.00129   0.06838  -0.09321   0.05319
  64        2PZ        -0.00000  -0.00000   0.00000  -0.00000   0.00000
  65 17  H  1S          0.00537  -0.02228   0.15730   0.15292   0.00652
  66 18  H  1S         -0.01755  -0.07388   0.14162  -0.11779   0.06628
  67 19  H  1S         -0.01755  -0.07388  -0.14162  -0.11779  -0.06628
  68 20  H  1S          0.00537  -0.02228  -0.15730   0.15292  -0.00652
  69 21  H  1S         -0.03008  -0.07888  -0.10911  -0.11202   0.13864
  70 22  H  1S         -0.03008  -0.07888   0.10911  -0.11202  -0.13864
  71 23  O  1S          0.21949   0.14727  -0.02285  -0.07155  -0.17992
  72        2PX         0.00782  -0.00979   0.04465   0.08291   0.04894
  73        2PY         0.04693   0.02207  -0.02972  -0.04272   0.00158
  74        2PZ         0.00000   0.00000   0.00000   0.00000  -0.00000
  75 24  H  1S          0.09201   0.05975  -0.04405  -0.08282  -0.07378
  76 25  O  1S          0.21949   0.14727   0.02285  -0.07155   0.17992
  77        2PX        -0.00782   0.00979   0.04465  -0.08291   0.04894
  78        2PY         0.04693   0.02207   0.02972  -0.04272  -0.00158
  79        2PZ        -0.00000  -0.00000  -0.00000   0.00000  -0.00000
  80 26  H  1S          0.09201   0.05975   0.04405  -0.08282   0.07378
                          11        12        13        14        15
                           O         O         O         O         O
     Eigenvalues --    -1.02400  -0.99522  -0.95339  -0.94256  -0.90471
   1 1   C  1S          0.24315   0.00000  -0.08069   0.00000   0.12607
   2        2PX         0.00000   0.30738   0.00000   0.13626   0.00000
   3        2PY         0.23659  -0.00000  -0.08557  -0.00000   0.11720
   4        2PZ         0.00000  -0.00000  -0.00000  -0.00000   0.00000
   5 2   C  1S          0.14341  -0.23586  -0.14517   0.07358  -0.05923
   6        2PX         0.15739  -0.06022   0.05897  -0.04345   0.14234
   7        2PY        -0.09640   0.10450   0.11355   0.23580  -0.14377
   8        2PZ         0.00000  -0.00000  -0.00000  -0.00000   0.00000
   9 3   C  1S          0.14341   0.23586  -0.14517  -0.07358  -0.05923
  10        2PX        -0.15739  -0.06022  -0.05897  -0.04345  -0.14234
  11        2PY        -0.09640  -0.10450   0.11355  -0.23580  -0.14377
  12        2PZ         0.00000   0.00000  -0.00000  -0.00000   0.00000
  13 4   O  1S         -0.22249   0.00000   0.18480   0.00000  -0.15757
  14        2PX         0.00000   0.12390   0.00000   0.11724   0.00000
  15        2PY         0.02130  -0.00000  -0.02390   0.00000   0.02908
  16        2PZ        -0.00000  -0.00000  -0.00000  -0.00000   0.00000
  17 5   C  1S         -0.09808   0.00000   0.23974  -0.00000   0.08116
  18        2PX         0.00000  -0.11752   0.00000   0.03789  -0.00000
  19        2PY         0.14501  -0.00000  -0.17379   0.00000  -0.08778
  20        2PZ        -0.00001  -0.00000   0.00000   0.00000   0.00000
  21 6   C  1S         -0.20582  -0.05957   0.05328  -0.13683  -0.07824
  22        2PX        -0.07420  -0.01755  -0.21473  -0.02830  -0.11789
  23        2PY        -0.13756  -0.11909   0.01641   0.18697   0.13037
  24        2PZ        -0.00000   0.00000   0.00000  -0.00000   0.00000
  25 7   O  1S          0.24819  -0.00000  -0.10299   0.00000  -0.12742
  26        2PX         0.00000  -0.05963   0.00000   0.07436  -0.00000
  27        2PY         0.00466  -0.00000  -0.03607   0.00000  -0.01779
  28        2PZ         0.00000  -0.00000  -0.00000   0.00000   0.00000
  29 8   C  1S         -0.20582   0.05957   0.05328   0.13683  -0.07824
  30        2PX         0.07420  -0.01755   0.21473  -0.02830   0.11789
  31        2PY        -0.13756   0.11909   0.01641  -0.18697   0.13037
  32        2PZ        -0.00000  -0.00000   0.00000   0.00000   0.00000
  33 9   C  1S         -0.08791   0.11261  -0.04806  -0.18289   0.13670
  34        2PX         0.09241  -0.28649  -0.19522  -0.01323  -0.09061
  35        2PY         0.01214   0.01577   0.02716   0.20123  -0.19631
  36        2PZ         0.00000  -0.00000  -0.00000  -0.00000   0.00000
  37 10  C  1S         -0.12421  -0.00291  -0.21533   0.22072   0.15701
  38        2PX         0.20397   0.13199   0.01494   0.07410   0.09469
  39        2PY         0.00313   0.00635  -0.05169   0.20362   0.20245
  40        2PZ        -0.00000  -0.00000  -0.00000  -0.00000   0.00000
  41 11  C  1S         -0.12421   0.00291  -0.21533  -0.22072   0.15701
  42        2PX        -0.20397   0.13199  -0.01494   0.07410  -0.09469
  43        2PY         0.00313  -0.00635  -0.05169  -0.20362   0.20245
  44        2PZ        -0.00000   0.00000   0.00000   0.00000  -0.00000
  45 12  C  1S         -0.08791  -0.11261  -0.04806   0.18289   0.13670
  46        2PX        -0.09241  -0.28649   0.19522  -0.01323   0.09061
  47        2PY         0.01214  -0.01577   0.02716  -0.20123  -0.19631
  48        2PZ         0.00000   0.00000  -0.00000  -0.00000   0.00000
  49 13  C  1S          0.01792   0.21562   0.26914   0.06428   0.02769
  50        2PX        -0.06094   0.10882   0.00350   0.01921  -0.04495
  51        2PY         0.18858  -0.17244   0.06795   0.15597  -0.18423
  52        2PZ        -0.00000   0.00000  -0.00000  -0.00000   0.00000
  53 14  C  1S          0.26946  -0.15250   0.12426  -0.02791   0.05714
  54        2PX        -0.10341   0.06090  -0.10709   0.00261  -0.04299
  55        2PY        -0.00796  -0.09218  -0.17486  -0.20961   0.18744
  56        2PZ        -0.00000   0.00000  -0.00000   0.00000  -0.00000
  57 15  C  1S          0.01792  -0.21562   0.26914  -0.06428   0.02769
  58        2PX         0.06094   0.10882  -0.00350   0.01921   0.04495
  59        2PY         0.18858   0.17244   0.06795  -0.15597  -0.18423
  60        2PZ        -0.00000  -0.00000  -0.00000  -0.00000   0.00000
  61 16  C  1S          0.26946   0.15250   0.12426   0.02791   0.05714
  62        2PX         0.10341   0.06090   0.10709   0.00261   0.04299
  63        2PY        -0.00796   0.09218  -0.17486   0.20961   0.18744
  64        2PZ        -0.00000  -0.00000  -0.00000  -0.00000   0.00000
  65 17  H  1S         -0.05647   0.04381  -0.03762  -0.21476   0.18586
  66 18  H  1S         -0.05423  -0.00072  -0.13881   0.23353   0.19973
  67 19  H  1S         -0.05423   0.00072  -0.13881  -0.23353   0.19973
  68 20  H  1S         -0.05647  -0.04381  -0.03762   0.21476   0.18586
  69 21  H  1S          0.18366  -0.14019   0.05868  -0.07826   0.10670
  70 22  H  1S          0.18366   0.14019   0.05868   0.07826   0.10670
  71 23  O  1S         -0.07248  -0.08052  -0.18332  -0.00865  -0.04824
  72        2PX        -0.06439   0.23262   0.19323  -0.08534   0.22085
  73        2PY         0.05310  -0.05231   0.03726   0.04771  -0.04324
  74        2PZ        -0.00000   0.00000   0.00000  -0.00000   0.00000
  75 24  H  1S          0.03765  -0.16513  -0.13354   0.05681  -0.14024
  76 25  O  1S         -0.07248   0.08052  -0.18332   0.00865  -0.04824
  77        2PX         0.06439   0.23262  -0.19323  -0.08534  -0.22085
  78        2PY         0.05310   0.05231   0.03726  -0.04771  -0.04324
  79        2PZ        -0.00000  -0.00000   0.00000   0.00000   0.00000
  80 26  H  1S          0.03765   0.16513  -0.13354  -0.05681  -0.14024
                          16        17        18        19        20
                           O         O         O         O         O
     Eigenvalues --    -0.82523  -0.79593  -0.74519  -0.71334  -0.66829
   1 1   C  1S          0.00000   0.18708  -0.00000  -0.21304   0.21756
   2        2PX         0.19350   0.00000  -0.10431   0.00000  -0.00000
   3        2PY         0.00000   0.09616  -0.00000   0.01548   0.03630
   4        2PZ        -0.00000  -0.00000  -0.00000  -0.00000  -0.00000
   5 2   C  1S         -0.06366   0.03823   0.15589   0.01866  -0.12064
   6        2PX        -0.13507   0.17749   0.10168  -0.01470   0.16981
   7        2PY         0.04264   0.09185   0.14248   0.21836  -0.05733
   8        2PZ        -0.00000  -0.00000   0.00000  -0.00000   0.00000
   9 3   C  1S          0.06366   0.03823  -0.15589   0.01866  -0.12064
  10        2PX        -0.13507  -0.17749   0.10168   0.01470  -0.16981
  11        2PY        -0.04264   0.09185  -0.14248   0.21836  -0.05733
  12        2PZ         0.00000   0.00000  -0.00000  -0.00000   0.00000
  13 4   O  1S         -0.00000  -0.02027   0.00000   0.29501  -0.13598
  14        2PX         0.09362   0.00000   0.00475  -0.00000  -0.00000
  15        2PY         0.00000   0.03553   0.00000  -0.25615   0.16632
  16        2PZ        -0.00000  -0.00000  -0.00000  -0.00001   0.00001
  17 5   C  1S         -0.00000  -0.27212   0.00000  -0.04486   0.13316
  18        2PX         0.30276  -0.00000   0.19607   0.00000   0.00000
  19        2PY         0.00000   0.12875   0.00000  -0.06880  -0.02143
  20        2PZ         0.00000  -0.00000   0.00000  -0.00000  -0.00000
  21 6   C  1S          0.12059  -0.00850  -0.02303  -0.00219  -0.09567
  22        2PX        -0.17124   0.17907  -0.03247  -0.12764  -0.09543
  23        2PY         0.08415  -0.11258   0.23639  -0.23450   0.07246
  24        2PZ         0.00000  -0.00000  -0.00000  -0.00000  -0.00000
  25 7   O  1S         -0.00000   0.21069  -0.00000   0.21796  -0.08897
  26        2PX         0.14315  -0.00000   0.15206   0.00000   0.00000
  27        2PY         0.00000   0.12045   0.00000   0.17137  -0.10773
  28        2PZ         0.00000  -0.00000   0.00000  -0.00001   0.00000
  29 8   C  1S         -0.12059  -0.00850   0.02303  -0.00219  -0.09567
  30        2PX        -0.17124  -0.17907  -0.03247   0.12764   0.09543
  31        2PY        -0.08415  -0.11258  -0.23639  -0.23450   0.07246
  32        2PZ        -0.00000  -0.00000   0.00000  -0.00000   0.00000
  33 9   C  1S          0.06619  -0.19642  -0.15115   0.03093  -0.00547
  34        2PX        -0.02671  -0.14072  -0.01983  -0.09874  -0.23545
  35        2PY         0.07102   0.09954   0.03735  -0.01398   0.05901
  36        2PZ        -0.00000  -0.00000  -0.00000  -0.00000  -0.00000
  37 10  C  1S         -0.15310   0.10038  -0.06101  -0.04078   0.03056
  38        2PX        -0.11443  -0.03175  -0.14137   0.25057   0.15653
  39        2PY         0.06604  -0.03359   0.00487  -0.02706  -0.05399
  40        2PZ         0.00000  -0.00000   0.00000  -0.00000  -0.00000
  41 11  C  1S          0.15310   0.10038   0.06101  -0.04078   0.03056
  42        2PX        -0.11443   0.03175  -0.14137  -0.25057  -0.15653
  43        2PY        -0.06604  -0.03359  -0.00487  -0.02706  -0.05399
  44        2PZ        -0.00000  -0.00000  -0.00000  -0.00000  -0.00000
  45 12  C  1S         -0.06619  -0.19642   0.15115   0.03093  -0.00547
  46        2PX        -0.02671   0.14072  -0.01983   0.09874   0.23545
  47        2PY        -0.07102   0.09954  -0.03735  -0.01398   0.05901
  48        2PZ         0.00000  -0.00000  -0.00000  -0.00000  -0.00000
  49 13  C  1S         -0.15186   0.11892  -0.01118  -0.10834   0.05811
  50        2PX         0.18065  -0.08234  -0.16207   0.10208   0.26978
  51        2PY        -0.09368  -0.11747  -0.19975  -0.15116   0.02412
  52        2PZ         0.00000  -0.00000  -0.00000  -0.00000   0.00000
  53 14  C  1S         -0.11533  -0.09314  -0.00305   0.05769  -0.00848
  54        2PX         0.25941   0.13562   0.06794   0.06229   0.24892
  55        2PY         0.12980  -0.03104   0.18260   0.24651  -0.04571
  56        2PZ         0.00000   0.00000  -0.00000  -0.00000   0.00000
  57 15  C  1S          0.15186   0.11892   0.01118  -0.10834   0.05811
  58        2PX         0.18065   0.08234  -0.16207  -0.10208  -0.26978
  59        2PY         0.09368  -0.11747   0.19975  -0.15116   0.02412
  60        2PZ        -0.00000  -0.00000  -0.00000  -0.00000   0.00000
  61 16  C  1S          0.11533  -0.09314   0.00305   0.05769  -0.00848
  62        2PX         0.25941  -0.13562   0.06794  -0.06229  -0.24892
  63        2PY        -0.12980  -0.03104  -0.18260   0.24651  -0.04571
  64        2PZ        -0.00000   0.00000  -0.00000  -0.00000   0.00000
  65 17  H  1S         -0.01147  -0.16248  -0.10012   0.03590  -0.04576
  66 18  H  1S         -0.02813   0.03020  -0.01831  -0.03652  -0.02857
  67 19  H  1S          0.02813   0.03020   0.01831  -0.03652  -0.02857
  68 20  H  1S          0.01147  -0.16248   0.10012   0.03590  -0.04576
  69 21  H  1S         -0.16150  -0.14482   0.01759   0.08371  -0.19270
  70 22  H  1S          0.16150  -0.14482  -0.01759   0.08371  -0.19270
  71 23  O  1S          0.17652   0.00703   0.05264   0.11096   0.08434
  72        2PX        -0.21669   0.30457   0.37023  -0.01978  -0.22977
  73        2PY        -0.12787  -0.02018  -0.05569  -0.16631  -0.17260
  74        2PZ         0.00000   0.00000   0.00000  -0.00000   0.00000
  75 24  H  1S          0.10650  -0.17694  -0.21243  -0.02154   0.07516
  76 25  O  1S         -0.17652   0.00703  -0.05264   0.11096   0.08434
  77        2PX        -0.21669  -0.30457   0.37023   0.01978   0.22977
  78        2PY         0.12787  -0.02018   0.05569  -0.16631  -0.17260
  79        2PZ         0.00000   0.00000  -0.00000  -0.00000  -0.00000
  80 26  H  1S         -0.10650  -0.17694   0.21243  -0.02154   0.07516
                          21        22        23        24        25
                           O         O         O         O         O
     Eigenvalues --    -0.66418  -0.61301  -0.60297  -0.59689  -0.59372
   1 1   C  1S          0.00000  -0.00823  -0.00000  -0.08482   0.00001
   2        2PX         0.22735   0.00000  -0.09070  -0.00000  -0.00000
   3        2PY         0.00000   0.14647   0.00000   0.07642  -0.00000
   4        2PZ         0.00000   0.00001  -0.00000   0.00000   0.29809
   5 2   C  1S         -0.00833  -0.05409  -0.11191   0.11589   0.00000
   6        2PX        -0.04389   0.12654   0.12113  -0.11264  -0.00000
   7        2PY         0.22766   0.03387  -0.00419  -0.06163  -0.00000
   8        2PZ         0.00000   0.00001  -0.00000   0.00000   0.29793
   9 3   C  1S          0.00833  -0.05409   0.11191   0.11589   0.00000
  10        2PX        -0.04389  -0.12655   0.12113   0.11264   0.00000
  11        2PY        -0.22766   0.03387   0.00419  -0.06163  -0.00000
  12        2PZ        -0.00000   0.00001  -0.00000  -0.00000   0.29793
  13 4   O  1S         -0.00000   0.14363   0.00000   0.16171   0.00001
  14        2PX         0.16535   0.00000  -0.19305  -0.00000  -0.00000
  15        2PY         0.00000  -0.21935  -0.00000  -0.20502  -0.00002
  16        2PZ         0.00000  -0.00001  -0.00000  -0.00001   0.22543
  17 5   C  1S          0.00000  -0.17242  -0.00000   0.10399   0.00001
  18        2PX        -0.14410   0.00000   0.02213   0.00000   0.00000
  19        2PY        -0.00000  -0.17831  -0.00000   0.07256   0.00001
  20        2PZ         0.00000   0.00001  -0.00000   0.00000   0.28532
  21 6   C  1S         -0.14017   0.00337  -0.09009  -0.12795  -0.00000
  22        2PX         0.14938  -0.01006  -0.11543  -0.12710   0.00000
  23        2PY         0.12847   0.00285  -0.09098  -0.05506   0.00000
  24        2PZ        -0.00000   0.00001  -0.00000   0.00000   0.28836
  25 7   O  1S         -0.00000   0.26492   0.00000  -0.17069  -0.00000
  26        2PX        -0.01601  -0.00000   0.12478   0.00000   0.00000
  27        2PY        -0.00000   0.41155   0.00000  -0.21700   0.00000
  28        2PZ         0.00000  -0.00001  -0.00000   0.00001   0.21226
  29 8   C  1S          0.14017   0.00337   0.09009  -0.12795  -0.00000
  30        2PX         0.14938   0.01006  -0.11543   0.12710  -0.00000
  31        2PY        -0.12847   0.00285   0.09098  -0.05506   0.00000
  32        2PZ         0.00000   0.00001  -0.00000   0.00000   0.28836
  33 9   C  1S          0.11586   0.04933  -0.02226  -0.01820  -0.00000
  34        2PX        -0.10363  -0.12899   0.00133   0.04786   0.00000
  35        2PY        -0.11437  -0.09065  -0.29537   0.30953   0.00000
  36        2PZ         0.00000   0.00001  -0.00000   0.00000   0.20832
  37 10  C  1S          0.14076   0.05305  -0.00960   0.01979  -0.00000
  38        2PX        -0.07290  -0.10062   0.01572   0.07764   0.00000
  39        2PY         0.02208   0.18688   0.34520   0.29246  -0.00001
  40        2PZ        -0.00000   0.00001  -0.00000  -0.00000   0.18666
  41 11  C  1S         -0.14076   0.05305   0.00960   0.01979  -0.00000
  42        2PX        -0.07290   0.10062   0.01572  -0.07764  -0.00001
  43        2PY        -0.02208   0.18688  -0.34520   0.29246  -0.00001
  44        2PZ         0.00000   0.00001   0.00000  -0.00000   0.18666
  45 12  C  1S         -0.11586   0.04933   0.02226  -0.01820  -0.00000
  46        2PX        -0.10363   0.12899   0.00133  -0.04786  -0.00000
  47        2PY         0.11437  -0.09065   0.29537   0.30953   0.00000
  48        2PZ         0.00000   0.00000   0.00000   0.00000   0.20832
  49 13  C  1S         -0.12755   0.09410  -0.07090   0.07995  -0.00000
  50        2PX         0.10889   0.07970  -0.09736   0.05463  -0.00001
  51        2PY        -0.11150   0.08617   0.07195  -0.04599   0.00000
  52        2PZ         0.00000   0.00001  -0.00000   0.00000   0.21439
  53 14  C  1S          0.10174  -0.07222   0.08022  -0.07628   0.00000
  54        2PX        -0.18970  -0.05015   0.14178  -0.02223   0.00001
  55        2PY         0.23428  -0.16388  -0.00325  -0.02345   0.00000
  56        2PZ        -0.00000   0.00000  -0.00000   0.00000   0.16383
  57 15  C  1S          0.12755   0.09410   0.07090   0.07995  -0.00000
  58        2PX         0.10889  -0.07970  -0.09736  -0.05463   0.00000
  59        2PY         0.11150   0.08618  -0.07195  -0.04599  -0.00000
  60        2PZ        -0.00000   0.00000   0.00000   0.00000   0.21439
  61 16  C  1S         -0.10174  -0.07222  -0.08022  -0.07628   0.00000
  62        2PX        -0.18970   0.05015   0.14178   0.02223  -0.00001
  63        2PY        -0.23428  -0.16388   0.00325  -0.02345   0.00000
  64        2PZ         0.00000   0.00000  -0.00000   0.00000   0.16383
  65 17  H  1S          0.14076   0.09817   0.24431  -0.26687  -0.00000
  66 18  H  1S          0.08776   0.18734   0.29047   0.25396  -0.00001
  67 19  H  1S         -0.08776   0.18734  -0.29047   0.25396  -0.00001
  68 20  H  1S         -0.14076   0.09817  -0.24431  -0.26687  -0.00000
  69 21  H  1S          0.27859  -0.06812  -0.06948  -0.02977  -0.00000
  70 22  H  1S         -0.27859  -0.06812   0.06947  -0.02977  -0.00000
  71 23  O  1S          0.04078  -0.13046   0.04117  -0.01435   0.00001
  72        2PX        -0.10012  -0.18899   0.04872   0.00382   0.00001
  73        2PY        -0.12247   0.16823  -0.06229   0.04650  -0.00001
  74        2PZ         0.00000   0.00000  -0.00000   0.00000   0.20971
  75 24  H  1S          0.03505   0.14608  -0.04456   0.00722  -0.00001
  76 25  O  1S         -0.04078  -0.13046  -0.04117  -0.01435   0.00001
  77        2PX        -0.10012   0.18899   0.04872  -0.00382  -0.00001
  78        2PY         0.12247   0.16823   0.06229   0.04650  -0.00001
  79        2PZ         0.00000   0.00000  -0.00000   0.00000   0.20971
  80 26  H  1S         -0.03505   0.14607   0.04456   0.00722  -0.00001
                          26        27        28        29        30
                           O         O         O         O         O
     Eigenvalues --    -0.57879  -0.57485  -0.55849  -0.53833  -0.53445
   1 1   C  1S          0.03328  -0.00000   0.00000  -0.09419  -0.00000
   2        2PX        -0.00000   0.25888  -0.00000   0.00000  -0.14601
   3        2PY        -0.34023  -0.00000  -0.00000  -0.07166  -0.00000
   4        2PZ        -0.00001  -0.00000   0.00000   0.00000  -0.00001
   5 2   C  1S         -0.01474  -0.01889  -0.00000   0.00988   0.01976
   6        2PX        -0.13158  -0.18001   0.00000  -0.11893   0.25507
   7        2PY         0.03471   0.08022  -0.00000  -0.07382   0.18524
   8        2PZ         0.00000  -0.00000   0.15078   0.00000  -0.00001
   9 3   C  1S         -0.01474   0.01889   0.00000   0.00988  -0.01976
  10        2PX         0.13158  -0.18001   0.00000   0.11893   0.25507
  11        2PY         0.03471  -0.08022   0.00000  -0.07382  -0.18524
  12        2PZ         0.00000  -0.00000  -0.15078  -0.00000  -0.00001
  13 4   O  1S         -0.29033  -0.00000  -0.00000  -0.02213  -0.00000
  14        2PX        -0.00000   0.16063   0.00000   0.00000  -0.10194
  15        2PY         0.53457   0.00000   0.00000   0.03483   0.00000
  16        2PZ         0.00003  -0.00000   0.00000   0.00000  -0.00001
  17 5   C  1S         -0.02523   0.00000   0.00000   0.12343   0.00000
  18        2PX        -0.00000   0.25503  -0.00000   0.00000  -0.00338
  19        2PY        -0.23521   0.00000   0.00000  -0.20760  -0.00000
  20        2PZ         0.00001  -0.00000   0.00000   0.00001  -0.00002
  21 6   C  1S          0.04224  -0.01484   0.00000  -0.05898  -0.03493
  22        2PX        -0.09180  -0.20117   0.00000  -0.17468   0.12095
  23        2PY        -0.01632   0.06375  -0.00000   0.01851   0.18345
  24        2PZ         0.00001  -0.00000  -0.13139   0.00000  -0.00001
  25 7   O  1S          0.20900  -0.00000  -0.00000   0.10109   0.00000
  26        2PX        -0.00000   0.19556   0.00000  -0.00000   0.05529
  27        2PY         0.37600   0.00000  -0.00000   0.20415   0.00000
  28        2PZ        -0.00001  -0.00000   0.00000  -0.00001  -0.00002
  29 8   C  1S          0.04224   0.01484   0.00000  -0.05898   0.03493
  30        2PX         0.09180  -0.20117  -0.00000   0.17468   0.12095
  31        2PY        -0.01632  -0.06375   0.00000   0.01852  -0.18345
  32        2PZ         0.00001  -0.00000   0.13139   0.00001  -0.00001
  33 9   C  1S          0.01115   0.08059  -0.00000  -0.00064  -0.02484
  34        2PX        -0.00676   0.14641  -0.00000   0.20655  -0.23367
  35        2PY         0.16073  -0.11728  -0.00000  -0.04457  -0.15953
  36        2PZ         0.00000   0.00000   0.20959  -0.00000   0.00000
  37 10  C  1S         -0.03933  -0.06422  -0.00000   0.04764  -0.02761
  38        2PX        -0.00771   0.14727  -0.00000   0.25374  -0.15194
  39        2PY         0.11180  -0.01972  -0.00000  -0.04407  -0.11970
  40        2PZ         0.00001  -0.00000  -0.15533  -0.00000  -0.00000
  41 11  C  1S         -0.03933   0.06422   0.00000   0.04764   0.02761
  42        2PX         0.00771   0.14727  -0.00000  -0.25374  -0.15194
  43        2PY         0.11180   0.01972  -0.00000  -0.04407   0.11970
  44        2PZ         0.00001   0.00000   0.15533  -0.00000  -0.00000
  45 12  C  1S          0.01115  -0.08059   0.00000  -0.00064   0.02484
  46        2PX         0.00676   0.14641  -0.00000  -0.20655  -0.23367
  47        2PY         0.16073   0.11728   0.00000  -0.04457   0.15953
  48        2PZ         0.00000  -0.00000  -0.20959  -0.00000   0.00000
  49 13  C  1S          0.00953  -0.05256   0.00000  -0.00728   0.08684
  50        2PX         0.07318  -0.19439  -0.00000  -0.19435   0.06109
  51        2PY        -0.06760  -0.02299  -0.00000   0.06373  -0.00211
  52        2PZ         0.00001   0.00000   0.34144  -0.00001   0.00002
  53 14  C  1S         -0.01603  -0.06478   0.00000   0.00215  -0.04476
  54        2PX        -0.11551  -0.11574   0.00000   0.30977   0.13072
  55        2PY         0.05436   0.01047   0.00000  -0.04526  -0.05100
  56        2PZ         0.00000   0.00000   0.21656  -0.00000   0.00001
  57 15  C  1S          0.00953   0.05256  -0.00000  -0.00728  -0.08684
  58        2PX        -0.07318  -0.19439  -0.00000   0.19435   0.06110
  59        2PY        -0.06760   0.02299  -0.00000   0.06373   0.00211
  60        2PZ         0.00001  -0.00000  -0.34144  -0.00001   0.00002
  61 16  C  1S         -0.01603   0.06478  -0.00000   0.00215   0.04476
  62        2PX         0.11551  -0.11574   0.00000  -0.30977   0.13072
  63        2PY         0.05436  -0.01047   0.00000  -0.04526   0.05100
  64        2PZ         0.00000  -0.00000  -0.21656  -0.00000   0.00001
  65 17  H  1S         -0.13828   0.13010  -0.00000   0.03681   0.12847
  66 18  H  1S          0.08292  -0.04364  -0.00000  -0.01662  -0.11445
  67 19  H  1S          0.08292   0.04364  -0.00000  -0.01662   0.11445
  68 20  H  1S         -0.13828  -0.13010  -0.00000   0.03682  -0.12847
  69 21  H  1S          0.10499   0.06325  -0.00000  -0.26841  -0.15000
  70 22  H  1S          0.10499  -0.06325   0.00000  -0.26841   0.14999
  71 23  O  1S          0.01964  -0.16105  -0.00000  -0.03981  -0.14801
  72        2PX        -0.00967   0.06171  -0.00000   0.10986  -0.14432
  73        2PY        -0.05098   0.36451   0.00000   0.20595   0.25145
  74        2PZ         0.00001   0.00000   0.47798  -0.00002   0.00004
  75 24  H  1S         -0.00604   0.07671   0.00000  -0.01067   0.15316
  76 25  O  1S          0.01964   0.16105  -0.00000  -0.03981   0.14801
  77        2PX         0.00967   0.06171  -0.00000  -0.10986  -0.14432
  78        2PY        -0.05098  -0.36451   0.00000   0.20595  -0.25145
  79        2PZ         0.00001  -0.00000  -0.47798  -0.00002   0.00004
  80 26  H  1S         -0.00604  -0.07671   0.00000  -0.01067  -0.15316
                          31        32        33        34        35
                           O         O         O         O         O
     Eigenvalues --    -0.53190  -0.51570  -0.49684  -0.48529  -0.47187
   1 1   C  1S         -0.00001   0.01092   0.00001   0.00000   0.00000
   2        2PX         0.00001   0.00000  -0.00000  -0.09612  -0.00000
   3        2PY        -0.00000  -0.14609  -0.00001   0.00000   0.00000
   4        2PZ        -0.18654   0.00001   0.43855  -0.00000   0.00000
   5 2   C  1S         -0.00000  -0.00709  -0.00000  -0.00228  -0.00000
   6        2PX        -0.00002   0.03835  -0.00000   0.13270   0.00000
   7        2PY        -0.00001   0.18970   0.00000   0.07840  -0.00000
   8        2PZ        -0.11298   0.00001   0.13571   0.00000  -0.26080
   9 3   C  1S          0.00000  -0.00709  -0.00000   0.00228   0.00000
  10        2PX        -0.00002  -0.03835   0.00000   0.13270   0.00000
  11        2PY         0.00002   0.18970   0.00000  -0.07840  -0.00000
  12        2PZ        -0.11298   0.00001   0.13571  -0.00000   0.26080
  13 4   O  1S         -0.00000  -0.09174  -0.00000   0.00000   0.00000
  14        2PX         0.00001   0.00000  -0.00000  -0.14747  -0.00001
  15        2PY         0.00002   0.22507  -0.00003  -0.00000  -0.00000
  16        2PZ        -0.18903   0.00003   0.55298  -0.00000   0.00000
  17 5   C  1S         -0.00000  -0.01969  -0.00001   0.00000   0.00000
  18        2PX         0.00000   0.00000   0.00000   0.27422   0.00000
  19        2PY        -0.00000   0.18888  -0.00001  -0.00000  -0.00000
  20        2PZ        -0.24951   0.00001  -0.38947   0.00000  -0.00000
  21 6   C  1S          0.00000   0.01922   0.00000  -0.01928  -0.00000
  22        2PX        -0.00001   0.02059  -0.00000  -0.19914  -0.00000
  23        2PY        -0.00002  -0.17315   0.00000   0.08159   0.00000
[...]
  79        2PZ         0.00000   0.00000   0.00000   1.93565
  80 26  H  1S          0.00000   0.00000   0.00000   0.00000   0.77774
     Gross orbital populations:
                           1
   1 1   C  1S          1.08178
   2        2PX         0.98562
   3        2PY         0.91985
   4        2PZ         0.69026
   5 2   C  1S          1.06060
   6        2PX         0.95729
   7        2PY         0.96626
   8        2PZ         0.99731
   9 3   C  1S          1.06060
  10        2PX         0.95729
  11        2PY         0.96626
  12        2PZ         0.99731
  13 4   O  1S          1.82164
  14        2PX         1.97806
  15        2PY         1.26659
  16        2PZ         1.43453
  17 5   C  1S          1.08004
  18        2PX         0.98630
  19        2PY         0.92078
  20        2PZ         0.69341
  21 6   C  1S          1.05570
  22        2PX         0.95157
  23        2PY         0.95868
  24        2PZ         1.03856
  25 7   O  1S          1.82273
  26        2PX         1.97787
  27        2PY         1.26374
  28        2PZ         1.45559
  29 8   C  1S          1.05570
  30        2PX         0.95157
  31        2PY         0.95868
  32        2PZ         1.03856
  33 9   C  1S          1.09610
  34        2PX         0.96147
  35        2PY         0.96379
  36        2PZ         0.98501
  37 10  C  1S          1.09995
  38        2PX         0.98864
  39        2PY         0.96675
  40        2PZ         0.93665
  41 11  C  1S          1.09995
  42        2PX         0.98864
  43        2PY         0.96675
  44        2PZ         0.93665
  45 12  C  1S          1.09610
  46        2PX         0.96147
  47        2PY         0.96379
  48        2PZ         0.98501
  49 13  C  1S          1.05752
  50        2PX         0.88668
  51        2PY         0.95816
  52        2PZ         0.94059
  53 14  C  1S          1.08949
  54        2PX         0.96366
  55        2PY         0.95397
  56        2PZ         1.02935
  57 15  C  1S          1.05752
  58        2PX         0.88668
  59        2PY         0.95816
  60        2PZ         0.94059
  61 16  C  1S          1.08949
  62        2PX         0.96366
  63        2PY         0.95397
  64        2PZ         1.02935
  65 17  H  1S          0.93507
  66 18  H  1S          0.94200
  67 19  H  1S          0.94200
  68 20  H  1S          0.93507
  69 21  H  1S          0.95856
  70 22  H  1S          0.95856
  71 23  O  1S          1.70099
  72        2PX         1.19500
  73        2PY         1.50187
  74        2PZ         1.93565
  75 24  H  1S          0.77774
  76 25  O  1S          1.70099
  77        2PX         1.19500
  78        2PY         1.50187
  79        2PZ         1.93565
  80 26  H  1S          0.77774
          Condensed to atoms (all electrons):
               1          2          3          4          5          6
     1  C    3.677513   0.000000   0.000000   0.000000   0.000000   0.000000
     2  C    0.000000   3.981459   0.000000   0.000000   0.000000   0.000000
     3  C    0.000000   0.000000   3.981459   0.000000   0.000000   0.000000
     4  O    0.000000   0.000000   0.000000   6.500811   0.000000   0.000000
     5  C    0.000000   0.000000   0.000000   0.000000   3.680542   0.000000
     6  C    0.000000   0.000000   0.000000   0.000000   0.000000   4.004510
     7  O    0.000000   0.000000   0.000000   0.000000   0.000000   0.000000
     8  C    0.000000   0.000000   0.000000   0.000000   0.000000   0.000000
     9  C    0.000000   0.000000   0.000000   0.000000   0.000000   0.000000
    10  C    0.000000   0.000000   0.000000   0.000000   0.000000   0.000000
    11  C    0.000000   0.000000   0.000000   0.000000   0.000000   0.000000
    12  C    0.000000   0.000000   0.000000   0.000000   0.000000   0.000000
    13  C    0.000000   0.000000   0.000000   0.000000   0.000000   0.000000
    14  C    0.000000   0.000000   0.000000   0.000000   0.000000   0.000000
    15  C    0.000000   0.000000   0.000000   0.000000   0.000000   0.000000
    16  C    0.000000   0.000000   0.000000   0.000000   0.000000   0.000000
    17  H    0.000000   0.000000   0.000000   0.000000   0.000000   0.000000
    18  H    0.000000   0.000000   0.000000   0.000000   0.000000   0.000000
    19  H    0.000000   0.000000   0.000000   0.000000   0.000000   0.000000
    20  H    0.000000   0.000000   0.000000   0.000000   0.000000   0.000000
    21  H    0.000000   0.000000   0.000000   0.000000   0.000000   0.000000
    22  H    0.000000   0.000000   0.000000   0.000000   0.000000   0.000000
    23  O    0.000000   0.000000   0.000000   0.000000   0.000000   0.000000
    24  H    0.000000   0.000000   0.000000   0.000000   0.000000   0.000000
    25  O    0.000000   0.000000   0.000000   0.000000   0.000000   0.000000
    26  H    0.000000   0.000000   0.000000   0.000000   0.000000   0.000000
               7          8          9         10         11         12
     1  C    0.000000   0.000000   0.000000   0.000000   0.000000   0.000000
     2  C    0.000000   0.000000   0.000000   0.000000   0.000000   0.000000
     3  C    0.000000   0.000000   0.000000   0.000000   0.000000   0.000000
     4  O    0.000000   0.000000   0.000000   0.000000   0.000000   0.000000
     5  C    0.000000   0.000000   0.000000   0.000000   0.000000   0.000000
     6  C    0.000000   0.000000   0.000000   0.000000   0.000000   0.000000
     7  O    6.519939   0.000000   0.000000   0.000000   0.000000   0.000000
     8  C    0.000000   4.004510   0.000000   0.000000   0.000000   0.000000
     9  C    0.000000   0.000000   4.006366   0.000000   0.000000   0.000000
    10  C    0.000000   0.000000   0.000000   3.991984   0.000000   0.000000
    11  C    0.000000   0.000000   0.000000   0.000000   3.991984   0.000000
    12  C    0.000000   0.000000   0.000000   0.000000   0.000000   4.006366
    13  C    0.000000   0.000000   0.000000   0.000000   0.000000   0.000000
    14  C    0.000000   0.000000   0.000000   0.000000   0.000000   0.000000
    15  C    0.000000   0.000000   0.000000   0.000000   0.000000   0.000000
    16  C    0.000000   0.000000   0.000000   0.000000   0.000000   0.000000
    17  H    0.000000   0.000000   0.000000   0.000000   0.000000   0.000000
    18  H    0.000000   0.000000   0.000000   0.000000   0.000000   0.000000
    19  H    0.000000   0.000000   0.000000   0.000000   0.000000   0.000000
    20  H    0.000000   0.000000   0.000000   0.000000   0.000000   0.000000
    21  H    0.000000   0.000000   0.000000   0.000000   0.000000   0.000000
    22  H    0.000000   0.000000   0.000000   0.000000   0.000000   0.000000
    23  O    0.000000   0.000000   0.000000   0.000000   0.000000   0.000000
    24  H    0.000000   0.000000   0.000000   0.000000   0.000000   0.000000
    25  O    0.000000   0.000000   0.000000   0.000000   0.000000   0.000000
    26  H    0.000000   0.000000   0.000000   0.000000   0.000000   0.000000
              13         14         15         16         17         18
     1  C    0.000000   0.000000   0.000000   0.000000   0.000000   0.000000
     2  C    0.000000   0.000000   0.000000   0.000000   0.000000   0.000000
     3  C    0.000000   0.000000   0.000000   0.000000   0.000000   0.000000
     4  O    0.000000   0.000000   0.000000   0.000000   0.000000   0.000000
     5  C    0.000000   0.000000   0.000000   0.000000   0.000000   0.000000
     6  C    0.000000   0.000000   0.000000   0.000000   0.000000   0.000000
     7  O    0.000000   0.000000   0.000000   0.000000   0.000000   0.000000
     8  C    0.000000   0.000000   0.000000   0.000000   0.000000   0.000000
     9  C    0.000000   0.000000   0.000000   0.000000   0.000000   0.000000
    10  C    0.000000   0.000000   0.000000   0.000000   0.000000   0.000000
    11  C    0.000000   0.000000   0.000000   0.000000   0.000000   0.000000
    12  C    0.000000   0.000000   0.000000   0.000000   0.000000   0.000000
    13  C    3.842946   0.000000   0.000000   0.000000   0.000000   0.000000
    14  C    0.000000   4.036463   0.000000   0.000000   0.000000   0.000000
    15  C    0.000000   0.000000   3.842946   0.000000   0.000000   0.000000
    16  C    0.000000   0.000000   0.000000   4.036463   0.000000   0.000000
    17  H    0.000000   0.000000   0.000000   0.000000   0.935066   0.000000
    18  H    0.000000   0.000000   0.000000   0.000000   0.000000   0.942001
    19  H    0.000000   0.000000   0.000000   0.000000   0.000000   0.000000
    20  H    0.000000   0.000000   0.000000   0.000000   0.000000   0.000000
    21  H    0.000000   0.000000   0.000000   0.000000   0.000000   0.000000
    22  H    0.000000   0.000000   0.000000   0.000000   0.000000   0.000000
    23  O    0.000000   0.000000   0.000000   0.000000   0.000000   0.000000
    24  H    0.000000   0.000000   0.000000   0.000000   0.000000   0.000000
    25  O    0.000000   0.000000   0.000000   0.000000   0.000000   0.000000
    26  H    0.000000   0.000000   0.000000   0.000000   0.000000   0.000000
              19         20         21         22         23         24
     1  C    0.000000   0.000000   0.000000   0.000000   0.000000   0.000000
     2  C    0.000000   0.000000   0.000000   0.000000   0.000000   0.000000
     3  C    0.000000   0.000000   0.000000   0.000000   0.000000   0.000000
     4  O    0.000000   0.000000   0.000000   0.000000   0.000000   0.000000
     5  C    0.000000   0.000000   0.000000   0.000000   0.000000   0.000000
     6  C    0.000000   0.000000   0.000000   0.000000   0.000000   0.000000
     7  O    0.000000   0.000000   0.000000   0.000000   0.000000   0.000000
     8  C    0.000000   0.000000   0.000000   0.000000   0.000000   0.000000
     9  C    0.000000   0.000000   0.000000   0.000000   0.000000   0.000000
    10  C    0.000000   0.000000   0.000000   0.000000   0.000000   0.000000
    11  C    0.000000   0.000000   0.000000   0.000000   0.000000   0.000000
    12  C    0.000000   0.000000   0.000000   0.000000   0.000000   0.000000
    13  C    0.000000   0.000000   0.000000   0.000000   0.000000   0.000000
    14  C    0.000000   0.000000   0.000000   0.000000   0.000000   0.000000
    15  C    0.000000   0.000000   0.000000   0.000000   0.000000   0.000000
    16  C    0.000000   0.000000   0.000000   0.000000   0.000000   0.000000
    17  H    0.000000   0.000000   0.000000   0.000000   0.000000   0.000000
    18  H    0.000000   0.000000   0.000000   0.000000   0.000000   0.000000
    19  H    0.942001   0.000000   0.000000   0.000000   0.000000   0.000000
    20  H    0.000000   0.935066   0.000000   0.000000   0.000000   0.000000
    21  H    0.000000   0.000000   0.958563   0.000000   0.000000   0.000000
    22  H    0.000000   0.000000   0.000000   0.958563   0.000000   0.000000
    23  O    0.000000   0.000000   0.000000   0.000000   6.333503   0.000000
    24  H    0.000000   0.000000   0.000000   0.000000   0.000000   0.777735
    25  O    0.000000   0.000000   0.000000   0.000000   0.000000   0.000000
    26  H    0.000000   0.000000   0.000000   0.000000   0.000000   0.000000
              25         26
     1  C    0.000000   0.000000
     2  C    0.000000   0.000000
     3  C    0.000000   0.000000
     4  O    0.000000   0.000000
     5  C    0.000000   0.000000
     6  C    0.000000   0.000000
     7  O    0.000000   0.000000
     8  C    0.000000   0.000000
     9  C    0.000000   0.000000
    10  C    0.000000   0.000000
    11  C    0.000000   0.000000
    12  C    0.000000   0.000000
    13  C    0.000000   0.000000
    14  C    0.000000   0.000000
    15  C    0.000000   0.000000
    16  C    0.000000   0.000000
    17  H    0.000000   0.000000
    18  H    0.000000   0.000000
    19  H    0.000000   0.000000
    20  H    0.000000   0.000000
    21  H    0.000000   0.000000
    22  H    0.000000   0.000000
    23  O    0.000000   0.000000
    24  H    0.000000   0.000000
    25  O    6.333503   0.000000
    26  H    0.000000   0.777735
 Mulliken charges:
               1
     1  C    0.322487
     2  C    0.018541
     3  C    0.018541
     4  O   -0.500811
     5  C    0.319458
     6  C   -0.004510
     7  O   -0.519939
     8  C   -0.004510
     9  C   -0.006366
    10  C    0.008016
    11  C    0.008016
    12  C   -0.006366
    13  C    0.157054
    14  C   -0.036463
    15  C    0.157054
    16  C   -0.036463
    17  H    0.064934
    18  H    0.057999
    19  H    0.057999
    20  H    0.064934
    21  H    0.041437
    22  H    0.041437
    23  O   -0.333503
    24  H    0.222265
    25  O   -0.333503
    26  H    0.222265
 Sum of Mulliken charges =   0.00000
 Mulliken charges with hydrogens summed into heavy atoms:
               1
     1  C    0.322487
     2  C    0.018541
     3  C    0.018541
     4  O   -0.500811
     5  C    0.319458
     6  C   -0.004510
     7  O   -0.519939
     8  C   -0.004510
     9  C    0.058568
    10  C    0.066015
    11  C    0.066015
    12  C    0.058568
    13  C    0.157054
    14  C    0.004974
    15  C    0.157054
    16  C    0.004974
    23  O   -0.111239
    25  O   -0.111239
 Charge=              0.0000 electrons
 Dipole moment (field-independent basis, Debye):
    X=              0.0000    Y=              3.4614    Z=              0.0003  Tot=              3.4614
 N-N= 4.602657314712D+02 E-N= 0.000000000000D+00  KE=-1.114940169226D+03
 Orbital energies and kinetic energies (alpha):
                                 1                 2
   1         O                -1.728765        -13.898406
   2         O                -1.682775        -12.978430
   3         O                -1.637676        -13.003401
   4         O                -1.594664        -14.036677
   5         O                -1.545599        -13.197021
   6         O                -1.494406        -13.555025
   7         O                -1.337413        -13.596744
   8         O                -1.260773        -13.246021
   9         O                -1.192217        -13.053336
  10         O                -1.142276        -13.055038
  11         O                -1.024002        -13.035505
  12         O                -0.995220        -12.786212
  13         O                -0.953393        -12.722031
  14         O                -0.942555        -12.763662
  15         O                -0.904707        -12.545720
  16         O                -0.825226        -12.492739
  17         O                -0.795934        -12.493632
  18         O                -0.745191        -12.328129
  19         O                -0.713337        -12.795368
  20         O                -0.668291        -12.345792
  21         O                -0.664182        -12.298214
  22         O                -0.613013        -12.291523
  23         O                -0.602973        -12.239639
  24         O                -0.596890        -12.407845
  25         O                -0.593722        -12.944517
  26         O                -0.578788        -12.848644
  27         O                -0.574852        -12.367562
  28         O                -0.558494        -11.963824
  29         O                -0.538330        -12.087350
  30         O                -0.534454        -12.288994
  31         O                -0.531900        -11.997963
  32         O                -0.515698        -12.041733
  33         O                -0.496839        -13.053555
  34         O                -0.485286        -12.254052
  35         O                -0.471873        -12.262840
  36         O                -0.467245        -12.099898
  37         O                -0.463424        -12.338490
  38         O                -0.436246        -12.332931
  39         O                -0.375847        -12.821146
  40         O                -0.366597        -12.766724
  41         O                -0.357165        -12.527102
  42         O                -0.354194        -12.481833
  43         O                -0.338186        -12.413086
  44         O                -0.329552        -12.411728
  45         V                -0.063263        -12.719833
  46         V                -0.016805        -12.333602
  47         V                 0.002268        -12.450509
  48         V                 0.007886        -12.267044
  49         V                 0.048438        -12.366221
  50         V                 0.049480        -12.604675
  51         V                 0.060132        -12.571581
  52         V                 0.083787        -11.911803
  53         V                 0.088629        -12.249913
  54         V                 0.096366        -12.566753
  55         V                 0.099499        -11.858550
  56         V                 0.108597        -12.688903
  57         V                 0.110368        -12.281575
  58         V                 0.127615        -11.811676
  59         V                 0.130520        -11.954855
  60         V                 0.177456        -11.541812
  61         V                 0.187505        -10.956621
  62         V                 0.194048        -11.095356
  63         V                 0.199797        -11.451490
  64         V                 0.227940        -12.335198
  65         V                 0.237184        -10.332977
  66         V                 0.239501        -10.409762
  67         V                 0.251216        -12.346821
  68         V                 0.291881        -11.718411
  69         V                 0.311725        -11.359655
  70         V                 0.335631        -11.583603
  71         V                 0.347191        -11.856500
  72         V                 0.377736        -11.921524
  73         V                 0.402208        -11.765297
  74         V                 0.416854        -11.876739
  75         V                 0.421326        -12.378078
  76         V                 0.430777        -11.542267
  77         V                 0.443966        -11.866383
  78         V                 0.463342        -12.112098
  79         V                 0.491410        -11.987010
  80         V                 0.497955        -12.434039
 Total kinetic energy from orbitals=-1.114940169226D+03
 1\1\GINC-GTX1080DELTA\SP\RZINDO\STO-3G\C14H8O4\MVEROT\12-Apr-2022\0\\#
 n ZINDO(NSTATE=10) pop=full gfinput\\UV-spectra\\0,1\C,0,0.0043018188,
 1.4680461653,0.0003413332\C,0,1.2636789912,0.6893962792,0.0001874874\C
 ,0,-1.2622477285,0.7011178826,0.0001433237\O,0,0.0100482533,2.70636609
 11,0.0005585814\C,0,-0.0093791774,-1.4801318619,-0.0003075801\C,0,-1.2
 649354796,-0.705055251,-0.000166025\O,0,-0.0151364426,-2.7208164,-0.00
 06330694\C,0,1.2533163301,-0.7167410425,-0.0001233038\C,0,2.4738720391
 ,1.3828189662,0.0003589983\C,0,-2.4834992182,-1.3946607137,-0.00034460
 32\C,0,2.4654276652,-1.4176261201,-0.0002613068\C,0,-2.4659530827,1.40
 57420771,0.0002716358\C,0,3.6815483988,0.6614431761,0.0002185545\C,0,3
 .6811832163,-0.7397815997,-0.0000922473\C,0,-3.6802725453,0.6956053776
 ,0.000090074\C,0,-3.6929117406,-0.705562261,-0.0002182955\H,0,2.488111
 2187,2.484945017,0.000602354\H,0,-2.4729218749,-2.4982167957,-0.000587
 715\H,0,2.4446086491,-2.521036495,-0.0005066331\H,0,-2.4699635912,2.50
 795284,0.0005131855\H,0,4.6284710714,-1.297813322,-0.0002017342\H,0,-4
 .6453375727,-1.2547787435,-0.0003591985\O,0,4.8342293985,1.4071285329,
 0.0004014332\H,0,5.5878783115,0.7979162906,0.0002818044\O,0,-4.8259831
 63,1.4519566354,0.0002324275\H,0,-5.5852537439,0.849765275,0.000080509
 7\\Version=AM64L-G09RevD.01\State=1-A\HF=-132.2345259\RMSD=5.712e-09\P
 G=C01 [X(C14H8O4)]\\@


 ALL PAPERS THAT YOU SAVE WILL NEVER BE NEEDED UNTIL
 SUCH TIME AS THEY ARE DISPOSED OF, WHEN THEY BECOME
 ESSENTIAL.

           -- JOHN CORCORAN IN
              PAUL DICKSON'S "THE OFFICIAL RULES"
 Job cpu time:       0 days  0 hours  0 minutes  1.1 seconds.
 File lengths (MBytes):  RWF=    127 Int=      0 D2E=      0 Chk=      5 Scr=      2
 Normal termination of Gaussian 09 at Tue Apr 12 00:36:00 2022.
