 Entering Gaussian System, Link 0=g09
 Input=/scratch/mverot/1-2-ethanediol-redundant-opt/1-2-ethanediol-redundant-opt.com
 Output=/scratch/mverot/1-2-ethanediol-redundant-opt/1-2-ethanediol-redundant-opt.log
 Initial command:
 /opt/g09/l1.exe "/scratch/mverot/1-2-ethanediol-redundant-opt/Gau-1485679.inp" -scrdir="/scratch/mverot/1-2-ethanediol-redundant-opt/"
 Entering Link 1 = /opt/g09/l1.exe PID=   1485681.
  
 Copyright (c) 1988,1990,1992,1993,1995,1998,2003,2009,2013,
            Gaussian, Inc.  All Rights Reserved.
  
 This is part of the Gaussian(R) 09 program.  It is based on
 the Gaussian(R) 03 system (copyright 2003, Gaussian, Inc.),
 the Gaussian(R) 98 system (copyright 1998, Gaussian, Inc.),
 the Gaussian(R) 94 system (copyright 1995, Gaussian, Inc.),
 the Gaussian 92(TM) system (copyright 1992, Gaussian, Inc.),
 the Gaussian 90(TM) system (copyright 1990, Gaussian, Inc.),
 the Gaussian 88(TM) system (copyright 1988, Gaussian, Inc.),
 the Gaussian 86(TM) system (copyright 1986, Carnegie Mellon
 University), and the Gaussian 82(TM) system (copyright 1983,
 Carnegie Mellon University). Gaussian is a federally registered
 trademark of Gaussian, Inc.
  
 This software contains proprietary and confidential information,
 including trade secrets, belonging to Gaussian, Inc.
  
 This software is provided under written license and may be
 used, copied, transmitted, or stored only in accord with that
 written license.
  
 The following legend is applicable only to US Government
 contracts under FAR:
  
                    RESTRICTED RIGHTS LEGEND
  
 Use, reproduction and disclosure by the US Government is
 subject to restrictions as set forth in subparagraphs (a)
 and (c) of the Commercial Computer Software - Restricted
 Rights clause in FAR 52.227-19.
  
 Gaussian, Inc.
 340 Quinnipiac St., Bldg. 40, Wallingford CT 06492
  
  
 ---------------------------------------------------------------
 Warning -- This program may not be used in any manner that
 competes with the business of Gaussian, Inc. or will provide
 assistance to any competitor of Gaussian, Inc.  The licensee
 of this program is prohibited from giving any competitor of
 Gaussian, Inc. access to this program.  By using this program,
 the user acknowledges that Gaussian, Inc. is engaged in the
 business of creating and licensing software in the field of
 computational chemistry and represents and warrants to the
 licensee that it is not a competitor of Gaussian, Inc. and that
 it will not use this program in any manner prohibited above.
 ---------------------------------------------------------------
  

 Cite this work as:
 Gaussian 09, Revision D.01,
 M. J. Frisch, G. W. Trucks, H. B. Schlegel, G. E. Scuseria, 
 M. A. Robb, J. R. Cheeseman, G. Scalmani, V. Barone, B. Mennucci, 
 G. A. Petersson, H. Nakatsuji, M. Caricato, X. Li, H. P. Hratchian, 
 A. F. Izmaylov, J. Bloino, G. Zheng, J. L. Sonnenberg, M. Hada, 
 M. Ehara, K. Toyota, R. Fukuda, J. Hasegawa, M. Ishida, T. Nakajima, 
 Y. Honda, O. Kitao, H. Nakai, T. Vreven, J. A. Montgomery, Jr., 
 J. E. Peralta, F. Ogliaro, M. Bearpark, J. J. Heyd, E. Brothers, 
 K. N. Kudin, V. N. Staroverov, T. Keith, R. Kobayashi, J. Normand, 
 K. Raghavachari, A. Rendell, J. C. Burant, S. S. Iyengar, J. Tomasi, 
 M. Cossi, N. Rega, J. M. Millam, M. Klene, J. E. Knox, J. B. Cross, 
 V. Bakken, C. Adamo, J. Jaramillo, R. Gomperts, R. E. Stratmann, 
 O. Yazyev, A. J. Austin, R. Cammi, C. Pomelli, J. W. Ochterski, 
 R. L. Martin, K. Morokuma, V. G. Zakrzewski, G. A. Voth, 
 P. Salvador, J. J. Dannenberg, S. Dapprich, A. D. Daniels, 
 O. Farkas, J. B. Foresman, J. V. Ortiz, J. Cioslowski, 
 and D. J. Fox, Gaussian, Inc., Wallingford CT, 2013.
 
 ******************************************
 Gaussian 09:  AM64L-G09RevD.01 24-Apr-2013
                18-Apr-2022 
 ******************************************
 %chk=1-2-ethanediol-opt
 -----------------------
 #n PM3 Opt=modredundant
 -----------------------
 1/14=-1,18=120,19=15,26=1,38=1/1,3;
 2/9=110,12=2,17=6,18=5,40=1/2;
 3/5=2,16=1,25=1,41=800000,71=1/1,2,3;
 4/35=1/1;
 5/5=2,35=1,38=5/2;
 6/7=2,8=2,9=2,10=2,28=1/1;
 7//1,2,3,16;
 1/14=-1,18=20,19=15,26=1/3(2);
 2/9=110/2;
 99//99;
 2/9=110/2;
 3/5=2,16=1,25=1,41=800000,71=1,135=20/1,2,3;
 4/5=5,16=3,35=1/1;
 5/5=2,35=1,38=5/2;
 7//1,2,3,16;
 1/14=-1,18=20,19=15,26=1/3(-5);
 2/9=110/2;
 6/7=2,8=2,9=2,10=2,19=2,28=1/1;
 99/9=1/99;
 -------------------------
 Optimisation de geometrie
 -------------------------
 Symbolic Z-matrix:
 Charge =  0 Multiplicity = 1
 C                     1.0379    2.1554    1.623 
 O                     1.6569    2.075     2.9094 
 C                     1.3393    0.836     0.929 
 O                     2.7356    0.6333    0.8072 
 H                     1.4617    2.9816    1.0336 
 H                    -0.0497    2.3075    1.709 
 H                     1.6972    2.965     3.2882 
 H                     0.9208    0.8398   -0.083 
 H                     0.8609    0.0177    1.4923 
 H                     3.0927    0.8053    1.6951 
 
 The following ModRedundant input section has been read:
 D       2       1       3       4 S  36 10.000                                
 

 GradGradGradGradGradGradGradGradGradGradGradGradGradGradGradGradGradGrad
 Berny optimization.
 Initialization pass.
                           ----------------------------
                           !    Initial Parameters    !
                           ! (Angstroms and Degrees)  !
 --------------------------                            --------------------------
 ! Name  Definition              Value          Derivative Info.                !
 --------------------------------------------------------------------------------
 ! R1    R(1,2)                  1.4298         estimate D2E/DX2                !
 ! R2    R(1,3)                  1.521          estimate D2E/DX2                !
 ! R3    R(1,5)                  1.0998         estimate D2E/DX2                !
 ! R4    R(1,6)                  1.1015         estimate D2E/DX2                !
 ! R5    R(2,7)                  0.9681         estimate D2E/DX2                !
 ! R6    R(3,4)                  1.4162         estimate D2E/DX2                !
 ! R7    R(3,8)                  1.0951         estimate D2E/DX2                !
 ! R8    R(3,9)                  1.1026         estimate D2E/DX2                !
 ! R9    R(4,10)                 0.9724         estimate D2E/DX2                !
 ! A1    A(2,1,3)              106.0187         estimate D2E/DX2                !
 ! A2    A(2,1,5)              110.9508         estimate D2E/DX2                !
 ! A3    A(2,1,6)              111.405          estimate D2E/DX2                !
 ! A4    A(3,1,5)              109.3158         estimate D2E/DX2                !
 ! A5    A(3,1,6)              110.5522         estimate D2E/DX2                !
 ! A6    A(5,1,6)              108.5765         estimate D2E/DX2                !
 ! A7    A(1,2,7)              108.5636         estimate D2E/DX2                !
 ! A8    A(1,3,4)              111.026          estimate D2E/DX2                !
 ! A9    A(1,3,8)              110.0549         estimate D2E/DX2                !
 ! A10   A(1,3,9)              108.9477         estimate D2E/DX2                !
 ! A11   A(4,3,8)              107.3256         estimate D2E/DX2                !
 ! A12   A(4,3,9)              111.4381         estimate D2E/DX2                !
 ! A13   A(8,3,9)              107.9908         estimate D2E/DX2                !
 ! A14   A(3,4,10)             104.9658         estimate D2E/DX2                !
 ! D1    D(3,1,2,7)            164.9577         estimate D2E/DX2                !
 ! D2    D(5,1,2,7)             46.3753         estimate D2E/DX2                !
 ! D3    D(6,1,2,7)            -74.7213         estimate D2E/DX2                !
 ! D4    D(2,1,3,4)            -59.4136         Scan                            !
 ! D5    D(2,1,3,8)           -178.0964         estimate D2E/DX2                !
 ! D6    D(2,1,3,9)             63.6768         estimate D2E/DX2                !
 ! D7    D(5,1,3,4)             60.2449         estimate D2E/DX2                !
 ! D8    D(5,1,3,8)            -58.4379         estimate D2E/DX2                !
 ! D9    D(5,1,3,9)           -176.6647         estimate D2E/DX2                !
 ! D10   D(6,1,3,4)            179.7124         estimate D2E/DX2                !
 ! D11   D(6,1,3,8)             61.0297         estimate D2E/DX2                !
 ! D12   D(6,1,3,9)            -57.1972         estimate D2E/DX2                !
 ! D13   D(1,3,4,10)            49.1359         estimate D2E/DX2                !
 ! D14   D(8,3,4,10)           169.4508         estimate D2E/DX2                !
 ! D15   D(9,3,4,10)           -72.5093         estimate D2E/DX2                !
 --------------------------------------------------------------------------------
 Trust Radius=3.00D-01 FncErr=1.00D-07 GrdErr=1.00D-07
 Number of optimizations in scan=  37
 Number of steps in this run=     48 maximum allowed number of steps=    100.
 GradGradGradGradGradGradGradGradGradGradGradGradGradGradGradGradGradGrad

                          Input orientation:                          
 ---------------------------------------------------------------------
 Center     Atomic      Atomic             Coordinates (Angstroms)
 Number     Number       Type             X           Y           Z
 ---------------------------------------------------------------------
      1          6           0        1.037900    2.155400    1.623000
      2          8           0        1.656900    2.075000    2.909400
      3          6           0        1.339300    0.836000    0.929000
      4          8           0        2.735600    0.633300    0.807200
      5          1           0        1.461700    2.981600    1.033600
      6          1           0       -0.049700    2.307500    1.709000
      7          1           0        1.697200    2.965000    3.288200
      8          1           0        0.920800    0.839800   -0.083000
      9          1           0        0.860900    0.017700    1.492300
     10          1           0        3.092700    0.805300    1.695100
 ---------------------------------------------------------------------
                    Distance matrix (angstroms):
                    1          2          3          4          5
     1  C    0.000000
     2  O    1.429843   0.000000
     3  C    1.520952   2.357536   0.000000
     4  O    2.421674   2.767912   1.416184   0.000000
     5  H    1.099821   2.092523   2.151632   2.681155   0.000000
     6  H    1.101546   2.099405   2.168648   3.372549   1.787430
     7  H    1.965457   0.968098   3.197899   3.559559   2.266927
     8  H    2.157534   3.319943   1.095126   2.031895   2.475212
     9  H    2.148993   2.621883   1.102628   2.088738   3.058769
    10  H    2.459710   2.268961   1.913704   0.972353   2.798933
                    6          7          8          9         10
     6  H    0.000000
     7  H    2.444962   0.000000
     8  H    2.511429   4.060081   0.000000
     9  H    2.473729   3.551230   1.777922   0.000000
    10  H    3.483027   3.024846   2.807130   2.375368   0.000000
 Stoichiometry    C2H6O2
 Framework group  C1[X(C2H6O2)]
 Deg. of freedom    24
 Full point group                 C1      NOp   1
 Largest Abelian subgroup         C1      NOp   1
 Largest concise Abelian subgroup C1      NOp   1
                         Standard orientation:                         
 ---------------------------------------------------------------------
 Center     Atomic      Atomic             Coordinates (Angstroms)
 Number     Number       Type             X           Y           Z
 ---------------------------------------------------------------------
      1          6           0        0.684527    0.611474   -0.262380
      2          8           0        1.316614   -0.576038    0.222113
      3          6           0       -0.741473    0.573046    0.265198
      4          8           0       -1.420502   -0.583538   -0.189564
      5          1           0        0.665344    0.626165   -1.361935
      6          1           0        1.203588    1.516259    0.091657
      7          1           0        2.135630   -0.714104   -0.275245
      8          1           0       -1.299628    1.442666   -0.097466
      9          1           0       -0.717100    0.619137    1.366593
     10          1           0       -0.815056   -1.320637   -0.000906
 ---------------------------------------------------------------------
 Rotational constants (GHZ):     15.1386151      5.7121834      4.6692489
 Standard basis: VSTO-6G (5D, 7F)
 There are    22 symmetry adapted cartesian basis functions of A   symmetry.
 There are    22 symmetry adapted basis functions of A   symmetry.
    22 basis functions,   132 primitive gaussians,    22 cartesian basis functions
    13 alpha electrons       13 beta electrons
       nuclear repulsion energy       101.3621197472 Hartrees.
 Integral buffers will be    131072 words long.
 Regular integral format.
 Two-electron integral symmetry is turned off.
 Do NDO integrals.
 One-electron integrals computed using PRISM.
 NBasis=    22 RedAO= F EigKep=  0.00D+00  NBF=    22
 NBsUse=    22 1.00D-04 EigRej=  0.00D+00 NBFU=    22
 Simple Huckel Guess.
 Overlap will be assumed to be unity.
 Keep J ints in memory in canonical form, NReq=887849.
 Requested convergence on RMS density matrix=1.00D-08 within 128 cycles.
 Requested convergence on MAX density matrix=1.00D-06.
 Requested convergence on             energy=1.00D-06.
 No special actions if energy rises.
 SCF Done:  E(RPM3) = -0.151488500065     A.U. after   13 cycles
            NFock= 12  Conv=0.53D-08     -V/T= 0.9918

 **********************************************************************

            Population analysis using the SCF density.

 **********************************************************************

 Orbital symmetries:
       Occupied  (A) (A) (A) (A) (A) (A) (A) (A) (A) (A) (A) (A)
                 (A)
       Virtual   (A) (A) (A) (A) (A) (A) (A) (A) (A)
 The electronic state is 1-A.
 Alpha  occ. eigenvalues --   -1.46016  -1.31760  -1.07060  -0.81213  -0.68680
 Alpha  occ. eigenvalues --   -0.63099  -0.60870  -0.57303  -0.53246  -0.49566
 Alpha  occ. eigenvalues --   -0.46090  -0.41911  -0.40540
 Alpha virt. eigenvalues --    0.10578   0.12452   0.12994   0.13535   0.14603
 Alpha virt. eigenvalues --    0.16095   0.17286   0.19259   0.20702
          Condensed to atoms (all electrons):
               1          2          3          4          5          6
     1  C    3.976049   0.000000   0.000000   0.000000   0.000000   0.000000
     2  O    0.000000   6.325093   0.000000   0.000000   0.000000   0.000000
     3  C    0.000000   0.000000   3.943399   0.000000   0.000000   0.000000
     4  O    0.000000   0.000000   0.000000   6.315764   0.000000   0.000000
     5  H    0.000000   0.000000   0.000000   0.000000   0.964813   0.000000
     6  H    0.000000   0.000000   0.000000   0.000000   0.000000   0.962120
     7  H    0.000000   0.000000   0.000000   0.000000   0.000000   0.000000
     8  H    0.000000   0.000000   0.000000   0.000000   0.000000   0.000000
     9  H    0.000000   0.000000   0.000000   0.000000   0.000000   0.000000
    10  H    0.000000   0.000000   0.000000   0.000000   0.000000   0.000000
               7          8          9         10
     1  C    0.000000   0.000000   0.000000   0.000000
     2  O    0.000000   0.000000   0.000000   0.000000
     3  C    0.000000   0.000000   0.000000   0.000000
     4  O    0.000000   0.000000   0.000000   0.000000
     5  H    0.000000   0.000000   0.000000   0.000000
     6  H    0.000000   0.000000   0.000000   0.000000
     7  H    0.805838   0.000000   0.000000   0.000000
     8  H    0.000000   0.945425   0.000000   0.000000
     9  H    0.000000   0.000000   0.963806   0.000000
    10  H    0.000000   0.000000   0.000000   0.797692
 Mulliken charges:
               1
     1  C    0.023951
     2  O   -0.325093
     3  C    0.056601
     4  O   -0.315764
     5  H    0.035187
     6  H    0.037880
     7  H    0.194162
     8  H    0.054575
     9  H    0.036194
    10  H    0.202308
 Sum of Mulliken charges =  -0.00000
 Mulliken charges with hydrogens summed into heavy atoms:
               1
     1  C    0.097018
     2  O   -0.130931
     3  C    0.147369
     4  O   -0.113456
 Charge=             -0.0000 electrons
 Dipole moment (field-independent basis, Debye):
    X=              2.0330    Y=              0.8838    Z=             -0.5172  Tot=              2.2763
 N-N= 1.013621197472D+02 E-N=-1.655986700032D+02  KE=-1.848145775490D+01
 Calling FoFJK, ICntrl=      2127 FMM=F ISym2X=0 I1Cent= 0 IOpClX= 0 NMat=1 NMatS=1 NMatT=0.
 ***** Axes restored to original set *****
 -------------------------------------------------------------------
 Center     Atomic                   Forces (Hartrees/Bohr)
 Number     Number              X              Y              Z
 -------------------------------------------------------------------
      1        6           0.007336107    0.005902232    0.014095081
      2        8          -0.007502394    0.020461288    0.001259449
      3        6           0.009516204   -0.002936133    0.004895975
      4        8          -0.003584908    0.001699439    0.016045144
      5        1           0.000286240    0.006281545   -0.000030975
      6        1          -0.002057960    0.001674813    0.002743587
      7        1          -0.003051168   -0.018592382   -0.011991358
      8        1           0.002155746   -0.001972775   -0.006205385
      9        1           0.001143291   -0.006114302   -0.000248477
     10        1          -0.004241158   -0.006403724   -0.020563041
 -------------------------------------------------------------------
 Cartesian Forces:  Max     0.020563041 RMS     0.008719172

 GradGradGradGradGradGradGradGradGradGradGradGradGradGradGradGradGradGrad
 Berny optimization.
 FormGI is forming the generalized inverse of G from B-inverse, IUseBI=4.
 Internal  Forces:  Max     0.021911533 RMS     0.007724193
 Search for a local minimum.
 Step number   1 out of a maximum of   48 on scan point     1 out of    37
 All quantities printed in internal units (Hartrees-Bohrs-Radians)
 Mixed Optimization -- RFO/linear search
 Second derivative matrix not updated -- first step.
 ITU=  0
     Eigenvalues ---    0.01297   0.01478   0.01970   0.05341   0.05960
     Eigenvalues ---    0.06016   0.10836   0.11481   0.13237   0.13767
     Eigenvalues ---    0.16000   0.16000   0.21965   0.22036   0.30275
     Eigenvalues ---    0.33393   0.33512   0.33702   0.34227   0.41012
     Eigenvalues ---    0.43040   0.52899   0.537671000.000001000.00000
     Eigenvalues --- 1000.000001000.000001000.000001000.000001000.00000
     Eigenvalues --- 1000.000001000.000001000.000001000.000001000.00000
     Eigenvalues --- 1000.000001000.000001000.00000
 RFO step:  Lambda=-7.55195894D-03 EMin= 1.29701872D-02
 Linear search not attempted -- first point.
 Iteration  1 RMS(Cart)=  0.08443958 RMS(Int)=  0.00292462
 Iteration  2 RMS(Cart)=  0.00324768 RMS(Int)=  0.00069647
 Iteration  3 RMS(Cart)=  0.00000936 RMS(Int)=  0.00069644
 Iteration  4 RMS(Cart)=  0.00000000 RMS(Int)=  0.00069644
 Iteration  1 RMS(Cart)=  0.00008625 RMS(Int)=  0.00008872
 Iteration  2 RMS(Cart)=  0.00005370 RMS(Int)=  0.00009860
 Iteration  3 RMS(Cart)=  0.00003343 RMS(Int)=  0.00011288
 Iteration  4 RMS(Cart)=  0.00002082 RMS(Int)=  0.00012388
 Iteration  5 RMS(Cart)=  0.00001296 RMS(Int)=  0.00013133
 Iteration  6 RMS(Cart)=  0.00000807 RMS(Int)=  0.00013617
 Iteration  7 RMS(Cart)=  0.00000502 RMS(Int)=  0.00013925
 Iteration  8 RMS(Cart)=  0.00000313 RMS(Int)=  0.00014119
 Iteration  9 RMS(Cart)=  0.00000195 RMS(Int)=  0.00014240
 Iteration 10 RMS(Cart)=  0.00000121 RMS(Int)=  0.00014316
 Iteration 11 RMS(Cart)=  0.00000076 RMS(Int)=  0.00014364
 Variable       Old X    -DE/DX   Delta X   Delta X   Delta X     New X
                                 (Linear)    (Quad)   (Total)
    R1        2.70201  -0.01433   0.00000  -0.03431  -0.03431   2.66770
    R2        2.87418   0.01740   0.00000   0.05609   0.05609   2.93027
    R3        2.07836   0.00485   0.00000   0.01406   0.01406   2.09242
    R4        2.08162   0.00248   0.00000   0.00723   0.00723   2.08885
    R5        1.82944  -0.02191   0.00000  -0.04019  -0.04019   1.78925
    R6        2.67620  -0.00665   0.00000  -0.01519  -0.01519   2.66101
    R7        2.06949   0.00490   0.00000   0.01402   0.01402   2.08351
    R8        2.08366   0.00391   0.00000   0.01146   0.01146   2.09513
    R9        1.83748  -0.02147   0.00000  -0.04001  -0.04001   1.79747
    A1        1.85037   0.00856   0.00000   0.04091   0.04066   1.89104
    A2        1.93646  -0.00327   0.00000  -0.02116  -0.02256   1.91390
    A3        1.94438  -0.00572   0.00000  -0.03325  -0.03326   1.91112
    A4        1.90792   0.00233   0.00000   0.02876   0.02858   1.93651
    A5        1.92950  -0.00084   0.00000   0.00291   0.00327   1.93277
    A6        1.89502  -0.00081   0.00000  -0.01596  -0.01650   1.87851
    A7        1.89479  -0.00789   0.00000  -0.04709  -0.04709   1.84770
    A8        1.93777   0.01481   0.00000   0.06712   0.06670   2.00447
    A9        1.92082  -0.00142   0.00000   0.00133   0.00219   1.92301
   A10        1.90150   0.00180   0.00000   0.03211   0.03183   1.93333
   A11        1.87319  -0.00890   0.00000  -0.05460  -0.05472   1.81847
   A12        1.94496  -0.00693   0.00000  -0.03877  -0.04104   1.90392
   A13        1.88480   0.00012   0.00000  -0.01035  -0.01148   1.87331
   A14        1.83200   0.00770   0.00000   0.04594   0.04594   1.87794
    D1        2.87906   0.00182   0.00000   0.01958   0.01942   2.89848
    D2        0.80940  -0.00429   0.00000  -0.02776  -0.02689   0.78251
    D3       -1.30413   0.00291   0.00000   0.02987   0.02916  -1.27497
    D4       -1.03696  -0.00366   0.00000   0.00000  -0.00000  -1.03697
    D5       -3.10837  -0.00098   0.00000   0.02487   0.02484  -3.08353
    D6        1.11137  -0.00137   0.00000   0.01745   0.01811   1.12948
    D7        1.05147  -0.00145   0.00000   0.01336   0.01352   1.06499
    D8       -1.01993   0.00123   0.00000   0.03822   0.03836  -0.98158
    D9       -3.08338   0.00084   0.00000   0.03080   0.03163  -3.05175
   D10        3.13657  -0.00150   0.00000   0.01356   0.01337  -3.13324
   D11        1.06517   0.00118   0.00000   0.03843   0.03821   1.10338
   D12       -0.99828   0.00079   0.00000   0.03100   0.03149  -0.96679
   D13        0.85758   0.00326   0.00000   0.06722   0.06698   0.92456
   D14        2.95747   0.00461   0.00000   0.07392   0.07217   3.02965
   D15       -1.26553  -0.00458   0.00000   0.00618   0.00817  -1.25736
         Item               Value     Threshold  Converged?
 Maximum Force            0.021912     0.000450     NO 
 RMS     Force            0.007765     0.000300     NO 
 Maximum Displacement     0.293586     0.001800     NO 
 RMS     Displacement     0.083144     0.001200     NO 
 Predicted change in Energy=-3.924077D-03
 GradGradGradGradGradGradGradGradGradGradGradGradGradGradGradGradGradGrad

                          Input orientation:                          
 ---------------------------------------------------------------------
 Center     Atomic      Atomic             Coordinates (Angstroms)
 Number     Number       Type             X           Y           Z
 ---------------------------------------------------------------------
      1          6           0        1.039593    2.176323    1.656262
      2          8           0        1.634125    2.148786    2.936354
      3          6           0        1.360890    0.839108    0.939962
      4          8           0        2.733363    0.572732    0.771949
      5          1           0        1.432147    3.037593    1.081679
      6          1           0       -0.052486    2.312530    1.759503
      7          1           0        1.609404    3.040940    3.252485
      8          1           0        0.960347    0.852014   -0.087171
      9          1           0        0.888137   -0.013366    1.468163
     10          1           0        3.147782    0.649941    1.624615
 ---------------------------------------------------------------------
                    Distance matrix (angstroms):
                    1          2          3          4          5
     1  C    0.000000
     2  O    1.411688   0.000000
     3  C    1.550632   2.403226   0.000000
     4  O    2.494468   2.894291   1.408143   0.000000
     5  H    1.107262   2.066541   2.204200   2.804396   0.000000
     6  H    1.105372   2.063116   2.200057   3.429740   1.785860
     7  H    1.902676   0.946831   3.202747   3.675377   2.178034
     8  H    2.190806   3.358168   1.102544   1.989893   2.523006
     9  H    2.202965   2.717900   1.108694   2.057446   3.123085
    10  H    2.602942   2.501670   1.922893   0.951181   2.989827
                    6          7          8          9         10
     6  H    0.000000
     7  H    2.349778   0.000000
     8  H    2.563034   4.045488   0.000000
     9  H    2.525755   3.610099   1.781337   0.000000
    10  H    3.608894   3.276194   2.784945   2.360180   0.000000
 Stoichiometry    C2H6O2
 Framework group  C1[X(C2H6O2)]
 Deg. of freedom    24
 Full point group                 C1      NOp   1
 Largest Abelian subgroup         C1      NOp   1
 Largest concise Abelian subgroup C1      NOp   1
                         Standard orientation:                         
 ---------------------------------------------------------------------
 Center     Atomic      Atomic             Coordinates (Angstroms)
 Number     Number       Type             X           Y           Z
 ---------------------------------------------------------------------
      1          6           0        0.728262    0.584246   -0.241615
      2          8           0        1.367605   -0.590971    0.208904
      3          6           0       -0.740833    0.561394    0.254067
      4          8           0       -1.498448   -0.538955   -0.191040
      5          1           0        0.772514    0.632035   -1.346960
      6          1           0        1.260921    1.468635    0.153325
      7          1           0        2.174029   -0.651951   -0.283491
      8          1           0       -1.286054    1.438676   -0.131565
      9          1           0       -0.783053    0.606630    1.361033
     10          1           0       -1.016191   -1.328449    0.030031
 ---------------------------------------------------------------------
 Rotational constants (GHZ):     15.9009753      5.2849115      4.4176822
 Standard basis: VSTO-6G (5D, 7F)
 There are    22 symmetry adapted cartesian basis functions of A   symmetry.
 There are    22 symmetry adapted basis functions of A   symmetry.
    22 basis functions,   132 primitive gaussians,    22 cartesian basis functions
    13 alpha electrons       13 beta electrons
       nuclear repulsion energy       100.7462841642 Hartrees.
 Integral buffers will be    131072 words long.
 Regular integral format.
 Two-electron integral symmetry is turned off.
 Do NDO integrals.
 One-electron integrals computed using PRISM.
 NBasis=    22 RedAO= F EigKep=  0.00D+00  NBF=    22
 NBsUse=    22 1.00D-04 EigRej=  0.00D+00 NBFU=    22
 Initial guess from the checkpoint file:  "1-2-ethanediol-opt.chk"
 B after Tr=     0.000000    0.000000   -0.000000
         Rot=    0.999933   -0.005417    0.001931    0.010040 Ang=  -1.33 deg.
 Overlap will be assumed to be unity.
 Keep J ints in memory in canonical form, NReq=887849.
 Requested convergence on RMS density matrix=1.00D-08 within 128 cycles.
 Requested convergence on MAX density matrix=1.00D-06.
 Requested convergence on             energy=1.00D-06.
 No special actions if energy rises.
 SCF Done:  E(RPM3) = -0.154846156066     A.U. after   12 cycles
            NFock= 11  Conv=0.49D-08     -V/T= 0.9916
 Calling FoFJK, ICntrl=      2127 FMM=F ISym2X=0 I1Cent= 0 IOpClX= 0 NMat=1 NMatS=1 NMatT=0.
 ***** Axes restored to original set *****
 -------------------------------------------------------------------
 Center     Atomic                   Forces (Hartrees/Bohr)
 Number     Number              X              Y              Z
 -------------------------------------------------------------------
      1        6           0.007604900   -0.004157031   -0.002711196
      2        8          -0.002214369   -0.001302115   -0.002183691
      3        6           0.001647720    0.001305929    0.006619170
      4        8          -0.005857650    0.004895608    0.001051541
      5        1          -0.000479695   -0.000691700   -0.000732060
      6        1          -0.000547059   -0.001333508   -0.000856164
      7        1           0.000340655    0.000039793    0.000877995
      8        1           0.001102046    0.000546053   -0.000755178
      9        1           0.000149577    0.001166088    0.000451771
     10        1          -0.001746124   -0.000469118   -0.001762189
 -------------------------------------------------------------------
 Cartesian Forces:  Max     0.007604900 RMS     0.002686008

 GradGradGradGradGradGradGradGradGradGradGradGradGradGradGradGradGradGrad
 Berny optimization.
 Using GEDIIS/GDIIS optimizer.
 FormGI is forming the generalized inverse of G from B-inverse, IUseBI=4.
 Internal  Forces:  Max     0.009983953 RMS     0.002424034
 Search for a local minimum.
 Step number   2 out of a maximum of   48 on scan point     1 out of    37
 All quantities printed in internal units (Hartrees-Bohrs-Radians)
 Mixed Optimization -- RFO/linear search
 Update second derivatives using D2CorX and points    1    2
 DE= -3.36D-03 DEPred=-3.92D-03 R= 8.56D-01
 TightC=F SS=  1.41D+00  RLast= 2.13D-01 DXNew= 5.0454D-01 6.3825D-01
 Trust test= 8.56D-01 RLast= 2.13D-01 DXMaxT set to 5.05D-01
 ITU=  1  0
 Use linear search instead of GDIIS.
     Eigenvalues ---    0.01297   0.01479   0.01815   0.04961   0.05702
     Eigenvalues ---    0.05812   0.11468   0.12073   0.13409   0.14105
     Eigenvalues ---    0.15998   0.16268   0.21956   0.22795   0.33160
     Eigenvalues ---    0.33458   0.33601   0.34103   0.35555   0.38944
     Eigenvalues ---    0.43410   0.51799   0.542451000.000001000.00000
     Eigenvalues --- 1000.000001000.000001000.000001000.000001000.00000
     Eigenvalues --- 1000.000001000.000001000.000001000.000001000.00000
     Eigenvalues --- 1000.000001000.000001000.00000
 RFO step:  Lambda=-5.60664828D-04 EMin= 1.29711214D-02
 Quartic linear search produced a step of -0.10520.
 Iteration  1 RMS(Cart)=  0.01523844 RMS(Int)=  0.00013795
 Iteration  2 RMS(Cart)=  0.00010695 RMS(Int)=  0.00008623
 Iteration  3 RMS(Cart)=  0.00000002 RMS(Int)=  0.00008623
 Iteration  1 RMS(Cart)=  0.00001235 RMS(Int)=  0.00001269
 Iteration  2 RMS(Cart)=  0.00000770 RMS(Int)=  0.00001410
 Iteration  3 RMS(Cart)=  0.00000480 RMS(Int)=  0.00001615
 Iteration  4 RMS(Cart)=  0.00000300 RMS(Int)=  0.00001772
 Iteration  5 RMS(Cart)=  0.00000187 RMS(Int)=  0.00001880
 Iteration  6 RMS(Cart)=  0.00000117 RMS(Int)=  0.00001949
 Iteration  7 RMS(Cart)=  0.00000073 RMS(Int)=  0.00001994
 Variable       Old X    -DE/DX   Delta X   Delta X   Delta X     New X
                                 (Linear)    (Quad)   (Total)
    R1        2.66770  -0.00195   0.00361  -0.01023  -0.00662   2.66108
    R2        2.93027  -0.00998  -0.00590  -0.01960  -0.02550   2.90477
    R3        2.09242  -0.00033  -0.00148   0.00159   0.00011   2.09254
    R4        2.08885   0.00030  -0.00076   0.00206   0.00130   2.09015
    R5        1.78925   0.00032   0.00423  -0.00644  -0.00222   1.78704
    R6        2.66101  -0.00816   0.00160  -0.01960  -0.01800   2.64301
    R7        2.08351   0.00031  -0.00147   0.00326   0.00179   2.08529
    R8        2.09513  -0.00075  -0.00121   0.00002  -0.00119   2.09394
    R9        1.79747  -0.00238   0.00421  -0.01097  -0.00676   1.79071
    A1        1.89104  -0.00150  -0.00428   0.00104  -0.00324   1.88780
    A2        1.91390   0.00178   0.00237   0.00806   0.01057   1.92448
    A3        1.91112   0.00082   0.00350   0.00011   0.00354   1.91466
    A4        1.93651   0.00007  -0.00301   0.00423   0.00124   1.93774
    A5        1.93277  -0.00151  -0.00034  -0.01330  -0.01370   1.91907
    A6        1.87851   0.00041   0.00174  -0.00000   0.00175   1.88026
    A7        1.84770   0.00158   0.00495   0.00036   0.00532   1.85302
    A8        2.00447  -0.00363  -0.00702  -0.00555  -0.01256   1.99190
    A9        1.92301   0.00072  -0.00023   0.00189   0.00146   1.92447
   A10        1.93333   0.00034  -0.00335   0.00767   0.00435   1.93768
   A11        1.81847  -0.00006   0.00576  -0.01626  -0.01056   1.80790
   A12        1.90392   0.00244   0.00432   0.00294   0.00753   1.91145
   A13        1.87331   0.00040   0.00121   0.00901   0.01032   1.88363
   A14        1.87794  -0.00129  -0.00483   0.00106  -0.00377   1.87417
    D1        2.89848   0.00086  -0.00204   0.01258   0.01058   2.90905
    D2        0.78251   0.00063   0.00283   0.00190   0.00466   0.78717
    D3       -1.27497  -0.00141  -0.00307  -0.00291  -0.00594  -1.28091
    D4       -1.03697  -0.00196   0.00000   0.00000   0.00001  -1.03696
    D5       -3.08353  -0.00003  -0.00261   0.02309   0.02049  -3.06304
    D6        1.12948  -0.00120  -0.00191   0.00593   0.00395   1.13343
    D7        1.06499  -0.00068  -0.00142   0.01317   0.01173   1.07672
    D8       -0.98158   0.00125  -0.00404   0.03626   0.03221  -0.94937
    D9       -3.05175   0.00008  -0.00333   0.01910   0.01567  -3.03608
   D10       -3.13324  -0.00111  -0.00141   0.00723   0.00583  -3.12741
   D11        1.10338   0.00082  -0.00402   0.03032   0.02631   1.12969
   D12       -0.96679  -0.00035  -0.00331   0.01316   0.00977  -0.95702
   D13        0.92456   0.00056  -0.00705   0.03453   0.02744   0.95201
   D14        3.02965  -0.00064  -0.00759   0.02254   0.01521   3.04485
   D15       -1.25736   0.00085  -0.00086   0.02609   0.02501  -1.23235
         Item               Value     Threshold  Converged?
 Maximum Force            0.009984     0.000450     NO 
 RMS     Force            0.002400     0.000300     NO 
 Maximum Displacement     0.037778     0.001800     NO 
 RMS     Displacement     0.015208     0.001200     NO 
 Predicted change in Energy=-3.255996D-04
 GradGradGradGradGradGradGradGradGradGradGradGradGradGradGradGradGradGrad

                          Input orientation:                          
 ---------------------------------------------------------------------
 Center     Atomic      Atomic             Coordinates (Angstroms)
 Number     Number       Type             X           Y           Z
 ---------------------------------------------------------------------
      1          6           0        1.045237    2.172465    1.652917
      2          8           0        1.645830    2.143505    2.926273
      3          6           0        1.358062    0.844244    0.945272
      4          8           0        2.723862    0.591937    0.780737
      5          1           0        1.425636    3.032945    1.068937
      6          1           0       -0.048855    2.294906    1.759375
      7          1           0        1.619400    3.031567    3.250184
      8          1           0        0.971317    0.861401   -0.088083
      9          1           0        0.885020   -0.007959    1.472327
     10          1           0        3.127791    0.651590    1.635861
 ---------------------------------------------------------------------
                    Distance matrix (angstroms):
                    1          2          3          4          5
     1  C    0.000000
     2  O    1.408185   0.000000
     3  C    1.537138   2.386474   0.000000
     4  O    2.465065   2.858818   1.398620   0.000000
     5  H    1.107322   2.071060   2.193233   2.779743   0.000000
     6  H    1.106057   2.063136   2.178669   3.397910   1.787605
     7  H    1.902362   0.945659   3.188307   3.642773   2.189837
     8  H    2.180696   3.344414   1.103490   1.974556   2.502140
     9  H    2.193748   2.705844   1.108064   2.054145   3.114818
    10  H    2.578833   2.467222   1.909442   0.947604   2.981542
                    6          7          8          9         10
     6  H    0.000000
     7  H    2.355473   0.000000
     8  H    2.551232   4.034062   0.000000
     9  H    2.501541   3.597056   1.788327   0.000000
    10  H    3.578662   3.247395   2.768824   2.343453   0.000000
 Stoichiometry    C2H6O2
 Framework group  C1[X(C2H6O2)]
 Deg. of freedom    24
 Full point group                 C1      NOp   1
 Largest Abelian subgroup         C1      NOp   1
 Largest concise Abelian subgroup C1      NOp   1
                         Standard orientation:                         
 ---------------------------------------------------------------------
 Center     Atomic      Atomic             Coordinates (Angstroms)
 Number     Number       Type             X           Y           Z
 ---------------------------------------------------------------------
      1          6           0        0.716102    0.585642   -0.240750
      2          8           0        1.355397   -0.586969    0.205648
      3          6           0       -0.738119    0.557524    0.256485
      4          8           0       -1.475058   -0.542693   -0.193606
      5          1           0        0.757056    0.647954   -1.345559
      6          1           0        1.237092    1.472395    0.166193
      7          1           0        2.165241   -0.646230   -0.279029
      8          1           0       -1.295003    1.422954   -0.141761
      9          1           0       -0.780899    0.604237    1.362737
     10          1           0       -0.994103   -1.323014    0.046676
 ---------------------------------------------------------------------
 Rotational constants (GHZ):     15.9365071      5.3999795      4.5016206
 Standard basis: VSTO-6G (5D, 7F)
 There are    22 symmetry adapted cartesian basis functions of A   symmetry.
 There are    22 symmetry adapted basis functions of A   symmetry.
    22 basis functions,   132 primitive gaussians,    22 cartesian basis functions
    13 alpha electrons       13 beta electrons
       nuclear repulsion energy       101.0724669529 Hartrees.
 Integral buffers will be    131072 words long.
 Regular integral format.
 Two-electron integral symmetry is turned off.
 Do NDO integrals.
 One-electron integrals computed using PRISM.
 NBasis=    22 RedAO= F EigKep=  0.00D+00  NBF=    22
 NBsUse=    22 1.00D-04 EigRej=  0.00D+00 NBFU=    22
 Initial guess from the checkpoint file:  "1-2-ethanediol-opt.chk"
 B after Tr=    -0.000000   -0.000000    0.000000
         Rot=    0.999997   -0.000884    0.000184   -0.002409 Ang=  -0.29 deg.
 Overlap will be assumed to be unity.
 Keep J ints in memory in canonical form, NReq=887849.
 Requested convergence on RMS density matrix=1.00D-08 within 128 cycles.
 Requested convergence on MAX density matrix=1.00D-06.
 Requested convergence on             energy=1.00D-06.
 No special actions if energy rises.
 SCF Done:  E(RPM3) = -0.155150682751     A.U. after   11 cycles
            NFock= 10  Conv=0.38D-08     -V/T= 0.9916
 Calling FoFJK, ICntrl=      2127 FMM=F ISym2X=0 I1Cent= 0 IOpClX= 0 NMat=1 NMatS=1 NMatT=0.
 ***** Axes restored to original set *****
 -------------------------------------------------------------------
 Center     Atomic                   Forces (Hartrees/Bohr)
 Number     Number              X              Y              Z
 -------------------------------------------------------------------
      1        6           0.001667819    0.000702962   -0.001824323
      2        8          -0.001031567   -0.001280568    0.000827492
      3        6          -0.002033501   -0.001543277    0.001769110
      4        8           0.000800049    0.001223629   -0.002943475
      5        1          -0.000225054   -0.000129927   -0.000123407
      6        1          -0.000444649    0.000127633   -0.000239483
      7        1           0.000220480    0.001243305    0.001098643
      8        1          -0.000068283   -0.000247023   -0.000125431
      9        1          -0.000231768    0.000530172    0.000095187
     10        1           0.001346473   -0.000626905    0.001465687
 -------------------------------------------------------------------
 Cartesian Forces:  Max     0.002943475 RMS     0.001131013

 GradGradGradGradGradGradGradGradGradGradGradGradGradGradGradGradGradGrad
 Berny optimization.
 Using GEDIIS/GDIIS optimizer.
 FormGI is forming the generalized inverse of G from B-inverse, IUseBI=4.
 Internal  Forces:  Max     0.002162352 RMS     0.000791446
 Search for a local minimum.
 Step number   3 out of a maximum of   48 on scan point     1 out of    37
 All quantities printed in internal units (Hartrees-Bohrs-Radians)
 Mixed Optimization -- En-DIIS/RFO-DIIS
 Update second derivatives using D2CorX and points    1    2    3
 DE= -3.05D-04 DEPred=-3.26D-04 R= 9.35D-01
 TightC=F SS=  1.41D+00  RLast= 7.97D-02 DXNew= 8.4853D-01 2.3914D-01
 Trust test= 9.35D-01 RLast= 7.97D-02 DXMaxT set to 5.05D-01
 ITU=  1  1  0
 Use linear search instead of GDIIS.
     Eigenvalues ---    0.01288   0.01324   0.01818   0.05016   0.05702
     Eigenvalues ---    0.05891   0.11333   0.12046   0.13374   0.13941
     Eigenvalues ---    0.15930   0.16260   0.21918   0.22744   0.33208
     Eigenvalues ---    0.33392   0.33674   0.34094   0.34896   0.41252
     Eigenvalues ---    0.49878   0.53898   0.556071000.000001000.00000
     Eigenvalues --- 1000.000001000.000001000.000001000.000001000.00000
     Eigenvalues --- 1000.000001000.000001000.000001000.000001000.00000
     Eigenvalues --- 1000.000001000.000001000.00000
 RFO step:  Lambda=-6.60910307D-05 EMin= 1.28832829D-02
 Quartic linear search produced a step of -0.06969.
 Iteration  1 RMS(Cart)=  0.00724476 RMS(Int)=  0.00008213
 Iteration  2 RMS(Cart)=  0.00007530 RMS(Int)=  0.00000297
 Iteration  3 RMS(Cart)=  0.00000001 RMS(Int)=  0.00000297
 Iteration  1 RMS(Cart)=  0.00000012 RMS(Int)=  0.00000012
 Variable       Old X    -DE/DX   Delta X   Delta X   Delta X     New X
                                 (Linear)    (Quad)   (Total)
    R1        2.66108   0.00140   0.00046   0.00201   0.00247   2.66355
    R2        2.90477   0.00041   0.00178  -0.00315  -0.00137   2.90340
    R3        2.09254  -0.00011  -0.00001  -0.00030  -0.00031   2.09223
    R4        2.09015   0.00043  -0.00009   0.00138   0.00129   2.09143
    R5        1.78704   0.00154   0.00015   0.00227   0.00242   1.78946
    R6        2.64301   0.00216   0.00125   0.00152   0.00278   2.64579
    R7        2.08529   0.00014  -0.00012   0.00065   0.00053   2.08582
    R8        2.09394  -0.00026   0.00008  -0.00093  -0.00085   2.09309
    R9        1.79071   0.00186   0.00047   0.00209   0.00256   1.79327
    A1        1.88780   0.00047   0.00023   0.00198   0.00220   1.89000
    A2        1.92448   0.00054  -0.00074   0.00293   0.00220   1.92667
    A3        1.91466  -0.00057  -0.00025   0.00201   0.00177   1.91643
    A4        1.93774  -0.00010  -0.00009  -0.00135  -0.00144   1.93630
    A5        1.91907  -0.00033   0.00095  -0.00370  -0.00275   1.91632
    A6        1.88026  -0.00004  -0.00012  -0.00186  -0.00199   1.87827
    A7        1.85302   0.00118  -0.00037   0.00763   0.00726   1.86028
    A8        1.99190   0.00031   0.00088  -0.00052   0.00036   1.99227
    A9        1.92447  -0.00009  -0.00010   0.00016   0.00006   1.92453
   A10        1.93768  -0.00034  -0.00030  -0.00208  -0.00238   1.93530
   A11        1.80790  -0.00075   0.00074  -0.00267  -0.00193   1.80597
   A12        1.91145   0.00079  -0.00052   0.00443   0.00390   1.91536
   A13        1.88363   0.00004  -0.00072   0.00078   0.00006   1.88369
   A14        1.87417   0.00131   0.00026   0.00676   0.00703   1.88120
    D1        2.90905   0.00034  -0.00074   0.00334   0.00260   2.91165
    D2        0.78717  -0.00017  -0.00032   0.00194   0.00162   0.78879
    D3       -1.28091  -0.00010   0.00041   0.00122   0.00163  -1.27928
    D4       -1.03696  -0.00155  -0.00000   0.00000  -0.00000  -1.03696
    D5       -3.06304  -0.00075  -0.00143   0.00360   0.00217  -3.06088
    D6        1.13343  -0.00052  -0.00028   0.00386   0.00359   1.13702
    D7        1.07672  -0.00064  -0.00082   0.00407   0.00325   1.07997
    D8       -0.94937   0.00017  -0.00224   0.00767   0.00542  -0.94394
    D9       -3.03608   0.00039  -0.00109   0.00794   0.00684  -3.02924
   D10       -3.12741  -0.00096  -0.00041  -0.00147  -0.00187  -3.12928
   D11        1.12969  -0.00016  -0.00183   0.00213   0.00030   1.12999
   D12       -0.95702   0.00007  -0.00068   0.00239   0.00172  -0.95530
   D13        0.95201   0.00062  -0.00191   0.02615   0.02424   0.97625
   D14        3.04485   0.00020  -0.00106   0.02431   0.02324   3.06810
   D15       -1.23235   0.00021  -0.00174   0.02576   0.02402  -1.20833
         Item               Value     Threshold  Converged?
 Maximum Force            0.002162     0.000450     NO 
 RMS     Force            0.000686     0.000300     NO 
 Maximum Displacement     0.033577     0.001800     NO 
 RMS     Displacement     0.007261     0.001200     NO 
 Predicted change in Energy=-3.435304D-05
 GradGradGradGradGradGradGradGradGradGradGradGradGradGradGradGradGradGrad

                          Input orientation:                          
 ---------------------------------------------------------------------
 Center     Atomic      Atomic             Coordinates (Angstroms)
 Number     Number       Type             X           Y           Z
 ---------------------------------------------------------------------
      1          6           0        1.044268    2.173133    1.652979
      2          8           0        1.646277    2.148649    2.927205
      3          6           0        1.358738    0.846008    0.945580
      4          8           0        2.726156    0.595888    0.778668
      5          1           0        1.419508    3.033308    1.065530
      6          1           0       -0.051093    2.291557    1.758000
      7          1           0        1.618361    3.036068    3.256453
      8          1           0        0.972290    0.862824   -0.088190
      9          1           0        0.884455   -0.004655    1.473066
     10          1           0        3.134341    0.633821    1.634511
 ---------------------------------------------------------------------
                    Distance matrix (angstroms):
                    1          2          3          4          5
     1  C    0.000000
     2  O    1.409491   0.000000
     3  C    1.536414   2.388805   0.000000
     4  O    2.465942   2.862415   1.400090   0.000000
     5  H    1.107159   2.073614   2.191429   2.780402   0.000000
     6  H    1.106738   2.066041   2.176525   3.398161   1.786722
     7  H    1.909284   0.946940   3.194355   3.649809   2.199930
     8  H    2.180312   3.346672   1.103768   1.974524   2.498415
     9  H    2.191043   2.707695   1.107616   2.057839   3.111524
    10  H    2.595809   2.485980   1.916355   0.948958   3.003652
                    6          7          8          9         10
     6  H    0.000000
     7  H    2.363628   0.000000
     8  H    2.548923   4.040673   0.000000
     9  H    2.495801   3.600706   1.788226   0.000000
    10  H    3.593094   3.271036   2.773915   2.344292   0.000000
 Stoichiometry    C2H6O2
 Framework group  C1[X(C2H6O2)]
 Deg. of freedom    24
 Full point group                 C1      NOp   1
 Largest Abelian subgroup         C1      NOp   1
 Largest concise Abelian subgroup C1      NOp   1
                         Standard orientation:                         
 ---------------------------------------------------------------------
 Center     Atomic      Atomic             Coordinates (Angstroms)
 Number     Number       Type             X           Y           Z
 ---------------------------------------------------------------------
      1          6           0        0.715929    0.585970   -0.239921
      2          8           0        1.357873   -0.587824    0.203679
      3          6           0       -0.737627    0.557788    0.257016
      4          8           0       -1.476272   -0.542351   -0.195035
      5          1           0        0.755335    0.653348   -1.344325
      6          1           0        1.234570    1.474236    0.168570
      7          1           0        2.171025   -0.649602   -0.277633
      8          1           0       -1.294876    1.423100   -0.141748
      9          1           0       -0.777875    0.606569    1.362825
     10          1           0       -1.010792   -1.328800    0.060596
 ---------------------------------------------------------------------
 Rotational constants (GHZ):     15.9129558      5.3889428      4.4915283
 Standard basis: VSTO-6G (5D, 7F)
 There are    22 symmetry adapted cartesian basis functions of A   symmetry.
 There are    22 symmetry adapted basis functions of A   symmetry.
    22 basis functions,   132 primitive gaussians,    22 cartesian basis functions
    13 alpha electrons       13 beta electrons
       nuclear repulsion energy       101.0163915315 Hartrees.
 Integral buffers will be    131072 words long.
 Regular integral format.
 Two-electron integral symmetry is turned off.
 Do NDO integrals.
 One-electron integrals computed using PRISM.
 NBasis=    22 RedAO= F EigKep=  0.00D+00  NBF=    22
 NBsUse=    22 1.00D-04 EigRej=  0.00D+00 NBFU=    22
 Initial guess from the checkpoint file:  "1-2-ethanediol-opt.chk"
 B after Tr=    -0.000000    0.000000    0.000000
         Rot=    1.000000   -0.000241   -0.000194    0.000158 Ang=  -0.04 deg.
 Overlap will be assumed to be unity.
 Keep J ints in memory in canonical form, NReq=887849.
 Requested convergence on RMS density matrix=1.00D-08 within 128 cycles.
 Requested convergence on MAX density matrix=1.00D-06.
 Requested convergence on             energy=1.00D-06.
 No special actions if energy rises.
 SCF Done:  E(RPM3) = -0.155189558096     A.U. after   10 cycles
            NFock=  9  Conv=0.79D-08     -V/T= 0.9916
 Calling FoFJK, ICntrl=      2127 FMM=F ISym2X=0 I1Cent= 0 IOpClX= 0 NMat=1 NMatS=1 NMatT=0.
 ***** Axes restored to original set *****
 -------------------------------------------------------------------
 Center     Atomic                   Forces (Hartrees/Bohr)
 Number     Number              X              Y              Z
 -------------------------------------------------------------------
      1        6           0.001643772    0.001499631   -0.000823999
      2        8          -0.001186653   -0.000866969    0.000413917
      3        6          -0.000358899   -0.001740419    0.002011128
      4        8           0.000414661    0.001232082   -0.001988727
      5        1          -0.000015795    0.000057759    0.000023745
      6        1          -0.000092113    0.000187225    0.000026938
      7        1          -0.000135790    0.000036144   -0.000169665
      8        1           0.000026325   -0.000226782    0.000014480
      9        1          -0.000065777    0.000138306    0.000140038
     10        1          -0.000229732   -0.000316979    0.000352145
 -------------------------------------------------------------------
 Cartesian Forces:  Max     0.002011128 RMS     0.000842181

 GradGradGradGradGradGradGradGradGradGradGradGradGradGradGradGradGradGrad
 Berny optimization.
 Using GEDIIS/GDIIS optimizer.
 FormGI is forming the generalized inverse of G from B-inverse, IUseBI=4.
 Internal  Forces:  Max     0.001442767 RMS     0.000424875
 Search for a local minimum.
 Step number   4 out of a maximum of   48 on scan point     1 out of    37
 All quantities printed in internal units (Hartrees-Bohrs-Radians)
 Mixed Optimization -- En-DIIS/RFO-DIIS
 Swapping is turned off.
 Update second derivatives using D2CorX and points    1    2    3    4
 DE= -3.89D-05 DEPred=-3.44D-05 R= 1.13D+00
 TightC=F SS=  1.41D+00  RLast= 4.49D-02 DXNew= 8.4853D-01 1.3456D-01
 Trust test= 1.13D+00 RLast= 4.49D-02 DXMaxT set to 5.05D-01
 ITU=  1  1  1  0
     Eigenvalues ---    0.00774   0.01299   0.01850   0.05003   0.05735
     Eigenvalues ---    0.05940   0.11485   0.12043   0.13419   0.13657
     Eigenvalues ---    0.16220   0.19252   0.22142   0.23868   0.33199
     Eigenvalues ---    0.33349   0.33662   0.34126   0.35938   0.42901
     Eigenvalues ---    0.49856   0.53931   0.567031000.000001000.00000
     Eigenvalues --- 1000.000001000.000001000.000001000.000001000.00000
     Eigenvalues --- 1000.000001000.000001000.000001000.000001000.00000
     Eigenvalues --- 1000.000001000.000001000.00000
 En-DIIS/RFO-DIIS IScMMF=        0 using points:     4    3
 RFO step:  Lambda=-3.97259990D-06.
 DidBck=F Rises=F RFO-DIIS coefs:    1.14631   -0.14631
 Iteration  1 RMS(Cart)=  0.00549373 RMS(Int)=  0.00008044
 Iteration  2 RMS(Cart)=  0.00007642 RMS(Int)=  0.00000061
 Iteration  3 RMS(Cart)=  0.00000001 RMS(Int)=  0.00000061
 Iteration  1 RMS(Cart)=  0.00000018 RMS(Int)=  0.00000018
 Variable       Old X    -DE/DX   Delta X   Delta X   Delta X     New X
                                 (Linear)    (Quad)   (Total)
    R1        2.66355  -0.00033   0.00036  -0.00092  -0.00056   2.66300
    R2        2.90340   0.00050  -0.00020   0.00047   0.00027   2.90367
    R3        2.09223   0.00003  -0.00005   0.00007   0.00003   2.09225
    R4        2.09143   0.00011   0.00019   0.00070   0.00089   2.09232
    R5        1.78946  -0.00002   0.00035   0.00018   0.00054   1.78999
    R6        2.64579   0.00021   0.00041   0.00009   0.00050   2.64629
    R7        2.08582  -0.00003   0.00008   0.00012   0.00020   2.08602
    R8        2.09309  -0.00001  -0.00012  -0.00023  -0.00035   2.09274
    R9        1.79327   0.00021   0.00037   0.00047   0.00084   1.79411
    A1        1.89000  -0.00025   0.00032  -0.00107  -0.00074   1.88926
    A2        1.92667   0.00059   0.00032   0.00047   0.00079   1.92746
    A3        1.91643  -0.00053   0.00026   0.00060   0.00086   1.91729
    A4        1.93630   0.00021  -0.00021   0.00031   0.00010   1.93641
    A5        1.91632   0.00009  -0.00040   0.00077   0.00036   1.91668
    A6        1.87827  -0.00011  -0.00029  -0.00105  -0.00134   1.87693
    A7        1.86028  -0.00038   0.00106  -0.00135  -0.00029   1.86000
    A8        1.99227  -0.00023   0.00005  -0.00169  -0.00163   1.99063
    A9        1.92453   0.00006   0.00001   0.00181   0.00182   1.92635
   A10        1.93530   0.00003  -0.00035  -0.00129  -0.00164   1.93366
   A11        1.80597  -0.00055  -0.00028  -0.00111  -0.00139   1.80458
   A12        1.91536   0.00070   0.00057   0.00207   0.00264   1.91799
   A13        1.88369  -0.00004   0.00001   0.00037   0.00038   1.88407
   A14        1.88120  -0.00051   0.00103  -0.00263  -0.00161   1.87960
    D1        2.91165   0.00030   0.00038   0.00252   0.00290   2.91456
    D2        0.78879  -0.00016   0.00024   0.00253   0.00277   0.79155
    D3       -1.27928  -0.00006   0.00024   0.00316   0.00340  -1.27588
    D4       -1.03696  -0.00144  -0.00000   0.00000  -0.00000  -1.03696
    D5       -3.06088  -0.00065   0.00032   0.00124   0.00156  -3.05932
    D6        1.13702  -0.00066   0.00052   0.00043   0.00095   1.13797
    D7        1.07997  -0.00074   0.00048   0.00008   0.00055   1.08052
    D8       -0.94394   0.00006   0.00079   0.00132   0.00211  -0.94184
    D9       -3.02924   0.00004   0.00100   0.00051   0.00151  -3.02773
   D10       -3.12928  -0.00070  -0.00027  -0.00054  -0.00081  -3.13010
   D11        1.12999   0.00010   0.00004   0.00070   0.00075   1.13073
   D12       -0.95530   0.00009   0.00025  -0.00011   0.00014  -0.95516
   D13        0.97625   0.00050   0.00355   0.02223   0.02577   1.00202
   D14        3.06810   0.00009   0.00340   0.02280   0.02621   3.09430
   D15       -1.20833   0.00007   0.00351   0.02356   0.02707  -1.18126
         Item               Value     Threshold  Converged?
 Maximum Force            0.000514     0.000450     NO 
 RMS     Force            0.000189     0.000300     YES
 Maximum Displacement     0.026947     0.001800     NO 
 RMS     Displacement     0.005500     0.001200     NO 
 Predicted change in Energy=-1.069655D-05
 GradGradGradGradGradGradGradGradGradGradGradGradGradGradGradGradGradGrad

                          Input orientation:                          
 ---------------------------------------------------------------------
 Center     Atomic      Atomic             Coordinates (Angstroms)
 Number     Number       Type             X           Y           Z
 ---------------------------------------------------------------------
      1          6           0        1.043638    2.174133    1.653148
      2          8           0        1.648303    2.150356    2.925803
      3          6           0        1.359949    0.847489    0.945353
      4          8           0        2.728383    0.602490    0.776962
      5          1           0        1.415235    3.035183    1.064640
      6          1           0       -0.052243    2.290797    1.759649
      7          1           0        1.616790    3.037431    3.256465
      8          1           0        0.973618    0.861953   -0.088608
      9          1           0        0.887218   -0.002794    1.474451
     10          1           0        3.132409    0.619562    1.635938
 ---------------------------------------------------------------------
                    Distance matrix (angstroms):
                    1          2          3          4          5
     1  C    0.000000
     2  O    1.409197   0.000000
     3  C    1.536558   2.388052   0.000000
     4  O    2.464981   2.860067   1.400354   0.000000
     5  H    1.107173   2.073925   2.191640   2.779408   0.000000
     6  H    1.107208   2.066759   2.177270   3.398226   1.786237
     7  H    1.909034   0.947224   3.194221   3.648632   2.201074
     8  H    2.181842   3.346917   1.103873   1.973761   2.499587
     9  H    2.189843   2.705868   1.107430   2.059793   3.110635
    10  H    2.603834   2.491917   1.915848   0.949404   3.018326
                    6          7          8          9         10
     6  H    0.000000
     7  H    2.362962   0.000000
     8  H    2.551478   4.041768   0.000000
     9  H    2.494892   3.598724   1.788409   0.000000
    10  H    3.598658   3.281661   2.773660   2.335441   0.000000
 Stoichiometry    C2H6O2
 Framework group  C1[X(C2H6O2)]
 Deg. of freedom    24
 Full point group                 C1      NOp   1
 Largest Abelian subgroup         C1      NOp   1
 Largest concise Abelian subgroup C1      NOp   1
                         Standard orientation:                         
 ---------------------------------------------------------------------
 Center     Atomic      Atomic             Coordinates (Angstroms)
 Number     Number       Type             X           Y           Z
 ---------------------------------------------------------------------
      1          6           0        0.716458    0.586190   -0.239107
      2          8           0        1.356586   -0.589040    0.202375
      3          6           0       -0.737255    0.557934    0.257816
      4          8           0       -1.474951   -0.541707   -0.197799
      5          1           0        0.756025    0.656456   -1.343339
      6          1           0        1.236016    1.473955    0.170578
      7          1           0        2.171229   -0.649369   -0.277156
      8          1           0       -1.296041    1.423063   -0.139482
      9          1           0       -0.775690    0.605438    1.363559
     10          1           0       -1.019841   -1.328309    0.076976
 ---------------------------------------------------------------------
 Rotational constants (GHZ):     15.8996493      5.3936036      4.4945001
 Standard basis: VSTO-6G (5D, 7F)
 There are    22 symmetry adapted cartesian basis functions of A   symmetry.
 There are    22 symmetry adapted basis functions of A   symmetry.
    22 basis functions,   132 primitive gaussians,    22 cartesian basis functions
    13 alpha electrons       13 beta electrons
       nuclear repulsion energy       101.0165884776 Hartrees.
 Integral buffers will be    131072 words long.
 Regular integral format.
 Two-electron integral symmetry is turned off.
 Do NDO integrals.
 One-electron integrals computed using PRISM.
 NBasis=    22 RedAO= F EigKep=  0.00D+00  NBF=    22
 NBsUse=    22 1.00D-04 EigRej=  0.00D+00 NBFU=    22
 Initial guess from the checkpoint file:  "1-2-ethanediol-opt.chk"
 B after Tr=     0.000000   -0.000000   -0.000000
         Rot=    1.000000   -0.000414    0.000048    0.000271 Ang=  -0.06 deg.
 Overlap will be assumed to be unity.
 Keep J ints in memory in canonical form, NReq=887849.
 Requested convergence on RMS density matrix=1.00D-08 within 128 cycles.
 Requested convergence on MAX density matrix=1.00D-06.
 Requested convergence on             energy=1.00D-06.
 No special actions if energy rises.
 SCF Done:  E(RPM3) = -0.155205670114     A.U. after   10 cycles
            NFock=  9  Conv=0.50D-08     -V/T= 0.9916
 Calling FoFJK, ICntrl=      2127 FMM=F ISym2X=0 I1Cent= 0 IOpClX= 0 NMat=1 NMatS=1 NMatT=0.
 ***** Axes restored to original set *****
 -------------------------------------------------------------------
 Center     Atomic                   Forces (Hartrees/Bohr)
 Number     Number              X              Y              Z
 -------------------------------------------------------------------
      1        6           0.001335043    0.001492890   -0.001127895
      2        8          -0.001179507   -0.000513414    0.000682139
      3        6          -0.000125412   -0.001635190    0.001797497
      4        8           0.000273936    0.001079247   -0.001347002
      5        1           0.000062274    0.000051221    0.000052681
      6        1           0.000139070    0.000097254    0.000053654
      7        1          -0.000098449   -0.000235554   -0.000233552
      8        1          -0.000048391   -0.000101291    0.000143175
      9        1          -0.000048544   -0.000051645    0.000097579
     10        1          -0.000310020   -0.000183518   -0.000118275
 -------------------------------------------------------------------
 Cartesian Forces:  Max     0.001797497 RMS     0.000746777

 GradGradGradGradGradGradGradGradGradGradGradGradGradGradGradGradGradGrad
 Berny optimization.
 Using GEDIIS/GDIIS optimizer.
 FormGI is forming the generalized inverse of G from B-inverse, IUseBI=4.
 Internal  Forces:  Max     0.001429513 RMS     0.000405873
 Search for a local minimum.
 Step number   5 out of a maximum of   48 on scan point     1 out of    37
 All quantities printed in internal units (Hartrees-Bohrs-Radians)
 Mixed Optimization -- En-DIIS/RFO-DIIS
 Swapping is turned off.
 Update second derivatives using D2CorX and points    1    2    3    4    5
 DE= -1.61D-05 DEPred=-1.07D-05 R= 1.51D+00
 TightC=F SS=  1.41D+00  RLast= 4.64D-02 DXNew= 8.4853D-01 1.3910D-01
 Trust test= 1.51D+00 RLast= 4.64D-02 DXMaxT set to 5.05D-01
 ITU=  1  1  1  1  0
     Eigenvalues ---    0.00407   0.01301   0.01857   0.05006   0.05769
     Eigenvalues ---    0.06012   0.11449   0.12017   0.13402   0.14012
     Eigenvalues ---    0.16247   0.19139   0.22212   0.23471   0.33311
     Eigenvalues ---    0.33639   0.33771   0.34232   0.35921   0.42329
     Eigenvalues ---    0.50085   0.53861   0.612091000.000001000.00000
     Eigenvalues --- 1000.000001000.000001000.000001000.000001000.00000
     Eigenvalues --- 1000.000001000.000001000.000001000.000001000.00000
     Eigenvalues --- 1000.000001000.000001000.00000
 En-DIIS/RFO-DIIS IScMMF=        0 using points:     5    4    3
 RFO step:  Lambda=-2.33729873D-06.
 DidBck=F Rises=F RFO-DIIS coefs:    2.11576   -1.23364    0.11788
 Iteration  1 RMS(Cart)=  0.00654367 RMS(Int)=  0.00012154
 Iteration  2 RMS(Cart)=  0.00011648 RMS(Int)=  0.00000128
 Iteration  3 RMS(Cart)=  0.00000003 RMS(Int)=  0.00000128
 Iteration  1 RMS(Cart)=  0.00000062 RMS(Int)=  0.00000063
 Variable       Old X    -DE/DX   Delta X   Delta X   Delta X     New X
                                 (Linear)    (Quad)   (Total)
    R1        2.66300  -0.00013  -0.00091   0.00073  -0.00018   2.66281
    R2        2.90367   0.00045   0.00047   0.00098   0.00145   2.90512
    R3        2.09225   0.00003   0.00007   0.00004   0.00011   2.09236
    R4        2.09232  -0.00012   0.00084  -0.00086  -0.00002   2.09230
    R5        1.78999  -0.00030   0.00031  -0.00059  -0.00028   1.78971
    R6        2.64629  -0.00002   0.00023  -0.00004   0.00019   2.64648
    R7        2.08602  -0.00012   0.00016  -0.00053  -0.00037   2.08564
    R8        2.09274   0.00011  -0.00029   0.00052   0.00023   2.09297
    R9        1.79411  -0.00024   0.00064  -0.00083  -0.00019   1.79393
    A1        1.88926  -0.00012  -0.00109   0.00025  -0.00084   1.88842
    A2        1.92746   0.00053   0.00062  -0.00095  -0.00033   1.92713
    A3        1.91729  -0.00059   0.00075  -0.00024   0.00052   1.91781
    A4        1.93641   0.00018   0.00028  -0.00009   0.00020   1.93660
    A5        1.91668   0.00003   0.00073   0.00061   0.00134   1.91803
    A6        1.87693  -0.00005  -0.00126   0.00041  -0.00085   1.87609
    A7        1.86000  -0.00031  -0.00118   0.00016  -0.00102   1.85898
    A8        1.99063  -0.00025  -0.00187  -0.00107  -0.00294   1.98769
    A9        1.92635  -0.00009   0.00202  -0.00067   0.00134   1.92769
   A10        1.93366   0.00018  -0.00154   0.00042  -0.00113   1.93253
   A11        1.80458  -0.00042  -0.00133   0.00183   0.00051   1.80509
   A12        1.91799   0.00060   0.00248   0.00003   0.00250   1.92050
   A13        1.88407  -0.00005   0.00042  -0.00044  -0.00002   1.88405
   A14        1.87960  -0.00034  -0.00262   0.00041  -0.00221   1.87739
    D1        2.91456   0.00030   0.00293   0.00093   0.00386   2.91842
    D2        0.79155  -0.00017   0.00290   0.00147   0.00436   0.79592
    D3       -1.27588  -0.00008   0.00360   0.00169   0.00529  -1.27059
    D4       -1.03696  -0.00143  -0.00000   0.00000  -0.00000  -1.03697
    D5       -3.05932  -0.00068   0.00148  -0.00118   0.00030  -3.05902
    D6        1.13797  -0.00067   0.00064  -0.00046   0.00019   1.13816
    D7        1.08052  -0.00074   0.00023  -0.00107  -0.00084   1.07968
    D8       -0.94184   0.00002   0.00171  -0.00225  -0.00053  -0.94237
    D9       -3.02773   0.00002   0.00087  -0.00153  -0.00065  -3.02838
   D10       -3.13010  -0.00066  -0.00068  -0.00022  -0.00091  -3.13101
   D11        1.13073   0.00009   0.00080  -0.00140  -0.00061   1.13013
   D12       -0.95516   0.00010  -0.00004  -0.00068  -0.00072  -0.95588
   D13        1.00202   0.00048   0.02590   0.00577   0.03167   1.03369
   D14        3.09430  -0.00004   0.02650   0.00558   0.03207   3.12638
   D15       -1.18126  -0.00006   0.02738   0.00601   0.03339  -1.14786
         Item               Value     Threshold  Converged?
 Maximum Force            0.000453     0.000450     NO 
 RMS     Force            0.000150     0.000300     YES
 Maximum Displacement     0.031772     0.001800     NO 
 RMS     Displacement     0.006550     0.001200     NO 
 Predicted change in Energy=-7.710111D-06
 GradGradGradGradGradGradGradGradGradGradGradGradGradGradGradGradGradGrad

                          Input orientation:                          
 ---------------------------------------------------------------------
 Center     Atomic      Atomic             Coordinates (Angstroms)
 Number     Number       Type             X           Y           Z
 ---------------------------------------------------------------------
      1          6           0        1.042799    2.175414    1.653149
      2          8           0        1.650542    2.152600    2.924248
      3          6           0        1.361509    0.848800    0.944710
      4          8           0        2.731226    0.611135    0.775396
      5          1           0        1.411472    3.037475    1.064175
      6          1           0       -0.053003    2.290795    1.761723
      7          1           0        1.614087    3.038930    3.255977
      8          1           0        0.973864    0.860639   -0.088581
      9          1           0        0.891564   -0.001938    1.475809
     10          1           0        3.129240    0.602749    1.637194
 ---------------------------------------------------------------------
                    Distance matrix (angstroms):
                    1          2          3          4          5
     1  C    0.000000
     2  O    1.409101   0.000000
     3  C    1.537325   2.387888   0.000000
     4  O    2.463373   2.856844   1.400455   0.000000
     5  H    1.107231   2.073652   2.192503   2.777097   0.000000
     6  H    1.107195   2.067033   2.178922   3.397944   1.785719
     7  H    1.908163   0.947076   3.194123   3.646295   2.201148
     8  H    2.183348   3.347267   1.103676   1.974089   2.501791
     9  H    2.189791   2.704821   1.107550   2.061745   3.110913
    10  H    2.612808   2.499019   1.914405   0.949306   3.034299
                    6          7          8          9         10
     6  H    0.000000
     7  H    2.360442   0.000000
     8  H    2.554100   4.042388   0.000000
     9  H    2.496112   3.596931   1.788331   0.000000
    10  H    3.604396   3.294104   2.773167   2.323550   0.000000
 Stoichiometry    C2H6O2
 Framework group  C1[X(C2H6O2)]
 Deg. of freedom    24
 Full point group                 C1      NOp   1
 Largest Abelian subgroup         C1      NOp   1
 Largest concise Abelian subgroup C1      NOp   1
                         Standard orientation:                         
 ---------------------------------------------------------------------
 Center     Atomic      Atomic             Coordinates (Angstroms)
 Number     Number       Type             X           Y           Z
 ---------------------------------------------------------------------
      1          6           0        0.716917    0.586620   -0.238281
      2          8           0        1.355216   -0.590261    0.201140
      3          6           0       -0.737559    0.558207    0.258772
      4          8           0       -1.472707   -0.541382   -0.201375
      5          1           0        0.756790    0.658423   -1.342461
      6          1           0        1.238010    1.473239    0.171901
      7          1           0        2.171261   -0.648105   -0.276016
      8          1           0       -1.296966    1.423786   -0.136117
      9          1           0       -0.774770    0.603551    1.364768
     10          1           0       -1.030549   -1.326704    0.096865
 ---------------------------------------------------------------------
 Rotational constants (GHZ):     15.8799702      5.3995177      4.4984960
 Standard basis: VSTO-6G (5D, 7F)
 There are    22 symmetry adapted cartesian basis functions of A   symmetry.
 There are    22 symmetry adapted basis functions of A   symmetry.
    22 basis functions,   132 primitive gaussians,    22 cartesian basis functions
    13 alpha electrons       13 beta electrons
       nuclear repulsion energy       101.0189723516 Hartrees.
 Integral buffers will be    131072 words long.
 Regular integral format.
 Two-electron integral symmetry is turned off.
 Do NDO integrals.
 One-electron integrals computed using PRISM.
 NBasis=    22 RedAO= F EigKep=  0.00D+00  NBF=    22
 NBsUse=    22 1.00D-04 EigRej=  0.00D+00 NBFU=    22
 Initial guess from the checkpoint file:  "1-2-ethanediol-opt.chk"
 B after Tr=    -0.000000    0.000000   -0.000000
         Rot=    1.000000   -0.000389    0.000133    0.000219 Ang=  -0.05 deg.
 Overlap will be assumed to be unity.
 Keep J ints in memory in canonical form, NReq=887849.
 Requested convergence on RMS density matrix=1.00D-08 within 128 cycles.
 Requested convergence on MAX density matrix=1.00D-06.
 Requested convergence on             energy=1.00D-06.
 No special actions if energy rises.
 SCF Done:  E(RPM3) = -0.155214225391     A.U. after   10 cycles
            NFock=  9  Conv=0.56D-08     -V/T= 0.9916
 Calling FoFJK, ICntrl=      2127 FMM=F ISym2X=0 I1Cent= 0 IOpClX= 0 NMat=1 NMatS=1 NMatT=0.
 ***** Axes restored to original set *****
 -------------------------------------------------------------------
 Center     Atomic                   Forces (Hartrees/Bohr)
 Number     Number              X              Y              Z
 -------------------------------------------------------------------
      1        6           0.001424548    0.001246336   -0.001408201
      2        8          -0.001255627   -0.000581744    0.000662844
      3        6          -0.000145597   -0.001300399    0.002080591
      4        8          -0.000024868    0.000798544   -0.001314280
      5        1           0.000081915   -0.000013890    0.000028454
      6        1           0.000118559   -0.000020943    0.000045995
      7        1          -0.000037468   -0.000097238   -0.000077427
      8        1          -0.000064942    0.000025819    0.000085652
      9        1          -0.000002912   -0.000057495   -0.000003584
     10        1          -0.000093609    0.000001011   -0.000100044
 -------------------------------------------------------------------
 Cartesian Forces:  Max     0.002080591 RMS     0.000739422

 GradGradGradGradGradGradGradGradGradGradGradGradGradGradGradGradGradGrad
 Berny optimization.
 Using GEDIIS/GDIIS optimizer.
 FormGI is forming the generalized inverse of G from B-inverse, IUseBI=4.
 Internal  Forces:  Max     0.001478228 RMS     0.000394698
 Search for a local minimum.
 Step number   6 out of a maximum of   48 on scan point     1 out of    37
 All quantities printed in internal units (Hartrees-Bohrs-Radians)
 Mixed Optimization -- En-DIIS/RFO-DIIS
 Swapping is turned off.
 Update second derivatives using D2CorX and points    1    2    3    4    5
                                                      6
 DE= -8.56D-06 DEPred=-7.71D-06 R= 1.11D+00
 TightC=F SS=  1.41D+00  RLast= 5.69D-02 DXNew= 8.4853D-01 1.7082D-01
 Trust test= 1.11D+00 RLast= 5.69D-02 DXMaxT set to 5.05D-01
 ITU=  1  1  1  1  1  0
     Eigenvalues ---    0.00400   0.01305   0.01825   0.05013   0.05763
     Eigenvalues ---    0.06014   0.11355   0.12031   0.13408   0.14170
     Eigenvalues ---    0.16258   0.18608   0.22265   0.22809   0.33274
     Eigenvalues ---    0.33597   0.33835   0.34114   0.35053   0.42565
     Eigenvalues ---    0.50027   0.53894   0.585951000.000001000.00000
     Eigenvalues --- 1000.000001000.000001000.000001000.000001000.00000
     Eigenvalues --- 1000.000001000.000001000.000001000.000001000.00000
     Eigenvalues --- 1000.000001000.000001000.00000
 En-DIIS/RFO-DIIS IScMMF=        0 using points:     6    5    4    3
 RFO step:  Lambda=-4.01788286D-07.
 DidBck=F Rises=F RFO-DIIS coefs:    1.29813   -0.59770    0.27756    0.02202
 Iteration  1 RMS(Cart)=  0.00057113 RMS(Int)=  0.00000056
 Iteration  2 RMS(Cart)=  0.00000043 RMS(Int)=  0.00000038
 Iteration  1 RMS(Cart)=  0.00000047 RMS(Int)=  0.00000048
 Variable       Old X    -DE/DX   Delta X   Delta X   Delta X     New X
                                 (Linear)    (Quad)   (Total)
    R1        2.66281  -0.00002   0.00006  -0.00000   0.00006   2.66287
    R2        2.90512   0.00005   0.00038  -0.00015   0.00023   2.90535
    R3        2.09236   0.00000   0.00003  -0.00004  -0.00001   2.09235
    R4        2.09230  -0.00012  -0.00030  -0.00010  -0.00040   2.09190
    R5        1.78971  -0.00012  -0.00030   0.00012  -0.00018   1.78953
    R6        2.64648  -0.00008  -0.00015   0.00007  -0.00008   2.64640
    R7        2.08564  -0.00006  -0.00018  -0.00002  -0.00021   2.08544
    R8        2.09297   0.00004   0.00019  -0.00005   0.00014   2.09311
    R9        1.79393  -0.00013  -0.00036   0.00017  -0.00020   1.79373
    A1        1.88842  -0.00003  -0.00008  -0.00025  -0.00033   1.88809
    A2        1.92713   0.00055  -0.00038  -0.00018  -0.00056   1.92656
    A3        1.91781  -0.00060  -0.00014  -0.00008  -0.00022   1.91759
    A4        1.93660   0.00012   0.00006  -0.00019  -0.00013   1.93648
    A5        1.91803  -0.00009   0.00035   0.00014   0.00049   1.91852
    A6        1.87609   0.00003   0.00019   0.00056   0.00075   1.87684
    A7        1.85898  -0.00010  -0.00038  -0.00014  -0.00052   1.85846
    A8        1.98769  -0.00008  -0.00040   0.00004  -0.00036   1.98733
    A9        1.92769  -0.00021  -0.00014  -0.00041  -0.00056   1.92713
   A10        1.93253   0.00020   0.00021   0.00006   0.00027   1.93280
   A11        1.80509  -0.00046   0.00061   0.00044   0.00105   1.80614
   A12        1.92050   0.00052  -0.00013   0.00005  -0.00008   1.92042
   A13        1.88405  -0.00001  -0.00012  -0.00017  -0.00030   1.88375
   A14        1.87739  -0.00008  -0.00033  -0.00004  -0.00037   1.87702
    D1        2.91842   0.00033   0.00023   0.00066   0.00089   2.91931
    D2        0.79592  -0.00014   0.00044   0.00116   0.00160   0.79752
    D3       -1.27059  -0.00015   0.00052   0.00063   0.00115  -1.26944
    D4       -1.03697  -0.00148  -0.00000   0.00000   0.00000  -1.03697
    D5       -3.05902  -0.00071  -0.00042  -0.00030  -0.00073  -3.05975
    D6        1.13816  -0.00069  -0.00031   0.00014  -0.00017   1.13799
    D7        1.07968  -0.00074  -0.00049  -0.00050  -0.00099   1.07870
    D8       -0.94237   0.00003  -0.00091  -0.00080  -0.00171  -0.94408
    D9       -3.02838   0.00005  -0.00080  -0.00036  -0.00115  -3.02953
   D10       -3.13101  -0.00068   0.00001   0.00017   0.00018  -3.13083
   D11        1.13013   0.00009  -0.00041  -0.00014  -0.00055   1.12958
   D12       -0.95588   0.00011  -0.00030   0.00031   0.00001  -0.95587
   D13        1.03369   0.00041   0.00119   0.00039   0.00158   1.03527
   D14        3.12638  -0.00019   0.00120   0.00019   0.00139   3.12777
   D15       -1.14786  -0.00021   0.00132   0.00024   0.00156  -1.14631
         Item               Value     Threshold  Converged?
 Maximum Force            0.000130     0.000450     YES
 RMS     Force            0.000055     0.000300     YES
 Maximum Displacement     0.001495     0.001800     YES
 RMS     Displacement     0.000571     0.001200     YES
 Predicted change in Energy=-2.652541D-07
 Optimization completed.
    -- Stationary point found.
                           ----------------------------
                           !   Optimized Parameters   !
                           ! (Angstroms and Degrees)  !
 --------------------------                            --------------------------
 ! Name  Definition              Value          Derivative Info.                !
 --------------------------------------------------------------------------------
 ! R1    R(1,2)                  1.4091         -DE/DX =    0.0                 !
 ! R2    R(1,3)                  1.5373         -DE/DX =    0.0                 !
 ! R3    R(1,5)                  1.1072         -DE/DX =    0.0                 !
 ! R4    R(1,6)                  1.1072         -DE/DX =   -0.0001              !
 ! R5    R(2,7)                  0.9471         -DE/DX =   -0.0001              !
 ! R6    R(3,4)                  1.4005         -DE/DX =   -0.0001              !
 ! R7    R(3,8)                  1.1037         -DE/DX =   -0.0001              !
 ! R8    R(3,9)                  1.1076         -DE/DX =    0.0                 !
 ! R9    R(4,10)                 0.9493         -DE/DX =   -0.0001              !
 ! A1    A(2,1,3)              108.1984         -DE/DX =    0.0                 !
 ! A2    A(2,1,5)              110.4161         -DE/DX =    0.0006              !
[...]
           A10        109.80416 110.08733 110.43455 110.71859 110.95086
           A11        102.83059 102.62757 102.52883 102.43392 102.44684
           A12        109.41919 109.57845 109.81341 110.06224 110.33552
           A13        107.49818 107.49734 107.45564 107.51957 107.51127
           A14        107.70159 107.67905 107.62183 107.56182 107.51389
           D1          53.70182  56.18864  58.06220  59.19797  59.57605
           D2         -69.84257 -67.68906 -66.16110 -65.35795 -65.26070
           D3         176.11391 178.34819 179.83912-179.47778-179.50159
           D4          90.58659 100.58656 110.58649 120.58659 130.58660
           D5         -26.28551 -15.84792  -5.40780   5.05550  15.37878
           D6        -146.08771-135.86133-125.52416-115.21948-104.89246
           D7        -146.06049-135.83010-125.52612-115.21505-104.90626
           D8          97.06740 107.73542 118.47959 129.25385 139.88593
           D9         -22.73480 -12.27799  -1.63676   8.97888  19.61468
           D10        -26.25871 -15.86282  -5.40832   5.04862  15.36934
           D11       -143.13082-132.29730-121.40261-110.48247 -99.83848
           D12         97.06698 107.68928 118.48103 129.24255 139.89028
           D13         53.59482  56.18493  58.06447  59.22811  59.55697
           D14        176.02801 178.35977 179.84171-179.44548-179.53013
           D15        -69.93866 -67.64248 -66.16159 -65.32250 -65.29891
                          21        22        23        24        25
     Eigenvalues --    -0.15527  -0.15575  -0.15617  -0.15642  -0.15643
           R1           1.39976   1.39970   1.39960   1.39961   1.39964
           R2           1.54357   1.54219   1.54128   1.54085   1.54131
           R3           1.10732   1.10761   1.10800   1.10846   1.10885
           R4           1.10507   1.10482   1.10438   1.10400   1.10362
           R5           0.94917   0.94923   0.94932   0.94939   0.94945
           R6           1.39977   1.39973   1.39960   1.39964   1.39963
           R7           1.10507   1.10482   1.10439   1.10401   1.10362
           R8           1.10732   1.10762   1.10801   1.10846   1.10885
           R9           0.94918   0.94924   0.94933   0.94940   0.94946
           A1         112.73891 112.55915 112.44845 112.43709 112.49866
           A2         110.56104 110.71691 110.75348 110.65093 110.45992
           A3         102.56248 102.72038 102.90277 103.03903 103.10694
           A4         111.01391 111.00248 110.93118 110.90020 110.93878
           A5         111.98210 111.85187 111.80230 111.83534 111.89356
           A6         107.58349 107.61164 107.64769 107.63260 107.59113
           A7         107.44753 107.41869 107.41958 107.47948 107.55609
           A8         112.74691 112.56185 112.45535 112.43753 112.50230
           A9         111.97902 111.84696 111.80107 111.83755 111.89839
           A10        111.01378 111.01609 110.92992 110.90804 110.93114
           A11        102.55251 102.71844 102.89777 103.03662 103.09880
           A12        110.56007 110.71429 110.75064 110.64694 110.45610
           A13        107.58894 107.60282 107.65076 107.62741 107.60283
           A14        107.45307 107.42157 107.42500 107.48203 107.56115
           D1          59.53328  59.41345  59.27001  59.34446  59.55684
           D2         -65.38971 -65.47985 -65.47456 -65.27263 -65.01107
           D3        -179.85545 179.87527 179.72845 179.92045-179.72369
           D4         140.58659 150.58655 160.58660 170.58653-179.41345
           D5          25.54018  35.53535  45.40761  55.22096  65.06174
           D6         -94.73311 -84.66753 -74.76606 -64.93267 -55.11756
           D7         -94.73778 -84.67663 -74.76654 -64.93373 -55.10943
           D8         150.21582 160.27217 170.05447 179.70070-170.63424
           D9          29.94252  40.06929  49.88080  59.54707  69.18646
           D10         25.53075  35.53145  45.40493  55.21963  65.05698
           D11        -89.51566 -79.51975 -69.77406 -60.14594 -50.46783
           D12        150.21105 160.27737 170.05226 179.70042-170.64714
           D13         59.50123  59.38579  59.22672  59.31098  59.51952
           D14       -179.89330 179.84192 179.68412 179.88837-179.75839
           D15        -65.42685 -65.52546 -65.51919 -65.31367 -65.03817
                          26        27        28        29        30
     Eigenvalues --    -0.15622  -0.15589  -0.15555  -0.15533  -0.15531
           R1           1.39980   1.39996   1.40024   1.40055   1.40095
           R2           1.54222   1.54359   1.54470   1.54538   1.54511
           R3           1.10915   1.10930   1.10927   1.10910   1.10885
           R4           1.10342   1.10328   1.10333   1.10341   1.10355
           R5           0.94947   0.94946   0.94939   0.94928   0.94914
           R6           1.39983   1.39995   1.40027   1.40056   1.40099
           R7           1.10342   1.10328   1.10331   1.10339   1.10353
           R8           1.10914   1.10928   1.10925   1.10907   1.10883
           R9           0.94947   0.94947   0.94939   0.94928   0.94914
           A1         112.61818 112.75317 112.87797 112.96671 113.01813
           A2         110.25754 110.12239 110.10723 110.22488 110.42091
           A3         103.07518 102.95965 102.77006 102.55790 102.37395
           A4         111.07437 111.27309 111.51166 111.70334 111.80254
           A5         111.94256 111.92274 111.82258 111.64102 111.42106
           A6         107.49509 107.39435 107.29049 107.24744 107.28060
           A7         107.63127 107.67940 107.71084 107.71120 107.68405
           A8         112.61731 112.75450 112.87746 112.96675 113.01806
           A9         111.94980 111.92946 111.83036 111.64496 111.42348
           A10        111.07608 111.26339 111.50926 111.69729 111.80706
           A11        103.06670 102.94705 102.75483 102.54016 102.35811
           A12        110.25487 110.12083 110.10736 110.22624 110.42041
           A13        107.49765 107.41103 107.30053 107.26630 107.28896
           A14        107.63368 107.68469 107.71404 107.71596 107.68635
           D1          59.92106  60.39726  61.18848  62.08587  62.78889
           D2         -64.75869 -64.53944 -64.14317 -63.65794 -63.28128
           D3        -179.25851-178.80829-178.19152-177.59880-177.24706
           D4        -169.41368-159.41376-149.41366-139.41344-129.41346
           D5          74.99423  85.06982  95.29828 105.63313 115.97329
           D6         -45.18584 -35.11533 -24.84784 -14.47134  -4.08281
           D7         -45.18298 -35.10678 -24.84574 -14.46839  -4.08572
           D8        -160.77507-150.62321-140.13381-129.42182-118.69897
           D9          79.04486  89.19164  99.72007 110.47371 121.24493
           D10         74.98772  85.05919  95.28385 105.61342 115.95494
           D11        -40.60436 -30.45724 -20.00421  -9.34001   1.34169
           D12       -160.78443-150.64239-140.15033-129.44448-118.71441
           D13         59.90333  60.37976  61.19461  62.10420  62.81817
           D14       -179.27328-178.82490-178.18582-177.58675-177.22469
           D15        -64.77599 -64.54401 -64.13360 -63.63270 -63.25757
                          31        32        33        34        35
     Eigenvalues --    -0.15551  -0.15587  -0.15631  -0.15670  -0.15694
           R1           1.40132   1.40172   1.40199   1.40219   1.40218
           R2           1.54414   1.54260   1.54101   1.53961   1.53891
           R3           1.10856   1.10823   1.10788   1.10752   1.10725
           R4           1.10362   1.10373   1.10372   1.10374   1.10375
           R5           0.94903   0.94899   0.94896   0.94888   0.94887
           R6           1.40133   1.40173   1.40198   1.40220   1.40236
           R7           1.10361   1.10373   1.10372   1.10373   1.10363
           R8           1.10854   1.10823   1.10787   1.10751   1.10708
           R9           0.94904   0.94899   0.94896   0.94887   0.94886
           A1         113.03022 113.00573 112.96405 112.93308 112.92105
           A2         110.62521 110.78920 110.92064 111.00820 111.00860
           A3         102.27531 102.30144 102.40743 102.59314 102.86082
           A4         111.80227 111.74505 111.62448 111.48453 111.36874
           A5         111.17990 110.92814 110.69781 110.47703 110.29759
           A6         107.40072 107.55744 107.73946 107.88896 107.95737
           A7         107.62580 107.54730 107.49748 107.49502 107.46664
           A8         113.02958 113.00562 112.96443 112.93219 112.90528
           A9         111.18048 110.93113 110.70020 110.47550 110.30321
           A10        111.80551 111.74124 111.61424 111.48683 111.36376
           A11        102.26146 102.29944 102.40487 102.59250 102.83812
           A12        110.62446 110.78935 110.92183 111.00675 110.98499
           A13        107.41144 107.56071 107.74975 107.89102 108.02229
           A14        107.62877 107.54752 107.49933 107.49433 107.46477
           D1          63.25152  63.87811  65.06797  67.77772  71.04587
           D2         -62.99106 -62.40069 -61.12254 -58.27152 -54.83940
           D3        -177.12704-176.79659-175.83688-173.29239-170.08130
           D4        -119.41341-109.41352 -99.41350 -89.41352 -79.41343
           D5         126.24378 136.37049 146.41116 156.33983 166.16037
           D6           6.19975  16.35066  26.39350  36.37928  46.23019
           D7           6.19864  16.35364  26.39987  36.38007  46.27820
           D8        -108.14417 -97.86235 -87.77546 -77.86657 -68.14801
           D9         131.81180 142.11781 152.20687 162.17287 171.92181
           D10        126.22644 136.36984 146.40972 156.33753 166.12635
           D11         11.88363  22.15385  32.23439  42.09089  51.70015
           D12       -108.16041 -97.86598 -87.78328 -77.86966 -68.23003
           D13         63.26392  63.87646  65.05616  67.77910  71.00938
           D14       -177.12274-176.79595-175.84722-173.29366-170.13268
           D15        -62.98189 -62.39727 -61.12189 -58.27136 -54.83808
                          36        37
     Eigenvalues --    -0.15701  -0.15687
           R1           1.40221   1.40200
           R2           1.53894   1.53977
           R3           1.10697   1.10686
           R4           1.10361   1.10352
           R5           0.94890   0.94906
           R6           1.40220   1.40202
           R7           1.10362   1.10351
           R8           1.10698   1.10684
           R9           0.94890   0.94906
           A1         112.89996 113.01128
           A2         110.88587 110.67029
           A3         103.17745 103.39875
           A4         111.21848 111.11227
           A5         110.27219 110.34890
           A6         107.99787 107.92761
           A7         107.36491 107.29238
           A8         112.90043 113.01188
           A9         110.27163 110.34885
           A10        111.22124 111.11156
           A11        103.17916 103.39600
           A12        110.88745 110.66724
           A13        107.99137 107.93380
           A14        107.36482 107.29135
           D1          73.36447  74.22704
           D2         -52.20628 -51.11754
           D3        -167.61013-166.46268
           D4         -69.41356 -59.41367
           D5         175.76011-174.62667
           D6          55.98224  65.68782
           D7          55.97758  65.69199
           D8         -58.84875 -49.52101
           D9        -178.62662-169.20652
           D10        175.76217-174.62976
           D11         60.93584  70.15724
           D12        -58.84203 -49.52827
           D13         73.36955  74.21060
           D14       -167.60443-166.48058
           D15        -52.20648 -51.13109
                          Input orientation:                          
 ---------------------------------------------------------------------
 Center     Atomic      Atomic             Coordinates (Angstroms)
 Number     Number       Type             X           Y           Z
 ---------------------------------------------------------------------
      1          6           0        1.527807    2.160202    2.171265
      2          8           0        0.672561    2.973771    1.414778
      3          6           0        2.096416    0.975056    1.369387
      4          8           0        1.100623    0.128621    0.861851
      5          1           0        1.022500    1.812381    3.092580
      6          1           0        2.338802    2.847465    2.467437
      7          1           0       -0.144308    2.502439    1.308563
      8          1           0        2.683735    0.312586    2.028118
      9          1           0        2.762097    1.325736    0.557601
     10          1           0        0.693068    0.578344    0.132220
 ---------------------------------------------------------------------
                    Distance matrix (angstroms):
                    1          2          3          4          5
     1  C    0.000000
     2  O    1.402004   0.000000
     3  C    1.539771   2.454442   0.000000
     4  O    2.454460   2.929820   1.402015   0.000000
     5  H    1.106859   2.070339   2.196316   2.795944   0.000000
     6  H    1.103522   1.974944   2.184120   3.391623   1.787416
     7  H    1.912421   0.949058   2.712461   2.717429   2.240611
     8  H    2.184111   3.391594   1.103510   1.974909   2.478340
     9  H    2.196296   2.795878   1.106845   2.070301   3.112739
    10  H    2.712337   2.717250   1.912419   0.949059   3.224144
                    6          7          8          9         10
     6  H    0.000000
     7  H    2.761860   0.000000
     8  H    2.595687   3.648430   0.000000
     9  H    2.478369   3.224247   1.787465   0.000000
    10  H    3.648368   2.405644   2.761849   2.240630   0.000000
 Stoichiometry    C2H6O2
 Framework group  C1[X(C2H6O2)]
 Deg. of freedom    24
 Full point group                 C1      NOp   1
 Largest Abelian subgroup         C1      NOp   1
 Largest concise Abelian subgroup C1      NOp   1
                         Standard orientation:                         
 ---------------------------------------------------------------------
 Center     Atomic      Atomic             Coordinates (Angstroms)
 Number     Number       Type             X           Y           Z
 ---------------------------------------------------------------------
      1          6           0        0.730768   -0.581475    0.242279
      2          8           0        1.452230    0.539369   -0.192252
      3          6           0       -0.730769   -0.581480   -0.242287
      4          8           0       -1.452252    0.539368    0.192235
      5          1           0        0.785692   -0.678624    1.343498
      6          1           0        1.282126   -1.428215   -0.201339
      7          1           0        1.158853    1.280686    0.322617
      8          1           0       -1.282130   -1.428179    0.201375
      9          1           0       -0.785675   -0.678559   -1.343498
     10          1           0       -1.158686    1.280725   -0.322471
 ---------------------------------------------------------------------
 Rotational constants (GHZ):     15.7056531      5.3724772      4.4590541

 **********************************************************************

            Population analysis using the SCF density.

 **********************************************************************

 Orbital symmetries:
       Occupied  (A) (A) (A) (A) (A) (A) (A) (A) (A) (A) (A) (A)
                 (A)
       Virtual   (A) (A) (A) (A) (A) (A) (A) (A) (A)
 The electronic state is 1-A.
 Alpha  occ. eigenvalues --   -1.47355  -1.33894  -1.06872  -0.82211  -0.67429
 Alpha  occ. eigenvalues --   -0.66697  -0.61570  -0.57022  -0.53907  -0.49005
 Alpha  occ. eigenvalues --   -0.45220  -0.43841  -0.40437
 Alpha virt. eigenvalues --    0.11039   0.12307   0.12588   0.13868   0.14693
 Alpha virt. eigenvalues --    0.15237   0.16657   0.20030   0.20061
          Condensed to atoms (all electrons):
               1          2          3          4          5          6
     1  C    3.972422   0.000000   0.000000   0.000000   0.000000   0.000000
     2  O    0.000000   6.307755   0.000000   0.000000   0.000000   0.000000
     3  C    0.000000   0.000000   3.972416   0.000000   0.000000   0.000000
     4  O    0.000000   0.000000   0.000000   6.307762   0.000000   0.000000
     5  H    0.000000   0.000000   0.000000   0.000000   0.963264   0.000000
     6  H    0.000000   0.000000   0.000000   0.000000   0.000000   0.940711
     7  H    0.000000   0.000000   0.000000   0.000000   0.000000   0.000000
     8  H    0.000000   0.000000   0.000000   0.000000   0.000000   0.000000
     9  H    0.000000   0.000000   0.000000   0.000000   0.000000   0.000000
    10  H    0.000000   0.000000   0.000000   0.000000   0.000000   0.000000
               7          8          9         10
     1  C    0.000000   0.000000   0.000000   0.000000
     2  O    0.000000   0.000000   0.000000   0.000000
     3  C    0.000000   0.000000   0.000000   0.000000
     4  O    0.000000   0.000000   0.000000   0.000000
     5  H    0.000000   0.000000   0.000000   0.000000
     6  H    0.000000   0.000000   0.000000   0.000000
     7  H    0.815851   0.000000   0.000000   0.000000
     8  H    0.000000   0.940707   0.000000   0.000000
     9  H    0.000000   0.000000   0.963260   0.000000
    10  H    0.000000   0.000000   0.000000   0.815853
 Mulliken charges:
               1
     1  C    0.027578
     2  O   -0.307755
     3  C    0.027584
     4  O   -0.307762
     5  H    0.036736
     6  H    0.059289
     7  H    0.184149
     8  H    0.059293
     9  H    0.036740
    10  H    0.184147
 Sum of Mulliken charges =   0.00000
 Mulliken charges with hydrogens summed into heavy atoms:
               1
     1  C    0.123603
     2  O   -0.123606
     3  C    0.123618
     4  O   -0.123615
 Charge=              0.0000 electrons
 Dipole moment (field-independent basis, Debye):
    X=              0.0003    Y=             -0.0504    Z=              0.0003  Tot=              0.0504
 N-N= 1.010860236366D+02 E-N=-1.648652265423D+02  KE=-1.851135409104D+01
 1\1\GINC-GTX1080DELTA\Scan\RPM3\ZDO\C2H6O2\MVEROT\18-Apr-2022\0\\#n PM
 3 Opt=modredundant\\Optimisation de geometrie\\0,1\C,1.5278073757,2.16
 02015698,2.1712653935\O,0.6725607922,2.9737713032,1.4147776766\C,2.096
 4155065,0.9750555644,1.3693872044\O,1.1006232669,0.1286209907,0.861850
 682\H,1.0224995427,1.8123810879,3.0925801696\H,2.3388020451,2.84746484
 82,2.4674373194\H,-0.1443083745,2.5024390496,1.3085630107\H,2.68373481
 32,0.3125864079,2.0281178241\H,2.7620970001,1.3257355051,0.55760083\H,
 0.693068032,0.5783436732,0.1322198896\\Version=AM64L-G09RevD.01\State=
 1-A\HF=-0.1552142,-0.1565505,-0.1561322,-0.1557293,-0.1554536,-0.15538
 11,-0.1555286,-0.1558548,-0.156275,-0.1566827,-0.1569741,-0.1570644,-0
 .1569027,-0.1564994,-0.1559353,-0.1553388,-0.1548524,-0.1545892,-0.154
 5949,-0.1548457,-0.1552655,-0.1557478,-0.1561699,-0.1564178,-0.156429,
 -0.1562225,-0.155886,-0.1555452,-0.1553257,-0.1553091,-0.1555063,-0.15
 58699,-0.1563089,-0.1566974,-0.1569429,-0.1570053,-0.156867\RMSD=5.570
 e-09,4.312e-09,7.879e-09,3.026e-09,2.935e-09,3.507e-09,2.074e-09,1.888
 e-09,5.170e-09,8.739e-09,4.324e-09,2.169e-09,2.978e-09,2.971e-09,2.377
 e-09,4.394e-09,5.601e-09,3.391e-09,4.213e-09,2.295e-09,2.100e-09,1.657
 e-09,9.053e-09,2.267e-09,2.084e-09,1.724e-09,4.509e-09,3.512e-09,2.873
 e-09,1.983e-09,1.242e-09,2.705e-09,4.264e-09,3.001e-09,2.409e-09,2.885
 e-09,3.161e-09\PG=C01 [X(C2H6O2)]\\@


 IN THE WOODS WE RETURN TO REASON AND FAITH.

                                 -- EMERSON
 Job cpu time:       0 days  0 hours  1 minutes 18.5 seconds.
 File lengths (MBytes):  RWF=     72 Int=      0 D2E=      0 Chk=      4 Scr=      2
 Normal termination of Gaussian 09 at Mon Apr 18 00:11:20 2022.
