 Entering Gaussian System, Link 0=g09
 Input=/scratch/mverot/cyclohexane-opt/cyclohexane-opt.com
 Output=/scratch/mverot/cyclohexane-opt/cyclohexane-opt.log
 Initial command:
 /opt/g09/l1.exe "/scratch/mverot/cyclohexane-opt/Gau-760201.inp" -scrdir="/scratch/mverot/cyclohexane-opt/"
 Entering Link 1 = /opt/g09/l1.exe PID=    760203.
  
 Copyright (c) 1988,1990,1992,1993,1995,1998,2003,2009,2013,
            Gaussian, Inc.  All Rights Reserved.
  
 This is part of the Gaussian(R) 09 program.  It is based on
 the Gaussian(R) 03 system (copyright 2003, Gaussian, Inc.),
 the Gaussian(R) 98 system (copyright 1998, Gaussian, Inc.),
 the Gaussian(R) 94 system (copyright 1995, Gaussian, Inc.),
 the Gaussian 92(TM) system (copyright 1992, Gaussian, Inc.),
 the Gaussian 90(TM) system (copyright 1990, Gaussian, Inc.),
 the Gaussian 88(TM) system (copyright 1988, Gaussian, Inc.),
 the Gaussian 86(TM) system (copyright 1986, Carnegie Mellon
 University), and the Gaussian 82(TM) system (copyright 1983,
 Carnegie Mellon University). Gaussian is a federally registered
 trademark of Gaussian, Inc.
  
 This software contains proprietary and confidential information,
 including trade secrets, belonging to Gaussian, Inc.
  
 This software is provided under written license and may be
 used, copied, transmitted, or stored only in accord with that
 written license.
  
 The following legend is applicable only to US Government
 contracts under FAR:
  
                    RESTRICTED RIGHTS LEGEND
  
 Use, reproduction and disclosure by the US Government is
 subject to restrictions as set forth in subparagraphs (a)
 and (c) of the Commercial Computer Software - Restricted
 Rights clause in FAR 52.227-19.
  
 Gaussian, Inc.
 340 Quinnipiac St., Bldg. 40, Wallingford CT 06492
  
  
 ---------------------------------------------------------------
 Warning -- This program may not be used in any manner that
 competes with the business of Gaussian, Inc. or will provide
 assistance to any competitor of Gaussian, Inc.  The licensee
 of this program is prohibited from giving any competitor of
 Gaussian, Inc. access to this program.  By using this program,
 the user acknowledges that Gaussian, Inc. is engaged in the
 business of creating and licensing software in the field of
 computational chemistry and represents and warrants to the
 licensee that it is not a competitor of Gaussian, Inc. and that
 it will not use this program in any manner prohibited above.
 ---------------------------------------------------------------
  

 Cite this work as:
 Gaussian 09, Revision D.01,
 M. J. Frisch, G. W. Trucks, H. B. Schlegel, G. E. Scuseria, 
 M. A. Robb, J. R. Cheeseman, G. Scalmani, V. Barone, B. Mennucci, 
 G. A. Petersson, H. Nakatsuji, M. Caricato, X. Li, H. P. Hratchian, 
 A. F. Izmaylov, J. Bloino, G. Zheng, J. L. Sonnenberg, M. Hada, 
 M. Ehara, K. Toyota, R. Fukuda, J. Hasegawa, M. Ishida, T. Nakajima, 
 Y. Honda, O. Kitao, H. Nakai, T. Vreven, J. A. Montgomery, Jr., 
 J. E. Peralta, F. Ogliaro, M. Bearpark, J. J. Heyd, E. Brothers, 
 K. N. Kudin, V. N. Staroverov, T. Keith, R. Kobayashi, J. Normand, 
 K. Raghavachari, A. Rendell, J. C. Burant, S. S. Iyengar, J. Tomasi, 
 M. Cossi, N. Rega, J. M. Millam, M. Klene, J. E. Knox, J. B. Cross, 
 V. Bakken, C. Adamo, J. Jaramillo, R. Gomperts, R. E. Stratmann, 
 O. Yazyev, A. J. Austin, R. Cammi, C. Pomelli, J. W. Ochterski, 
 R. L. Martin, K. Morokuma, V. G. Zakrzewski, G. A. Voth, 
 P. Salvador, J. J. Dannenberg, S. Dapprich, A. D. Daniels, 
 O. Farkas, J. B. Foresman, J. V. Ortiz, J. Cioslowski, 
 and D. J. Fox, Gaussian, Inc., Wallingford CT, 2013.
 
 ******************************************
 Gaussian 09:  AM64L-G09RevD.01 24-Apr-2013
                16-Apr-2022 
 ******************************************
 %chk=cyclohexane-opt
 ---------------
 #n AM1 Opt freq
 ---------------
 1/14=-1,18=20,19=15,26=1,38=1/1,3;
 2/9=110,12=2,17=6,18=5,40=1/2;
 3/5=2,16=1,25=1,41=700000,71=1/1,2,3;
 4/35=1/1;
 5/5=2,35=1,38=5/2;
 6/7=2,8=2,9=2,10=2,28=1/1;
 7//1,2,3,16;
 1/14=-1,18=20,19=15,26=1/3(2);
 2/9=110/2;
 99//99;
 2/9=110/2;
 3/5=2,16=1,25=1,41=700000,71=1,135=20/1,2,3;
 4/5=5,16=3,35=1/1;
 5/5=2,35=1,38=5/2;
 7//1,2,3,16;
 1/14=-1,18=20,19=15,26=1/3(-5);
 2/9=110/2;
 6/7=2,8=2,9=2,10=2,19=2,28=1/1;
 99/9=1/99;
 -------------------------
 Optimisation de geometrie
 -------------------------
 Symbolic Z-matrix:
 Charge =  0 Multiplicity = 1
 C                     1.7967    3.4976    1.1955 
 C                     1.0353    2.2586    1.6935 
 C                     1.7       0.9586    1.2132 
 C                     3.1844    0.9057    1.609 
 C                     3.9458    2.1447    1.111 
 C                     3.2811    3.4447    1.5913 
 H                     1.3316    4.4119    1.5863 
 H                     1.718     3.5518    0.0992 
 H                    -0.0104    2.2962    1.3615 
 H                     1.0135    2.2669    2.7937 
 H                     1.6167    0.895     0.1177 
 H                     1.1678    0.0875    1.6168 
 H                     3.6495   -0.0086    1.2181 
 H                     3.2631    0.8514    2.7052 
 H                     3.9677    2.1364    0.0109 
 H                     4.9914    2.1071    1.4431 
 H                     3.8133    4.3157    1.1876 
 H                     3.3643    3.5083    2.6868 
 

 GradGradGradGradGradGradGradGradGradGradGradGradGradGradGradGradGradGrad
 Berny optimization.
 Initialization pass.
                           ----------------------------
                           !    Initial Parameters    !
                           ! (Angstroms and Degrees)  !
 --------------------------                            --------------------------
 ! Name  Definition              Value          Derivative Info.                !
 --------------------------------------------------------------------------------
 ! R1    R(1,2)                  1.5372         estimate D2E/DX2                !
 ! R2    R(1,6)                  1.5372         estimate D2E/DX2                !
 ! R3    R(1,7)                  1.0977         estimate D2E/DX2                !
 ! R4    R(1,8)                  1.1005         estimate D2E/DX2                !
 ! R5    R(2,3)                  1.537          estimate D2E/DX2                !
 ! R6    R(2,9)                  1.0978         estimate D2E/DX2                !
 ! R7    R(2,10)                 1.1004         estimate D2E/DX2                !
 ! R8    R(3,4)                  1.5372         estimate D2E/DX2                !
 ! R9    R(3,11)                 1.1005         estimate D2E/DX2                !
 ! R10   R(3,12)                 1.0977         estimate D2E/DX2                !
 ! R11   R(4,5)                  1.5372         estimate D2E/DX2                !
 ! R12   R(4,13)                 1.0978         estimate D2E/DX2                !
 ! R13   R(4,14)                 1.1004         estimate D2E/DX2                !
 ! R14   R(5,6)                  1.537          estimate D2E/DX2                !
 ! R15   R(5,15)                 1.1003         estimate D2E/DX2                !
 ! R16   R(5,16)                 1.0977         estimate D2E/DX2                !
 ! R17   R(6,17)                 1.0977         estimate D2E/DX2                !
 ! R18   R(6,18)                 1.1005         estimate D2E/DX2                !
 ! A1    A(2,1,6)              111.541          estimate D2E/DX2                !
 ! A2    A(2,1,7)              110.2516         estimate D2E/DX2                !
 ! A3    A(2,1,8)              109.0884         estimate D2E/DX2                !
 ! A4    A(6,1,7)              110.2518         estimate D2E/DX2                !
 ! A5    A(6,1,8)              109.1031         estimate D2E/DX2                !
 ! A6    A(7,1,8)              106.4598         estimate D2E/DX2                !
 ! A7    A(1,2,3)              111.4865         estimate D2E/DX2                !
 ! A8    A(1,2,9)              110.2577         estimate D2E/DX2                !
 ! A9    A(1,2,10)             109.1253         estimate D2E/DX2                !
 ! A10   A(3,2,9)              110.2673         estimate D2E/DX2                !
 ! A11   A(3,2,10)             109.1085         estimate D2E/DX2                !
 ! A12   A(9,2,10)             106.4532         estimate D2E/DX2                !
 ! A13   A(2,3,4)              111.4847         estimate D2E/DX2                !
 ! A14   A(2,3,11)             109.0994         estimate D2E/DX2                !
 ! A15   A(2,3,12)             110.2809         estimate D2E/DX2                !
 ! A16   A(4,3,11)             109.1123         estimate D2E/DX2                !
 ! A17   A(4,3,12)             110.2554         estimate D2E/DX2                !
 ! A18   A(11,3,12)            106.466          estimate D2E/DX2                !
 ! A19   A(3,4,5)              111.541          estimate D2E/DX2                !
 ! A20   A(3,4,13)             110.2497         estimate D2E/DX2                !
 ! A21   A(3,4,14)             109.1036         estimate D2E/DX2                !
 ! A22   A(5,4,13)             110.2492         estimate D2E/DX2                !
 ! A23   A(5,4,14)             109.0927         estimate D2E/DX2                !
 ! A24   A(13,4,14)            106.4597         estimate D2E/DX2                !
 ! A25   A(4,5,6)              111.4865         estimate D2E/DX2                !
 ! A26   A(4,5,15)             109.128          estimate D2E/DX2                !
 ! A27   A(4,5,16)             110.2544         estimate D2E/DX2                !
 ! A28   A(6,5,15)             109.1109         estimate D2E/DX2                !
 ! A29   A(6,5,16)             110.2644         estimate D2E/DX2                !
 ! A30   A(15,5,16)            106.4544         estimate D2E/DX2                !
 ! A31   A(1,6,5)              111.4847         estimate D2E/DX2                !
 ! A32   A(1,6,17)             110.255          estimate D2E/DX2                !
 ! A33   A(1,6,18)             109.1071         estimate D2E/DX2                !
 ! A34   A(5,6,17)             110.2753         estimate D2E/DX2                !
 ! A35   A(5,6,18)             109.1019         estimate D2E/DX2                !
 ! A36   A(17,6,18)            106.4752         estimate D2E/DX2                !
 ! D1    D(6,1,2,3)            -54.6516         estimate D2E/DX2                !
 ! D2    D(6,1,2,9)           -177.4782         estimate D2E/DX2                !
 ! D3    D(6,1,2,10)            65.9365         estimate D2E/DX2                !
 ! D4    D(7,1,2,3)           -177.4919         estimate D2E/DX2                !
 ! D5    D(7,1,2,9)             59.6815         estimate D2E/DX2                !
 ! D6    D(7,1,2,10)           -56.9037         estimate D2E/DX2                !
 ! D7    D(8,1,2,3)             65.9399         estimate D2E/DX2                !
 ! D8    D(8,1,2,9)            -56.8867         estimate D2E/DX2                !
 ! D9    D(8,1,2,10)          -173.4719         estimate D2E/DX2                !
 ! D10   D(2,1,6,5)             54.6507         estimate D2E/DX2                !
 ! D11   D(2,1,6,17)           177.4842         estimate D2E/DX2                !
 ! D12   D(2,1,6,18)           -65.9161         estimate D2E/DX2                !
 ! D13   D(7,1,6,5)            177.4908         estimate D2E/DX2                !
 ! D14   D(7,1,6,17)           -59.6756         estimate D2E/DX2                !
 ! D15   D(7,1,6,18)            56.9241         estimate D2E/DX2                !
 ! D16   D(8,1,6,5)            -65.9323         estimate D2E/DX2                !
 ! D17   D(8,1,6,17)            56.9013         estimate D2E/DX2                !
 ! D18   D(8,1,6,18)           173.5009         estimate D2E/DX2                !
 ! D19   D(1,2,3,4)             54.6204         estimate D2E/DX2                !
 ! D20   D(1,2,3,11)           -65.9543         estimate D2E/DX2                !
 ! D21   D(1,2,3,12)           177.4469         estimate D2E/DX2                !
 ! D22   D(9,2,3,4)            177.4415         estimate D2E/DX2                !
 ! D23   D(9,2,3,11)            56.8668         estimate D2E/DX2                !
 ! D24   D(9,2,3,12)           -59.732          estimate D2E/DX2                !
 ! D25   D(10,2,3,4)           -65.9777         estimate D2E/DX2                !
 ! D26   D(10,2,3,11)          173.4477         estimate D2E/DX2                !
 ! D27   D(10,2,3,12)           56.8488         estimate D2E/DX2                !
 ! D28   D(2,3,4,5)            -54.6507         estimate D2E/DX2                !
 ! D29   D(2,3,4,13)          -177.4861         estimate D2E/DX2                !
 ! D30   D(2,3,4,14)            65.9381         estimate D2E/DX2                !
 ! D31   D(11,3,4,5)            65.9164         estimate D2E/DX2                !
 ! D32   D(11,3,4,13)          -56.9191         estimate D2E/DX2                !
 ! D33   D(11,3,4,14)         -173.4949         estimate D2E/DX2                !
 ! D34   D(12,3,4,5)          -177.4917         estimate D2E/DX2                !
 ! D35   D(12,3,4,13)           59.6728         estimate D2E/DX2                !
 ! D36   D(12,3,4,14)          -56.903          estimate D2E/DX2                !
 ! D37   D(3,4,5,6)             54.6516         estimate D2E/DX2                !
 ! D38   D(3,4,5,15)           -65.9414         estimate D2E/DX2                !
 ! D39   D(3,4,5,16)           177.4722         estimate D2E/DX2                !
 ! D40   D(13,4,5,6)           177.4874         estimate D2E/DX2                !
 ! D41   D(13,4,5,15)           56.8944         estimate D2E/DX2                !
 ! D42   D(13,4,5,16)          -59.692          estimate D2E/DX2                !
 ! D43   D(14,4,5,6)           -65.9434         estimate D2E/DX2                !
 ! D44   D(14,4,5,15)          173.4635         estimate D2E/DX2                !
 ! D45   D(14,4,5,16)           56.8771         estimate D2E/DX2                !
 ! D46   D(4,5,6,1)            -54.6204         estimate D2E/DX2                !
 ! D47   D(4,5,6,17)          -177.4424         estimate D2E/DX2                !
 ! D48   D(4,5,6,18)            65.9495         estimate D2E/DX2                !
 ! D49   D(15,5,6,1)            65.9826         estimate D2E/DX2                !
 ! D50   D(15,5,6,17)          -56.8393         estimate D2E/DX2                !
 ! D51   D(15,5,6,18)         -173.4475         estimate D2E/DX2                !
 ! D52   D(16,5,6,1)          -177.4352         estimate D2E/DX2                !
 ! D53   D(16,5,6,17)           59.7428         estimate D2E/DX2                !
 ! D54   D(16,5,6,18)          -56.8654         estimate D2E/DX2                !
 --------------------------------------------------------------------------------
 Trust Radius=3.00D-01 FncErr=1.00D-07 GrdErr=1.00D-07
 Number of steps in this run=    108 maximum allowed number of steps=    108.
 GradGradGradGradGradGradGradGradGradGradGradGradGradGradGradGradGradGrad

                          Input orientation:                          
 ---------------------------------------------------------------------
 Center     Atomic      Atomic             Coordinates (Angstroms)
 Number     Number       Type             X           Y           Z
 ---------------------------------------------------------------------
      1          6           0        1.796700    3.497600    1.195500
      2          6           0        1.035300    2.258600    1.693500
      3          6           0        1.700000    0.958600    1.213200
      4          6           0        3.184400    0.905700    1.609000
      5          6           0        3.945800    2.144700    1.111000
      6          6           0        3.281100    3.444700    1.591300
      7          1           0        1.331600    4.411900    1.586300
      8          1           0        1.718000    3.551800    0.099200
      9          1           0       -0.010400    2.296200    1.361500
     10          1           0        1.013500    2.266900    2.793700
     11          1           0        1.616700    0.895000    0.117700
     12          1           0        1.167800    0.087500    1.616800
     13          1           0        3.649500   -0.008600    1.218100
     14          1           0        3.263100    0.851400    2.705200
     15          1           0        3.967700    2.136400    0.010900
     16          1           0        4.991400    2.107100    1.443100
     17          1           0        3.813300    4.315700    1.187600
     18          1           0        3.364300    3.508300    2.686800
 ---------------------------------------------------------------------
                    Distance matrix (angstroms):
                    1          2          3          4          5
     1  C    0.000000
     2  C    1.537158   0.000000
     3  C    2.540902   1.537047   0.000000
     4  C    2.968946   2.540888   1.537173   0.000000
     5  C    2.540888   2.970402   2.541829   1.537158   0.000000
     6  C    1.537173   2.541829   2.970443   2.540902   1.537047
     7  H    1.097719   2.176232   3.492879   3.965706   3.492871
     8  H    1.100457   2.163386   2.822411   3.381075   2.822545
     9  H    2.176357   1.097782   2.176381   3.493064   3.967017
    10  H    2.163855   1.100447   2.163541   2.822975   3.383016
    11  H    2.822690   2.163464   1.100502   2.163741   2.823668
    12  H    3.493106   2.176491   1.097700   2.176278   3.493593
    13  H    3.965705   3.492885   2.176247   1.097755   2.176227
    14  H    3.381109   2.822559   2.163524   1.100362   2.163372
    15  H    2.823010   3.383053   2.824040   2.163817   1.100349
    16  H    3.492979   3.966911   3.493597   2.176266   1.097717
    17  H    2.176241   3.493548   3.966965   3.493021   2.176388
    18  H    2.163668   2.823586   3.382656   2.822684   2.163491
                    6          7          8          9         10
     6  C    0.000000
     7  H    2.176247   0.000000
     8  H    2.163588   1.760836   0.000000
     9  H    3.493685   2.515489   2.481391   0.000000
    10  H    2.824002   2.481940   3.067184   1.760803   0.000000
    11  H    3.382705   3.821865   2.658795   2.481502   3.067073
    12  H    3.967049   4.327609   3.821937   2.516285   2.481670
    13  H    3.492890   5.004903   4.202271   4.327532   3.822161
    14  H    2.822464   4.202355   4.058415   3.822143   2.659356
    15  H    2.163500   3.822147   2.659380   4.204157   4.060579
    16  H    2.176296   4.327441   3.822090   5.006038   4.203968
    17  H    1.097657   2.515363   2.481620   4.327736   3.823090
    18  H    1.100494   2.481826   3.067225   3.822853   2.660594
                   11         12         13         14         15
    11  H    0.000000
    12  H    1.760928   0.000000
    13  H    2.481864   2.515359   0.000000
    14  H    3.067196   2.481620   1.760787   0.000000
    15  H    2.660767   3.823133   2.481856   3.067073   0.000000
    16  H    3.822888   4.327687   2.515454   2.481270   1.760687
    17  H    4.203680   5.006052   4.327509   3.821937   2.481494
    18  H    4.060014   4.203735   3.821911   2.658890   3.067025
                   16         17         18
    16  H    0.000000
    17  H    2.516170   0.000000
    18  H    2.481452   1.760993   0.000000
 Stoichiometry    C6H12
 Framework group  C1[X(C6H12)]
 Deg. of freedom    48
 Full point group                 C1      NOp   1
 Largest Abelian subgroup         C1      NOp   1
 Largest concise Abelian subgroup C1      NOp   1
                         Standard orientation:                         
 ---------------------------------------------------------------------
 Center     Atomic      Atomic             Coordinates (Angstroms)
 Number     Number       Type             X           Y           Z
 ---------------------------------------------------------------------
      1          6           0        0.028280   -1.466397   -0.229230
      2          6           0        1.284807   -0.708900    0.229237
      3          6           0        1.256542    0.757913   -0.229211
      4          6           0       -0.028287    1.466392    0.229234
      5          6           0       -1.284814    0.708895   -0.229233
      6          6           0       -1.256550   -0.757919    0.229215
      7          1           0        0.048172   -2.497709    0.146255
      8          1           0        0.029764   -1.534378   -1.327584
      9          1           0        2.187614   -1.207527   -0.146842
     10          1           0        1.345070   -0.741958    1.327536
     11          1           0        1.315114    0.793081   -1.327590
     12          1           0        2.139350    1.291113    0.146678
     13          1           0       -0.048184    2.497704   -0.146350
     14          1           0       -0.029730    1.534463    1.327488
     15          1           0       -1.345163    0.741996   -1.327427
     16          1           0       -2.187528    1.207475    0.146942
     17          1           0       -2.139316   -1.291028   -0.146774
     18          1           0       -1.315032   -0.793132    1.327590
 ---------------------------------------------------------------------
 Rotational constants (GHZ):      4.2820862      4.2788434      2.4415319
 Standard basis: VSTO-6G (5D, 7F)
 There are    36 symmetry adapted cartesian basis functions of A   symmetry.
 There are    36 symmetry adapted basis functions of A   symmetry.
    36 basis functions,   216 primitive gaussians,    36 cartesian basis functions
    18 alpha electrons       18 beta electrons
       nuclear repulsion energy       158.9086187501 Hartrees.
 Integral buffers will be    131072 words long.
 Regular integral format.
 Two-electron integral symmetry is turned off.
 Do NDO integrals.
 One-electron integrals computed using PRISM.
 NBasis=    36 RedAO= F EigKep=  0.00D+00  NBF=    36
 NBsUse=    36 1.00D-04 EigRej=  0.00D+00 NBFU=    36
 Simple Huckel Guess.
 Overlap will be assumed to be unity.
 Keep J ints in memory in canonical form, NReq=896884.
 Requested convergence on RMS density matrix=1.00D-08 within 128 cycles.
 Requested convergence on MAX density matrix=1.00D-06.
 Requested convergence on             energy=1.00D-06.
 No special actions if energy rises.
 SCF Done:  E(RAM1) = -0.552862421027E-01 A.U. after   11 cycles
            NFock= 10  Conv=0.28D-08     -V/T= 0.9976

 **********************************************************************

            Population analysis using the SCF density.

 **********************************************************************

 Orbital symmetries:
       Occupied  (A) (A) (A) (A) (A) (A) (A) (A) (A) (A) (A) (A)
                 (A) (A) (A) (A) (A) (A)
       Virtual   (A) (A) (A) (A) (A) (A) (A) (A) (A) (A) (A) (A)
                 (A) (A) (A) (A) (A) (A)
 The electronic state is 1-A.
 Alpha  occ. eigenvalues --   -1.41220  -1.15669  -1.15652  -0.86145  -0.86141
 Alpha  occ. eigenvalues --   -0.74185  -0.60355  -0.55469  -0.54468  -0.54459
 Alpha  occ. eigenvalues --   -0.49279  -0.48046  -0.48032  -0.43613  -0.43611
 Alpha  occ. eigenvalues --   -0.40609  -0.40578  -0.40572
 Alpha virt. eigenvalues --    0.13709   0.14385   0.14387   0.15710   0.15714
 Alpha virt. eigenvalues --    0.16812   0.16814   0.16987   0.17456   0.17541
 Alpha virt. eigenvalues --    0.18789   0.18790   0.19059   0.19060   0.19648
 Alpha virt. eigenvalues --    0.19892   0.19894   0.20383
          Condensed to atoms (all electrons):
               1          2          3          4          5          6
     1  C    4.152343   0.000000   0.000000   0.000000   0.000000   0.000000
     2  C    0.000000   4.152333   0.000000   0.000000   0.000000   0.000000
     3  C    0.000000   0.000000   4.152322   0.000000   0.000000   0.000000
     4  C    0.000000   0.000000   0.000000   4.152336   0.000000   0.000000
     5  C    0.000000   0.000000   0.000000   0.000000   4.152328   0.000000
     6  C    0.000000   0.000000   0.000000   0.000000   0.000000   4.152319
     7  H    0.000000   0.000000   0.000000   0.000000   0.000000   0.000000
     8  H    0.000000   0.000000   0.000000   0.000000   0.000000   0.000000
     9  H    0.000000   0.000000   0.000000   0.000000   0.000000   0.000000
    10  H    0.000000   0.000000   0.000000   0.000000   0.000000   0.000000
    11  H    0.000000   0.000000   0.000000   0.000000   0.000000   0.000000
    12  H    0.000000   0.000000   0.000000   0.000000   0.000000   0.000000
    13  H    0.000000   0.000000   0.000000   0.000000   0.000000   0.000000
    14  H    0.000000   0.000000   0.000000   0.000000   0.000000   0.000000
    15  H    0.000000   0.000000   0.000000   0.000000   0.000000   0.000000
    16  H    0.000000   0.000000   0.000000   0.000000   0.000000   0.000000
    17  H    0.000000   0.000000   0.000000   0.000000   0.000000   0.000000
    18  H    0.000000   0.000000   0.000000   0.000000   0.000000   0.000000
               7          8          9         10         11         12
     1  C    0.000000   0.000000   0.000000   0.000000   0.000000   0.000000
     2  C    0.000000   0.000000   0.000000   0.000000   0.000000   0.000000
     3  C    0.000000   0.000000   0.000000   0.000000   0.000000   0.000000
     4  C    0.000000   0.000000   0.000000   0.000000   0.000000   0.000000
     5  C    0.000000   0.000000   0.000000   0.000000   0.000000   0.000000
     6  C    0.000000   0.000000   0.000000   0.000000   0.000000   0.000000
     7  H    0.922986   0.000000   0.000000   0.000000   0.000000   0.000000
     8  H    0.000000   0.924735   0.000000   0.000000   0.000000   0.000000
     9  H    0.000000   0.000000   0.922949   0.000000   0.000000   0.000000
    10  H    0.000000   0.000000   0.000000   0.924713   0.000000   0.000000
    11  H    0.000000   0.000000   0.000000   0.000000   0.924714   0.000000
    12  H    0.000000   0.000000   0.000000   0.000000   0.000000   0.922918
    13  H    0.000000   0.000000   0.000000   0.000000   0.000000   0.000000
    14  H    0.000000   0.000000   0.000000   0.000000   0.000000   0.000000
    15  H    0.000000   0.000000   0.000000   0.000000   0.000000   0.000000
    16  H    0.000000   0.000000   0.000000   0.000000   0.000000   0.000000
    17  H    0.000000   0.000000   0.000000   0.000000   0.000000   0.000000
    18  H    0.000000   0.000000   0.000000   0.000000   0.000000   0.000000
              13         14         15         16         17         18
     1  C    0.000000   0.000000   0.000000   0.000000   0.000000   0.000000
     2  C    0.000000   0.000000   0.000000   0.000000   0.000000   0.000000
     3  C    0.000000   0.000000   0.000000   0.000000   0.000000   0.000000
     4  C    0.000000   0.000000   0.000000   0.000000   0.000000   0.000000
     5  C    0.000000   0.000000   0.000000   0.000000   0.000000   0.000000
     6  C    0.000000   0.000000   0.000000   0.000000   0.000000   0.000000
     7  H    0.000000   0.000000   0.000000   0.000000   0.000000   0.000000
     8  H    0.000000   0.000000   0.000000   0.000000   0.000000   0.000000
     9  H    0.000000   0.000000   0.000000   0.000000   0.000000   0.000000
    10  H    0.000000   0.000000   0.000000   0.000000   0.000000   0.000000
    11  H    0.000000   0.000000   0.000000   0.000000   0.000000   0.000000
    12  H    0.000000   0.000000   0.000000   0.000000   0.000000   0.000000
    13  H    0.922994   0.000000   0.000000   0.000000   0.000000   0.000000
    14  H    0.000000   0.924728   0.000000   0.000000   0.000000   0.000000
    15  H    0.000000   0.000000   0.924705   0.000000   0.000000   0.000000
    16  H    0.000000   0.000000   0.000000   0.922957   0.000000   0.000000
    17  H    0.000000   0.000000   0.000000   0.000000   0.922915   0.000000
    18  H    0.000000   0.000000   0.000000   0.000000   0.000000   0.924705
 Mulliken charges:
               1
     1  C   -0.152343
     2  C   -0.152333
     3  C   -0.152322
     4  C   -0.152336
     5  C   -0.152328
     6  C   -0.152319
     7  H    0.077014
     8  H    0.075265
     9  H    0.077051
    10  H    0.075287
    11  H    0.075286
    12  H    0.077082
    13  H    0.077006
    14  H    0.075272
    15  H    0.075295
    16  H    0.077043
    17  H    0.077085
    18  H    0.075295
 Sum of Mulliken charges =   0.00000
 Mulliken charges with hydrogens summed into heavy atoms:
               1
     1  C   -0.000064
     2  C    0.000005
     3  C    0.000045
     4  C   -0.000057
     5  C    0.000009
     6  C    0.000061
 Charge=              0.0000 electrons
 Dipole moment (field-independent basis, Debye):
    X=             -0.0000    Y=              0.0000    Z=             -0.0000  Tot=              0.0000
 N-N= 1.589086187501D+02 E-N=-2.708153393042D+02  KE=-2.315045742210D+01
 Calling FoFJK, ICntrl=      2127 FMM=F ISym2X=0 I1Cent= 0 IOpClX= 0 NMat=1 NMatS=1 NMatT=0.
 ***** Axes restored to original set *****
 -------------------------------------------------------------------
 Center     Atomic                   Forces (Hartrees/Bohr)
 Number     Number              X              Y              Z
 -------------------------------------------------------------------
      1        6           0.013748401   -0.025281709    0.009102932
      2        6           0.028266117   -0.001122409   -0.010732582
      3        6           0.015776292    0.024400186    0.008692447
      4        6          -0.013755588    0.025256278   -0.009179330
      5        6          -0.028299917    0.001119293    0.010794648
      6        6          -0.015803415   -0.024418532   -0.008696716
      7        1          -0.005274390    0.010728668    0.008569184
      8        1          -0.000040840   -0.001115084   -0.014175559
      9        1          -0.012362348    0.000419081   -0.007872616
     10        1           0.001795103    0.000048616    0.014097623
     11        1           0.000034071    0.000910317   -0.014148502
     12        1          -0.006068964   -0.010162523    0.008718995
     13        1           0.005265975   -0.010712576   -0.008562597
     14        1           0.000046979    0.001115423    0.014236863
     15        1          -0.001797665   -0.000049306   -0.014163814
     16        1           0.012411883   -0.000420475    0.007886827
     17        1           0.006081587    0.010190933   -0.008718296
     18        1          -0.000023283   -0.000906180    0.014150494
 -------------------------------------------------------------------
 Cartesian Forces:  Max     0.028299917 RMS     0.012178090

 GradGradGradGradGradGradGradGradGradGradGradGradGradGradGradGradGradGrad
 Berny optimization.
 FormGI is forming the generalized inverse of G from B-inverse, IUseBI=4.
 Internal  Forces:  Max     0.017632763 RMS     0.006347056
 Search for a local minimum.
 Step number   1 out of a maximum of  108
 All quantities printed in internal units (Hartrees-Bohrs-Radians)
 Mixed Optimization -- RFO/linear search
 Second derivative matrix not updated -- first step.
 ITU=  0
     Eigenvalues ---    0.00456   0.00457   0.00550   0.01813   0.01814
     Eigenvalues ---    0.03549   0.03811   0.03814   0.04098   0.04749
     Eigenvalues ---    0.04751   0.04795   0.05457   0.05459   0.05909
     Eigenvalues ---    0.06030   0.07994   0.08001   0.08109   0.08112
     Eigenvalues ---    0.08112   0.08121   0.08158   0.08165   0.12053
     Eigenvalues ---    0.12082   0.12086   0.16084   0.16090   0.21875
     Eigenvalues ---    0.27294   0.27611   0.27618   0.28771   0.28772
     Eigenvalues ---    0.28782   0.33627   0.33628   0.33632   0.33633
     Eigenvalues ---    0.33642   0.33644   0.33929   0.33932   0.33936
     Eigenvalues ---    0.33936   0.33938   0.33943
 RFO step:  Lambda=-1.46167902D-02 EMin= 4.56244455D-03
 Linear search not attempted -- first point.
 Iteration  1 RMS(Cart)=  0.03042249 RMS(Int)=  0.00033899
 Iteration  2 RMS(Cart)=  0.00029138 RMS(Int)=  0.00012209
 Iteration  3 RMS(Cart)=  0.00000007 RMS(Int)=  0.00012209
 Variable       Old X    -DE/DX   Delta X   Delta X   Delta X     New X
                                 (Linear)    (Quad)   (Total)
    R1        2.90481  -0.01763   0.00000  -0.05831  -0.05831   2.84649
    R2        2.90484  -0.01763   0.00000  -0.05831  -0.05831   2.84652
    R3        2.07439   0.01422   0.00000   0.04018   0.04018   2.11457
    R4        2.07956   0.01407   0.00000   0.04009   0.04009   2.11965
    R5        2.90460  -0.01752   0.00000  -0.05793  -0.05793   2.84667
    R6        2.07451   0.01417   0.00000   0.04004   0.04004   2.11455
    R7        2.07954   0.01406   0.00000   0.04006   0.04006   2.11961
    R8        2.90484  -0.01763   0.00000  -0.05832  -0.05832   2.84651
    R9        2.07965   0.01403   0.00000   0.03998   0.03998   2.11963
   R10        2.07435   0.01421   0.00000   0.04015   0.04015   2.11450
   R11        2.90481  -0.01762   0.00000  -0.05829  -0.05829   2.84652
   R12        2.07446   0.01420   0.00000   0.04013   0.04013   2.11458
   R13        2.07938   0.01413   0.00000   0.04026   0.04026   2.11964
   R14        2.90460  -0.01751   0.00000  -0.05789  -0.05789   2.84671
   R15        2.07936   0.01413   0.00000   0.04024   0.04024   2.11960
   R16        2.07439   0.01422   0.00000   0.04018   0.04018   2.11457
   R17        2.07427   0.01424   0.00000   0.04023   0.04023   2.11450
   R18        2.07963   0.01403   0.00000   0.03999   0.03999   2.11962
    A1        1.94676  -0.00060   0.00000  -0.01150  -0.01173   1.93503
    A2        1.92425  -0.00070   0.00000  -0.01248  -0.01276   1.91150
    A3        1.90395   0.00034   0.00000   0.00710   0.00717   1.91112
    A4        1.92426  -0.00070   0.00000  -0.01251  -0.01278   1.91148
    A5        1.90421   0.00032   0.00000   0.00692   0.00699   1.91120
    A6        1.85807   0.00147   0.00000   0.02460   0.02468   1.88276
    A7        1.94581  -0.00051   0.00000  -0.01081  -0.01104   1.93476
    A8        1.92436  -0.00076   0.00000  -0.01276  -0.01303   1.91133
    A9        1.90460   0.00032   0.00000   0.00675   0.00682   1.91142
   A10        1.92453  -0.00073   0.00000  -0.01269  -0.01296   1.91157
   A11        1.90430   0.00032   0.00000   0.00696   0.00703   1.91134
   A12        1.85796   0.00149   0.00000   0.02462   0.02470   1.88266
   A13        1.94578  -0.00050   0.00000  -0.01075  -0.01098   1.93479
   A14        1.90414   0.00032   0.00000   0.00702   0.00709   1.91123
   A15        1.92476  -0.00075   0.00000  -0.01285  -0.01312   1.91165
   A16        1.90437   0.00032   0.00000   0.00687   0.00694   1.91131
   A17        1.92432  -0.00075   0.00000  -0.01271  -0.01298   1.91134
   A18        1.85818   0.00148   0.00000   0.02449   0.02458   1.88276
   A19        1.94676  -0.00060   0.00000  -0.01150  -0.01173   1.93503
   A20        1.92422  -0.00070   0.00000  -0.01250  -0.01277   1.91145
   A21        1.90422   0.00032   0.00000   0.00692   0.00700   1.91121
   A22        1.92421  -0.00070   0.00000  -0.01246  -0.01274   1.91147
   A23        1.90403   0.00034   0.00000   0.00706   0.00713   1.91115
   A24        1.85807   0.00147   0.00000   0.02461   0.02469   1.88276
   A25        1.94581  -0.00051   0.00000  -0.01081  -0.01104   1.93476
   A26        1.90464   0.00031   0.00000   0.00671   0.00678   1.91143
   A27        1.92430  -0.00076   0.00000  -0.01272  -0.01299   1.91131
   A28        1.90435   0.00032   0.00000   0.00693   0.00700   1.91135
   A29        1.92448  -0.00073   0.00000  -0.01267  -0.01293   1.91155
   A30        1.85798   0.00149   0.00000   0.02463   0.02471   1.88269
   A31        1.94578  -0.00051   0.00000  -0.01075  -0.01098   1.93479
   A32        1.92431  -0.00076   0.00000  -0.01271  -0.01298   1.91133
   A33        1.90428   0.00033   0.00000   0.00693   0.00700   1.91128
   A34        1.92467  -0.00074   0.00000  -0.01278  -0.01304   1.91162
   A35        1.90419   0.00031   0.00000   0.00697   0.00704   1.91123
   A36        1.85834   0.00148   0.00000   0.02440   0.02448   1.88282
    D1       -0.95385  -0.00152   0.00000  -0.03121  -0.03107  -0.98492
    D2       -3.09758   0.00032   0.00000   0.00153   0.00154  -3.09604
    D3        1.15081  -0.00124   0.00000  -0.02492  -0.02485   1.12596
    D4       -3.09782   0.00030   0.00000   0.00161   0.00161  -3.09620
    D5        1.04164   0.00213   0.00000   0.03435   0.03422   1.07586
    D6       -0.99316   0.00058   0.00000   0.00790   0.00784  -0.98532
    D7        1.15087  -0.00127   0.00000  -0.02517  -0.02510   1.12577
    D8       -0.99286   0.00056   0.00000   0.00757   0.00751  -0.98535
    D9       -3.02766  -0.00099   0.00000  -0.01888  -0.01888  -3.04653
   D10        0.95383   0.00152   0.00000   0.03122   0.03108   0.98491
   D11        3.09768  -0.00031   0.00000  -0.00155  -0.00156   3.09612
   D12       -1.15045   0.00123   0.00000   0.02475   0.02468  -1.12577
   D13        3.09780  -0.00030   0.00000  -0.00159  -0.00159   3.09621
   D14       -1.04154  -0.00213   0.00000  -0.03436  -0.03423  -1.07577
   D15        0.99351  -0.00058   0.00000  -0.00805  -0.00799   0.98552
   D16       -1.15074   0.00126   0.00000   0.02507   0.02500  -1.12573
   D17        0.99311  -0.00057   0.00000  -0.00770  -0.00764   0.98548
   D18        3.02816   0.00098   0.00000   0.01861   0.01861   3.04677
   D19        0.95331   0.00157   0.00000   0.03161   0.03149   0.98479
   D20       -1.15112   0.00128   0.00000   0.02522   0.02515  -1.12597
   D21        3.09703  -0.00027   0.00000  -0.00118  -0.00118   3.09585
   D22        3.09694  -0.00028   0.00000  -0.00116  -0.00116   3.09577
   D23        0.99251  -0.00057   0.00000  -0.00756  -0.00750   0.98502
   D24       -1.04252  -0.00212   0.00000  -0.03396  -0.03383  -1.07635
   D25       -1.15153   0.00129   0.00000   0.02545   0.02538  -1.12614
   D26        3.02723   0.00100   0.00000   0.01905   0.01905   3.04629
   D27        0.99220  -0.00055   0.00000  -0.00735  -0.00729   0.98491
   D28       -0.95383  -0.00152   0.00000  -0.03123  -0.03109  -0.98492
   D29       -3.09772   0.00029   0.00000   0.00155   0.00155  -3.09617
   D30        1.15084  -0.00127   0.00000  -0.02513  -0.02506   1.12577
   D31        1.15046  -0.00123   0.00000  -0.02474  -0.02467   1.12579
   D32       -0.99343   0.00058   0.00000   0.00803   0.00797  -0.98546
   D33       -3.02806  -0.00098   0.00000  -0.01865  -0.01864  -3.04670
   D34       -3.09782   0.00032   0.00000   0.00164   0.00165  -3.09616
   D35        1.04149   0.00213   0.00000   0.03442   0.03429   1.07578
   D36       -0.99314   0.00057   0.00000   0.00774   0.00768  -0.98547
   D37        0.95385   0.00151   0.00000   0.03117   0.03103   0.98488
   D38       -1.15089   0.00124   0.00000   0.02494   0.02487  -1.12602
   D39        3.09747  -0.00031   0.00000  -0.00151  -0.00152   3.09596
   D40        3.09774  -0.00030   0.00000  -0.00163  -0.00163   3.09611
   D41        0.99300  -0.00058   0.00000  -0.00785  -0.00779   0.98521
   D42       -1.04182  -0.00213   0.00000  -0.03430  -0.03418  -1.07600
   D43       -1.15093   0.00127   0.00000   0.02515   0.02508  -1.12585
   D44        3.02751   0.00099   0.00000   0.01892   0.01892   3.04643
   D45        0.99269  -0.00056   0.00000  -0.00753  -0.00747   0.98523
   D46       -0.95331  -0.00157   0.00000  -0.03156  -0.03143  -0.98474
   D47       -3.09695   0.00027   0.00000   0.00117   0.00118  -3.09578
   D48        1.15104  -0.00127   0.00000  -0.02513  -0.02506   1.12597
   D49        1.15161  -0.00129   0.00000  -0.02547  -0.02540   1.12621
   D50       -0.99203   0.00055   0.00000   0.00727   0.00721  -0.98483
   D51       -3.02723  -0.00100   0.00000  -0.01903  -0.01903  -3.04626
   D52       -3.09683   0.00028   0.00000   0.00115   0.00115  -3.09568
   D53        1.04271   0.00212   0.00000   0.03388   0.03376   1.07647
   D54       -0.99249   0.00057   0.00000   0.00758   0.00752  -0.98497
         Item               Value     Threshold  Converged?
 Maximum Force            0.017633     0.000450     NO 
 RMS     Force            0.006347     0.000300     NO 
 Maximum Displacement     0.088082     0.001800     NO 
 RMS     Displacement     0.030552     0.001200     NO 
 Predicted change in Energy=-7.805278D-03
 GradGradGradGradGradGradGradGradGradGradGradGradGradGradGradGradGradGrad

                          Input orientation:                          
 ---------------------------------------------------------------------
 Center     Atomic      Atomic             Coordinates (Angstroms)
 Number     Number       Type             X           Y           Z
 ---------------------------------------------------------------------
      1          6           0        1.812599    3.467011    1.190859
      2          6           0        1.070504    2.257455    1.696038
      3          6           0        1.718698    0.988190    1.208156
      4          6           0        3.168479    0.936265    1.613629
      5          6           0        3.910606    2.145829    1.108469
      6          6           0        3.262387    3.415115    1.596329
      7          1           0        1.341738    4.394151    1.604160
      8          1           0        1.737877    3.512063    0.072585
      9          1           0        0.009512    2.295343    1.342542
     10          1           0        1.060085    2.265636    2.817607
     11          1           0        1.640067    0.933106    0.090613
     12          1           0        1.179587    0.105133    1.634314
     13          1           0        3.639316    0.009135    1.200253
     14          1           0        3.243211    0.891138    2.731891
     15          1           0        3.921089    2.137641   -0.013093
     16          1           0        4.971575    2.107939    1.462059
     17          1           0        3.801488    4.298149    1.170119
     18          1           0        3.340982    3.470203    2.713871
 ---------------------------------------------------------------------
                    Distance matrix (angstroms):
                    1          2          3          4          5
     1  C    0.000000
     2  C    1.506299   0.000000
     3  C    2.480659   1.506392   0.000000
     4  C    2.902037   2.480692   1.506309   0.000000
     5  C    2.480714   2.902392   2.480831   1.506315   0.000000
     6  C    1.506314   2.480820   2.902346   2.480688   1.506414
     7  H    1.118980   2.155801   3.449563   3.910761   3.449601
     8  H    1.121673   2.157552   2.767639   3.325083   2.767744
     9  H    2.155675   1.118972   2.155928   3.449587   3.910969
    10  H    2.157750   1.121647   2.157770   2.768053   3.325804
    11  H    2.767848   2.157705   1.121659   2.157691   2.768045
    12  H    3.449576   2.155968   1.118946   2.155667   3.449553
    13  H    3.910740   3.449571   2.155779   1.118989   2.155802
    14  H    3.325139   2.767755   2.157620   1.121665   2.157583
    15  H    2.768114   3.325856   2.768250   2.157765   1.121642
    16  H    3.449602   3.910941   3.449567   2.155679   1.118980
    17  H    2.155667   3.449536   3.910919   3.449590   2.155966
    18  H    2.157668   2.767998   3.325563   2.767876   2.157720
                    6          7          8          9         10
     6  C    0.000000
     7  H    2.155798   0.000000
     8  H    2.157620   1.811277   0.000000
     9  H    3.449563   2.499652   2.465855   0.000000
    10  H    2.768203   2.466243   3.090004   1.811188   0.000000
    11  H    3.325578   3.789282   2.580875   2.466116   3.090067
    12  H    3.910943   4.292187   3.789176   2.500245   2.466219
    13  H    3.449587   4.966928   4.142175   4.292141   3.789467
    14  H    2.767730   4.142279   4.025815   3.789313   2.581207
    15  H    2.157793   3.789511   2.581239   4.142831   4.026734
    16  H    2.155937   4.292164   3.789328   4.967039   4.142721
    17  H    1.118944   2.499595   2.465968   4.291857   3.789540
    18  H    1.121656   2.466194   3.089999   3.789397   2.581517
                   11         12         13         14         15
    11  H    0.000000
    12  H    1.811240   0.000000
    13  H    2.466175   2.499578   0.000000
    14  H    3.090013   2.465973   1.811282   0.000000
    15  H    2.581611   3.789574   2.466200   3.090020   0.000000
    16  H    3.789465   4.291862   2.499687   2.465831   1.811209
    17  H    4.142534   4.967014   4.292185   3.789265   2.466190
    18  H    4.026346   4.142556   3.789332   2.580981   3.090078
                   16         17         18
    16  H    0.000000
    17  H    2.500271   0.000000
    18  H    2.466097   1.811279   0.000000
 Stoichiometry    C6H12
 Framework group  C1[X(C6H12)]
 Deg. of freedom    48
 Full point group                 C1      NOp   1
 Largest Abelian subgroup         C1      NOp   1
 Largest concise Abelian subgroup C1      NOp   1
                         Standard orientation:                         
 ---------------------------------------------------------------------
 Center     Atomic      Atomic             Coordinates (Angstroms)
 Number     Number       Type             X           Y           Z
 ---------------------------------------------------------------------
      1          6           0        0.308070   -1.398612   -0.233304
      2          6           0        1.365425   -0.432584    0.233309
      3          6           0        1.057323    0.966190   -0.233299
      4          6           0       -0.308056    1.398617    0.233300
      5          6           0       -1.365443    0.432590   -0.233293
      6          6           0       -1.057324   -0.966211    0.233292
      7          1           0        0.533024   -2.420009    0.164516
      8          1           0        0.320549   -1.455001   -1.353489
      9          1           0        2.362266   -0.748590   -0.164869
     10          1           0        1.420958   -0.450140    1.353443
     11          1           0        1.100183    1.005301   -1.353457
     12          1           0        1.829131    1.671810    0.164764
     13          1           0       -0.532993    2.419998   -0.164596
     14          1           0       -0.320525    1.455080    1.353473
     15          1           0       -1.421036    0.450169   -1.353418
     16          1           0       -2.362258    0.748590    0.164977
     17          1           0       -1.829118   -1.671812   -0.164824
     18          1           0       -1.100151   -1.005336    1.353447
 ---------------------------------------------------------------------
 Rotational constants (GHZ):      4.4221389      4.4217033      2.5490868
 Standard basis: VSTO-6G (5D, 7F)
 There are    36 symmetry adapted cartesian basis functions of A   symmetry.
 There are    36 symmetry adapted basis functions of A   symmetry.
    36 basis functions,   216 primitive gaussians,    36 cartesian basis functions
    18 alpha electrons       18 beta electrons
       nuclear repulsion energy       160.0675916365 Hartrees.
 Integral buffers will be    131072 words long.
 Regular integral format.
 Two-electron integral symmetry is turned off.
 Do NDO integrals.
 One-electron integrals computed using PRISM.
 NBasis=    36 RedAO= F EigKep=  0.00D+00  NBF=    36
 NBsUse=    36 1.00D-04 EigRej=  0.00D+00 NBFU=    36
 Initial guess from the checkpoint file:  "cyclohexane-opt.chk"
 B after Tr=     0.000000    0.000000   -0.000000
         Rot=    0.995128    0.000013    0.000003   -0.098592 Ang=  11.32 deg.
 Overlap will be assumed to be unity.
 Keep J ints in memory in canonical form, NReq=896884.
 Requested convergence on RMS density matrix=1.00D-08 within 128 cycles.
 Requested convergence on MAX density matrix=1.00D-06.
 Requested convergence on             energy=1.00D-06.
 No special actions if energy rises.
 SCF Done:  E(RAM1) = -0.609338759538E-01 A.U. after    9 cycles
            NFock=  8  Conv=0.86D-08     -V/T= 0.9974
 Calling FoFJK, ICntrl=      2127 FMM=F ISym2X=0 I1Cent= 0 IOpClX= 0 NMat=1 NMatS=1 NMatT=0.
 ***** Axes restored to original set *****
 -------------------------------------------------------------------
 Center     Atomic                   Forces (Hartrees/Bohr)
 Number     Number              X              Y              Z
 -------------------------------------------------------------------
      1        6          -0.003498170    0.006445729   -0.002184970
      2        6          -0.007166273    0.000242253    0.002575340
      3        6          -0.003978807   -0.006124061   -0.002074044
      4        6           0.003507828   -0.006444191    0.002167790
      5        6           0.007157684   -0.000238736   -0.002556280
      6        6           0.003977630    0.006108841    0.002065761
      7        1          -0.000998506    0.001871418   -0.000214410
      8        1          -0.000388568    0.000702683   -0.000500817
      9        1          -0.002111383    0.000065605    0.000333803
     10        1          -0.000750814    0.000032449    0.000547647
     11        1          -0.000439831   -0.000668034   -0.000489607
     12        1          -0.001163213   -0.001796463   -0.000182390
     13        1           0.000998091   -0.001867931    0.000218170
     14        1           0.000389295   -0.000700266    0.000503535
     15        1           0.000750589   -0.000032228   -0.000547541
     16        1           0.002106577   -0.000065208   -0.000337926
     17        1           0.001163557    0.001797708    0.000186286
     18        1           0.000444315    0.000670431    0.000489653
 -------------------------------------------------------------------
 Cartesian Forces:  Max     0.007166273 RMS     0.002655297

 GradGradGradGradGradGradGradGradGradGradGradGradGradGradGradGradGradGrad
 Berny optimization.
 Using GEDIIS/GDIIS optimizer.
 FormGI is forming the generalized inverse of G from B-inverse, IUseBI=4.
 Internal  Forces:  Max     0.010178892 RMS     0.002462525
 Search for a local minimum.
 Step number   2 out of a maximum of  108
 All quantities printed in internal units (Hartrees-Bohrs-Radians)
 Mixed Optimization -- RFO/linear search
 Update second derivatives using D2CorX and points    1    2
 DE= -5.65D-03 DEPred=-7.81D-03 R= 7.24D-01
 TightC=F SS=  1.41D+00  RLast= 2.64D-01 DXNew= 5.0454D-01 7.9263D-01
 Trust test= 7.24D-01 RLast= 2.64D-01 DXMaxT set to 5.05D-01
 ITU=  1  0
 Use linear search instead of GDIIS.
     Eigenvalues ---    0.00467   0.00468   0.00571   0.01861   0.01862
     Eigenvalues ---    0.03673   0.04001   0.04002   0.04647   0.04755
     Eigenvalues ---    0.04756   0.04843   0.05487   0.05487   0.05874
     Eigenvalues ---    0.05997   0.07924   0.07926   0.07953   0.07953
     Eigenvalues ---    0.07953   0.07953   0.07955   0.07955   0.11930
     Eigenvalues ---    0.11964   0.11965   0.15896   0.15898   0.21916
     Eigenvalues ---    0.27125   0.27578   0.27585   0.28104   0.28771
     Eigenvalues ---    0.28779   0.33627   0.33629   0.33632   0.33638
     Eigenvalues ---    0.33643   0.33724   0.33930   0.33933   0.33936
     Eigenvalues ---    0.33937   0.33941   0.42588
 RFO step:  Lambda=-1.04515258D-03 EMin= 4.67463546D-03
 Quartic linear search produced a step of -0.19025.
 Iteration  1 RMS(Cart)=  0.01519401 RMS(Int)=  0.00004291
 Iteration  2 RMS(Cart)=  0.00003581 RMS(Int)=  0.00002240
 Iteration  3 RMS(Cart)=  0.00000000 RMS(Int)=  0.00002240
 Variable       Old X    -DE/DX   Delta X   Delta X   Delta X     New X
                                 (Linear)    (Quad)   (Total)
    R1        2.84649   0.01018   0.01109   0.01208   0.02318   2.86967
    R2        2.84652   0.01017   0.01109   0.01206   0.02315   2.86967
    R3        2.11457   0.00189  -0.00764   0.01576   0.00811   2.12268
    R4        2.11965   0.00055  -0.00763   0.01256   0.00494   2.12459
    R5        2.84667   0.01010   0.01102   0.01198   0.02300   2.86967
    R6        2.11455   0.00190  -0.00762   0.01574   0.00812   2.12267
    R7        2.11961   0.00055  -0.00762   0.01256   0.00494   2.12454
    R8        2.84651   0.01017   0.01110   0.01206   0.02316   2.86967
    R9        2.11963   0.00055  -0.00761   0.01253   0.00492   2.12455
   R10        2.11450   0.00191  -0.00764   0.01579   0.00815   2.12265
   R11        2.84652   0.01017   0.01109   0.01206   0.02314   2.86967
   R12        2.11458   0.00189  -0.00763   0.01573   0.00810   2.12268
   R13        2.11964   0.00056  -0.00766   0.01262   0.00496   2.12460
   R14        2.84671   0.01009   0.01101   0.01194   0.02295   2.86966
   R15        2.11960   0.00055  -0.00766   0.01261   0.00495   2.12455
   R16        2.11457   0.00189  -0.00764   0.01576   0.00812   2.12268
   R17        2.11450   0.00191  -0.00765   0.01581   0.00816   2.12265
   R18        2.11962   0.00055  -0.00761   0.01253   0.00492   2.12455
    A1        1.93503   0.00027   0.00223   0.00343   0.00564   1.94066
    A2        1.91150   0.00028   0.00243  -0.00132   0.00117   1.91267
    A3        1.91112  -0.00020  -0.00136  -0.00050  -0.00186   1.90926
    A4        1.91148   0.00028   0.00243  -0.00132   0.00117   1.91264
    A5        1.91120  -0.00020  -0.00133  -0.00061  -0.00194   1.90926
    A6        1.88276  -0.00044  -0.00470   0.00023  -0.00449   1.87827
    A7        1.93476   0.00028   0.00210   0.00381   0.00589   1.94066
    A8        1.91133   0.00028   0.00248  -0.00123   0.00130   1.91264
    A9        1.91142  -0.00020  -0.00130  -0.00081  -0.00211   1.90931
   A10        1.91157   0.00027   0.00247  -0.00142   0.00110   1.91267
   A11        1.91134  -0.00021  -0.00134  -0.00074  -0.00207   1.90926
   A12        1.88266  -0.00044  -0.00470   0.00029  -0.00444   1.87822
   A13        1.93479   0.00028   0.00209   0.00381   0.00588   1.94068
   A14        1.91123  -0.00021  -0.00135  -0.00064  -0.00198   1.90925
   A15        1.91165   0.00026   0.00250  -0.00154   0.00101   1.91266
   A16        1.91131  -0.00020  -0.00132  -0.00069  -0.00201   1.90930
   A17        1.91134   0.00028   0.00247  -0.00124   0.00129   1.91263
   A18        1.88276  -0.00044  -0.00468   0.00019  -0.00451   1.87825
   A19        1.93503   0.00027   0.00223   0.00343   0.00564   1.94067
   A20        1.91145   0.00028   0.00243  -0.00130   0.00119   1.91264
   A21        1.91121  -0.00020  -0.00133  -0.00062  -0.00195   1.90926
   A22        1.91147   0.00028   0.00242  -0.00130   0.00118   1.91265
   A23        1.91115  -0.00020  -0.00136  -0.00054  -0.00189   1.90926
   A24        1.88276  -0.00044  -0.00470   0.00023  -0.00449   1.87827
   A25        1.93476   0.00029   0.00210   0.00382   0.00590   1.94066
   A26        1.91143  -0.00021  -0.00129  -0.00083  -0.00212   1.90930
   A27        1.91131   0.00028   0.00247  -0.00121   0.00132   1.91263
   A28        1.91135  -0.00021  -0.00133  -0.00076  -0.00208   1.90926
   A29        1.91155   0.00026   0.00246  -0.00140   0.00111   1.91266
   A30        1.88269  -0.00044  -0.00470   0.00028  -0.00445   1.87824
   A31        1.93479   0.00029   0.00209   0.00381   0.00588   1.94068
   A32        1.91133   0.00028   0.00247  -0.00123   0.00129   1.91263
   A33        1.91128  -0.00020  -0.00133  -0.00065  -0.00198   1.90930
   A34        1.91162   0.00026   0.00248  -0.00151   0.00103   1.91265
   A35        1.91123  -0.00021  -0.00134  -0.00065  -0.00199   1.90924
   A36        1.88282  -0.00044  -0.00466   0.00012  -0.00456   1.87826
    D1       -0.98492   0.00076   0.00591   0.01006   0.01596  -0.96896
    D2       -3.09604   0.00006  -0.00029   0.01019   0.00990  -3.08614
    D3        1.12596   0.00055   0.00473   0.01105   0.01577   1.14173
    D4       -3.09620   0.00006  -0.00031   0.01037   0.01008  -3.08613
    D5        1.07586  -0.00064  -0.00651   0.01050   0.00402   1.07988
    D6       -0.98532  -0.00016  -0.00149   0.01137   0.00988  -0.97544
    D7        1.12577   0.00055   0.00478   0.01116   0.01593   1.14170
    D8       -0.98535  -0.00015  -0.00143   0.01130   0.00987  -0.97548
    D9       -3.04653   0.00034   0.00359   0.01216   0.01574  -3.03080
   D10        0.98491  -0.00076  -0.00591  -0.01004  -0.01595   0.96897
   D11        3.09612  -0.00006   0.00030  -0.01028  -0.00999   3.08613
   D12       -1.12577  -0.00055  -0.00470  -0.01125  -0.01593  -1.14170
   D13        3.09621  -0.00006   0.00030  -0.01035  -0.01006   3.08615
   D14       -1.07577   0.00064   0.00651  -0.01060  -0.00411  -1.07988
   D15        0.98552   0.00015   0.00152  -0.01156  -0.01005   0.97548
   D16       -1.12573  -0.00055  -0.00476  -0.01122  -0.01597  -1.14170
   D17        0.98548   0.00014   0.00145  -0.01146  -0.01001   0.97546
   D18        3.04677  -0.00034  -0.00354  -0.01242  -0.01595   3.03082
   D19        0.98479  -0.00075  -0.00599  -0.00984  -0.01583   0.96896
   D20       -1.12597  -0.00055  -0.00479  -0.01101  -0.01578  -1.14175
   D21        3.09585  -0.00005   0.00023  -0.00995  -0.00973   3.08611
   D22        3.09577  -0.00005   0.00022  -0.00986  -0.00965   3.08612
   D23        0.98502   0.00016   0.00143  -0.01103  -0.00961   0.97541
   D24       -1.07635   0.00066   0.00644  -0.00997  -0.00356  -1.07991
   D25       -1.12614  -0.00054  -0.00483  -0.01079  -0.01561  -1.14175
   D26        3.04629  -0.00034  -0.00362  -0.01195  -0.01556   3.03072
   D27        0.98491   0.00016   0.00139  -0.01089  -0.00952   0.97540
   D28       -0.98492   0.00076   0.00591   0.01005   0.01596  -0.96896
   D29       -3.09617   0.00006  -0.00030   0.01032   0.01004  -3.08613
   D30        1.12577   0.00055   0.00477   0.01117   0.01593   1.14171
   D31        1.12579   0.00055   0.00469   0.01125   0.01594   1.14172
   D32       -0.98546  -0.00015  -0.00152   0.01152   0.01001  -0.97544
   D33       -3.04670   0.00034   0.00355   0.01237   0.01591  -3.03079
   D34       -3.09616   0.00007  -0.00031   0.01034   0.01004  -3.08613
   D35        1.07578  -0.00064  -0.00652   0.01061   0.00411   1.07989
   D36       -0.98547  -0.00014  -0.00146   0.01146   0.01001  -0.97546
   D37        0.98488  -0.00076  -0.00590  -0.01004  -0.01593   0.96895
   D38       -1.12602  -0.00055  -0.00473  -0.01100  -0.01572  -1.14174
   D39        3.09596  -0.00006   0.00029  -0.01013  -0.00985   3.08611
   D40        3.09611  -0.00006   0.00031  -0.01030  -0.01001   3.08610
   D41        0.98521   0.00016   0.00148  -0.01126  -0.00979   0.97542
   D42       -1.07600   0.00064   0.00650  -0.01039  -0.00392  -1.07992
   D43       -1.12585  -0.00055  -0.00477  -0.01111  -0.01587  -1.14172
   D44        3.04643  -0.00034  -0.00360  -0.01207  -0.01566   3.03078
   D45        0.98523   0.00015   0.00142  -0.01120  -0.00978   0.97544
   D46       -0.98474   0.00075   0.00598   0.00981   0.01579  -0.96895
   D47       -3.09578   0.00005  -0.00022   0.00989   0.00968  -3.08610
   D48        1.12597   0.00055   0.00477   0.01102   0.01578   1.14175
   D49        1.12621   0.00054   0.00483   0.01072   0.01555   1.14176
   D50       -0.98483  -0.00016  -0.00137   0.01080   0.00944  -0.97539
   D51       -3.04626   0.00034   0.00362   0.01193   0.01554  -3.03072
   D52       -3.09568   0.00005  -0.00022   0.00978   0.00958  -3.08611
   D53        1.07647  -0.00066  -0.00642   0.00986   0.00347   1.07993
   D54       -0.98497  -0.00016  -0.00143   0.01099   0.00957  -0.97540
         Item               Value     Threshold  Converged?
 Maximum Force            0.010179     0.000450     NO 
 RMS     Force            0.002463     0.000300     NO 
 Maximum Displacement     0.045552     0.001800     NO 
 RMS     Displacement     0.015190     0.001200     NO 
 Predicted change in Energy=-8.818232D-04
 GradGradGradGradGradGradGradGradGradGradGradGradGradGradGradGradGradGrad

                          Input orientation:                          
 ---------------------------------------------------------------------
 Center     Atomic      Atomic             Coordinates (Angstroms)
 Number     Number       Type             X           Y           Z
 ---------------------------------------------------------------------
      1          6           0        1.805899    3.479939    1.193559
      2          6           0        1.055948    2.257982    1.693990
      3          6           0        1.711137    0.975947    1.211139
      4          6           0        3.175188    0.923339    1.610924
      5          6           0        3.925140    2.145298    1.110506
      6          6           0        3.269949    3.427333    1.593350
      7          1           0        1.334209    4.409140    1.612886
      8          1           0        1.726522    3.533828    0.073375
      9          1           0       -0.007683    2.295732    1.334834
     10          1           0        1.035980    2.266602    2.818040
     11          1           0        1.627269    0.912499    0.091805
     12          1           0        1.170801    0.091040    1.643212
     13          1           0        3.646880   -0.005852    1.191574
     14          1           0        3.254576    0.869436    2.731109
     15          1           0        3.945114    2.136680   -0.013546
     16          1           0        4.988770    2.107551    1.469689
     17          1           0        3.810287    4.312236    1.161270
     18          1           0        3.353814    3.490769    2.712683
 ---------------------------------------------------------------------
                    Distance matrix (angstroms):
                    1          2          3          4          5
     1  C    0.000000
     2  C    1.518565   0.000000
     3  C    2.505846   1.518562   0.000000
     4  C    2.930077   2.505863   1.518565   0.000000
     5  C    2.505863   2.930088   2.505857   1.518562   0.000000
     6  C    1.518565   2.505855   2.930063   2.505848   1.518561
     7  H    1.123272   2.170596   3.477109   3.942083   3.477110
     8  H    1.124286   2.168836   2.799553   3.358176   2.799568
     9  H    2.170573   1.123268   2.170594   3.477119   3.942088
    10  H    2.168848   1.124260   2.168814   2.799587   3.358218
    11  H    2.799557   2.168809   1.124264   2.168846   2.799600
    12  H    3.477093   2.170578   1.123259   2.170559   3.477087
    13  H    3.942075   3.477110   2.170579   1.123274   2.170587
    14  H    3.358192   2.799579   2.168838   1.124288   2.168833
    15  H    2.799587   3.358225   2.799608   2.168844   1.124262
    16  H    3.477120   3.942084   3.477104   2.170573   1.123275
    17  H    2.170560   3.477086   3.942047   3.477091   2.170573
    18  H    2.168846   2.799587   3.358176   2.799549   2.168796
                    6          7          8          9         10
     6  C    0.000000
     7  H    2.170579   0.000000
     8  H    2.168832   1.813884   0.000000
     9  H    3.477099   2.518825   2.476213   0.000000
    10  H    2.799602   2.476248   3.100951   1.813831   0.000000
    11  H    3.358187   3.824405   2.623272   2.476192   3.100899
    12  H    3.942049   4.321297   3.824396   2.518847   2.476180
    13  H    3.477105   5.001810   4.179411   4.321301   3.824426
    14  H    2.799565   4.179442   4.061710   3.824427   2.623318
    15  H    2.168812   3.824419   2.623305   4.179478   4.061750
    16  H    2.170591   4.321300   3.824425   5.001814   4.179461
    17  H    1.123259   2.518791   2.476189   4.321262   3.824432
    18  H    1.124262   2.476240   3.100949   3.824428   2.623364
                   11         12         13         14         15
    11  H    0.000000
    12  H    1.813842   0.000000
    13  H    2.476225   2.518795   0.000000
    14  H    3.100954   2.476195   1.813891   0.000000
    15  H    2.623380   3.824435   2.476227   3.100949   0.000000
    16  H    3.824448   4.321263   2.518827   2.476194   1.813851
    17  H    4.179418   5.001764   4.321285   3.824406   2.476169
    18  H    4.061704   4.179410   3.824398   2.623275   3.100890
                   16         17         18
    16  H    0.000000
    17  H    2.518845   0.000000
    18  H    2.476168   1.813851   0.000000
 Stoichiometry    C6H12
 Framework group  C1[X(C6H12)]
 Deg. of freedom    48
 Full point group                 C1      NOp   1
 Largest Abelian subgroup         C1      NOp   1
 Largest concise Abelian subgroup C1      NOp   1
                         Standard orientation:                         
 ---------------------------------------------------------------------
 Center     Atomic      Atomic             Coordinates (Angstroms)
 Number     Number       Type             X           Y           Z
 ---------------------------------------------------------------------
      1          6           0        0.899235   -1.133350   -0.230720
      2          6           0        1.431133    0.212083    0.230727
      3          6           0        0.531896    1.345425   -0.230726
      4          6           0       -0.899235    1.133351    0.230714
      5          6           0       -1.431133   -0.212084   -0.230720
      6          6           0       -0.531894   -1.345426    0.230726
      7          1           0        1.550697   -1.954454    0.173169
      8          1           0        0.941367   -1.186456   -1.352960
      9          1           0        2.467956    0.365713   -0.173161
     10          1           0        1.498232    0.222057    1.352938
     11          1           0        0.556865    1.408484   -1.352943
     12          1           0        0.917218    2.320159    0.173169
     13          1           0       -1.550698    1.954444   -0.173199
     14          1           0       -0.941380    1.186468    1.352956
     15          1           0       -1.498238   -0.222061   -1.352934
     16          1           0       -2.467953   -0.365716    0.173195
     17          1           0       -0.917220   -2.320156   -0.173176
     18          1           0       -0.556862   -1.408473    1.352941
 ---------------------------------------------------------------------
 Rotational constants (GHZ):      4.3496252      4.3495713      2.4992288
 Standard basis: VSTO-6G (5D, 7F)
 There are    36 symmetry adapted cartesian basis functions of A   symmetry.
 There are    36 symmetry adapted basis functions of A   symmetry.
    36 basis functions,   216 primitive gaussians,    36 cartesian basis functions
    18 alpha electrons       18 beta electrons
       nuclear repulsion energy       159.2846716233 Hartrees.
 Integral buffers will be    131072 words long.
 Regular integral format.
 Two-electron integral symmetry is turned off.
 Do NDO integrals.
 One-electron integrals computed using PRISM.
 NBasis=    36 RedAO= F EigKep=  0.00D+00  NBF=    36
 NBsUse=    36 1.00D-04 EigRej=  0.00D+00 NBFU=    36
 Initial guess from the checkpoint file:  "cyclohexane-opt.chk"
 B after Tr=     0.000000   -0.000000   -0.000000
         Rot=    0.974355    0.000019    0.000016   -0.225017 Ang=  26.01 deg.
 Overlap will be assumed to be unity.
 Keep J ints in memory in canonical form, NReq=896884.
 Requested convergence on RMS density matrix=1.00D-08 within 128 cycles.
 Requested convergence on MAX density matrix=1.00D-06.
 Requested convergence on             energy=1.00D-06.
 No special actions if energy rises.
 SCF Done:  E(RAM1) = -0.614841766174E-01 A.U. after    9 cycles
            NFock=  8  Conv=0.46D-08     -V/T= 0.9973
 Calling FoFJK, ICntrl=      2127 FMM=F ISym2X=0 I1Cent= 0 IOpClX= 0 NMat=1 NMatS=1 NMatT=0.
 ***** Axes restored to original set *****
 -------------------------------------------------------------------
 Center     Atomic                   Forces (Hartrees/Bohr)
 Number     Number              X              Y              Z
 -------------------------------------------------------------------
      1        6           0.000670443   -0.001201720    0.000757167
      2        6           0.001326197   -0.000053450   -0.000842784
      3        6           0.000759136    0.001159271    0.000745085
      4        6          -0.000669372    0.001200079   -0.000756397
      5        6          -0.001322953    0.000054057    0.000841752
      6        6          -0.000759620   -0.001159648   -0.000746073
      7        1           0.000782455   -0.001546386   -0.000720225
      8        1           0.000098365   -0.000019243    0.001953078
      9        1           0.001766332   -0.000064284    0.000616089
     10        1          -0.000045949   -0.000009021   -0.001938629
     11        1           0.000104034    0.000038653    0.001938763
     12        1           0.000891803    0.001464550   -0.000736891
     13        1          -0.000783171    0.001546431    0.000721554
     14        1          -0.000099113    0.000018817   -0.001954727
     15        1           0.000047400    0.000008986    0.001940713
     16        1          -0.001769865    0.000064095   -0.000619114
     17        1          -0.000892057   -0.001464349    0.000738084
     18        1          -0.000104065   -0.000036839   -0.001937444
 -------------------------------------------------------------------
 Cartesian Forces:  Max     0.001954727 RMS     0.001041507

 GradGradGradGradGradGradGradGradGradGradGradGradGradGradGradGradGradGrad
 Berny optimization.
 Using GEDIIS/GDIIS optimizer.
 FormGI is forming the generalized inverse of G from B-inverse, IUseBI=4.
 Internal  Forces:  Max     0.003300160 RMS     0.001004625
 Search for a local minimum.
 Step number   3 out of a maximum of  108
 All quantities printed in internal units (Hartrees-Bohrs-Radians)
 Mixed Optimization -- RFO/linear search
 Update second derivatives using D2CorX and points    1    2    3
 DE= -5.50D-04 DEPred=-8.82D-04 R= 6.24D-01
 TightC=F SS=  1.41D+00  RLast= 1.12D-01 DXNew= 8.4853D-01 3.3606D-01
 Trust test= 6.24D-01 RLast= 1.12D-01 DXMaxT set to 5.05D-01
 ITU=  1  1  0
 Use linear search instead of GDIIS.
     Eigenvalues ---    0.00461   0.00462   0.00556   0.01850   0.01850
     Eigenvalues ---    0.03632   0.03945   0.03945   0.04559   0.04751
     Eigenvalues ---    0.04751   0.04829   0.05466   0.05466   0.05938
     Eigenvalues ---    0.05950   0.07978   0.07978   0.08017   0.08017
     Eigenvalues ---    0.08017   0.08017   0.08020   0.08021   0.11978
     Eigenvalues ---    0.12010   0.12011   0.15994   0.15994   0.21914
     Eigenvalues ---    0.27209   0.27597   0.27603   0.28771   0.28779
     Eigenvalues ---    0.33203   0.33627   0.33629   0.33632   0.33639
     Eigenvalues ---    0.33643   0.33930   0.33933   0.33936   0.33937
     Eigenvalues ---    0.33941   0.34507   0.54787
 RFO step:  Lambda=-6.13611629D-05 EMin= 4.61075283D-03
 Quartic linear search produced a step of -0.26434.
 Iteration  1 RMS(Cart)=  0.00305422 RMS(Int)=  0.00000505
 Iteration  2 RMS(Cart)=  0.00000171 RMS(Int)=  0.00000475
 Iteration  3 RMS(Cart)=  0.00000000 RMS(Int)=  0.00000475
 Variable       Old X    -DE/DX   Delta X   Delta X   Delta X     New X
                                 (Linear)    (Quad)   (Total)
    R1        2.86967  -0.00330  -0.00613   0.00035  -0.00578   2.86390
    R2        2.86967  -0.00330  -0.00612   0.00034  -0.00578   2.86390
    R3        2.12268  -0.00188  -0.00214  -0.00243  -0.00457   2.11810
    R4        2.12459  -0.00195  -0.00131  -0.00353  -0.00483   2.11976
    R5        2.86967  -0.00330  -0.00608   0.00030  -0.00578   2.86389
    R6        2.12267  -0.00187  -0.00215  -0.00242  -0.00456   2.11811
    R7        2.12454  -0.00194  -0.00131  -0.00350  -0.00480   2.11974
    R8        2.86967  -0.00330  -0.00612   0.00035  -0.00577   2.86390
    R9        2.12455  -0.00194  -0.00130  -0.00350  -0.00480   2.11975
   R10        2.12265  -0.00187  -0.00215  -0.00240  -0.00455   2.11810
   R11        2.86967  -0.00330  -0.00612   0.00035  -0.00577   2.86390
   R12        2.12268  -0.00188  -0.00214  -0.00244  -0.00458   2.11810
   R13        2.12460  -0.00196  -0.00131  -0.00353  -0.00484   2.11976
   R14        2.86966  -0.00329  -0.00607   0.00029  -0.00577   2.86389
   R15        2.12455  -0.00194  -0.00131  -0.00350  -0.00481   2.11974
   R16        2.12268  -0.00188  -0.00215  -0.00243  -0.00457   2.11811
   R17        2.12265  -0.00187  -0.00216  -0.00240  -0.00455   2.11810
   R18        2.12455  -0.00194  -0.00130  -0.00350  -0.00480   2.11974
    A1        1.94066   0.00000  -0.00149   0.00192   0.00045   1.94112
    A2        1.91267   0.00000  -0.00031   0.00091   0.00060   1.91327
    A3        1.90926   0.00001   0.00049  -0.00073  -0.00024   1.90902
    A4        1.91264   0.00000  -0.00031   0.00092   0.00061   1.91326
    A5        1.90926   0.00001   0.00051  -0.00074  -0.00023   1.90903
    A6        1.87827  -0.00003   0.00119  -0.00244  -0.00125   1.87702
    A7        1.94066   0.00000  -0.00156   0.00196   0.00042   1.94108
    A8        1.91264   0.00001  -0.00034   0.00096   0.00061   1.91325
    A9        1.90931   0.00001   0.00056  -0.00080  -0.00024   1.90906
   A10        1.91267   0.00000  -0.00029   0.00089   0.00060   1.91327
   A11        1.90926   0.00001   0.00055  -0.00077  -0.00022   1.90904
   A12        1.87822  -0.00003   0.00117  -0.00240  -0.00122   1.87700
   A13        1.94068   0.00000  -0.00156   0.00195   0.00041   1.94109
   A14        1.90925   0.00001   0.00052  -0.00075  -0.00023   1.90902
   A15        1.91266   0.00000  -0.00027   0.00088   0.00061   1.91327
   A16        1.90930   0.00001   0.00053  -0.00078  -0.00025   1.90905
   A17        1.91263   0.00001  -0.00034   0.00096   0.00062   1.91325
   A18        1.87825  -0.00003   0.00119  -0.00243  -0.00123   1.87702
   A19        1.94067   0.00000  -0.00149   0.00193   0.00045   1.94112
   A20        1.91264   0.00000  -0.00032   0.00093   0.00061   1.91325
   A21        1.90926   0.00001   0.00051  -0.00075  -0.00024   1.90903
   A22        1.91265   0.00000  -0.00031   0.00092   0.00061   1.91326
   A23        1.90926   0.00001   0.00050  -0.00074  -0.00024   1.90902
   A24        1.87827  -0.00003   0.00119  -0.00245  -0.00126   1.87702
   A25        1.94066   0.00000  -0.00156   0.00197   0.00042   1.94109
   A26        1.90930   0.00001   0.00056  -0.00079  -0.00024   1.90906
   A27        1.91263   0.00001  -0.00035   0.00096   0.00061   1.91325
   A28        1.90926   0.00001   0.00055  -0.00077  -0.00022   1.90904
   A29        1.91266   0.00000  -0.00029   0.00089   0.00060   1.91326
   A30        1.87824  -0.00003   0.00118  -0.00241  -0.00124   1.87701
   A31        1.94068  -0.00000  -0.00156   0.00195   0.00041   1.94109
   A32        1.91263   0.00001  -0.00034   0.00096   0.00062   1.91325
   A33        1.90930   0.00001   0.00052  -0.00077  -0.00025   1.90905
   A34        1.91265   0.00000  -0.00027   0.00089   0.00062   1.91327
   A35        1.90924   0.00001   0.00053  -0.00074  -0.00022   1.90902
   A36        1.87826  -0.00003   0.00121  -0.00244  -0.00124   1.87703
    D1       -0.96896   0.00000  -0.00422   0.00540   0.00118  -0.96778
    D2       -3.08614  -0.00000  -0.00262   0.00236  -0.00026  -3.08640
    D3        1.14173   0.00002  -0.00417   0.00518   0.00101   1.14274
    D4       -3.08613  -0.00001  -0.00266   0.00237  -0.00029  -3.08642
    D5        1.07988  -0.00001  -0.00106  -0.00067  -0.00173   1.07815
    D6       -0.97544   0.00001  -0.00261   0.00215  -0.00046  -0.97590
    D7        1.14170   0.00002  -0.00421   0.00523   0.00102   1.14271
    D8       -0.97548   0.00001  -0.00261   0.00219  -0.00042  -0.97590
    D9       -3.03080   0.00004  -0.00416   0.00500   0.00085  -3.02995
   D10        0.96897  -0.00000   0.00422  -0.00541  -0.00119   0.96778
   D11        3.08613   0.00000   0.00264  -0.00238   0.00027   3.08640
   D12       -1.14170  -0.00002   0.00421  -0.00523  -0.00101  -1.14272
   D13        3.08615   0.00000   0.00266  -0.00239   0.00027   3.08642
   D14       -1.07988   0.00001   0.00109   0.00064   0.00173  -1.07815
   D15        0.97548  -0.00001   0.00266  -0.00221   0.00045   0.97592
   D16       -1.14170  -0.00002   0.00422  -0.00524  -0.00102  -1.14272
   D17        0.97546  -0.00001   0.00265  -0.00221   0.00044   0.97590
   D18        3.03082  -0.00004   0.00422  -0.00506  -0.00085   3.02997
   D19        0.96896  -0.00001   0.00418  -0.00539  -0.00120   0.96776
   D20       -1.14175  -0.00002   0.00417  -0.00518  -0.00100  -1.14275
   D21        3.08611   0.00000   0.00257  -0.00232   0.00026   3.08637
   D22        3.08612   0.00000   0.00255  -0.00231   0.00025   3.08637
   D23        0.97541  -0.00001   0.00254  -0.00210   0.00044   0.97585
   D24       -1.07991   0.00001   0.00094   0.00077   0.00171  -1.07820
   D25       -1.14175  -0.00002   0.00413  -0.00515  -0.00102  -1.14277
   D26        3.03072  -0.00004   0.00411  -0.00494  -0.00082   3.02990
   D27        0.97540  -0.00001   0.00252  -0.00207   0.00044   0.97584
   D28       -0.96896   0.00000  -0.00422   0.00541   0.00119  -0.96777
   D29       -3.08613  -0.00001  -0.00265   0.00238  -0.00028  -3.08641
   D30        1.14171   0.00002  -0.00421   0.00524   0.00102   1.14273
   D31        1.14172   0.00002  -0.00421   0.00522   0.00101   1.14273
   D32       -0.97544   0.00001  -0.00265   0.00218  -0.00046  -0.97591
   D33       -3.03079   0.00004  -0.00420   0.00504   0.00084  -3.02996
   D34       -3.08613  -0.00000  -0.00265   0.00239  -0.00027  -3.08639
   D35        1.07989  -0.00001  -0.00109  -0.00065  -0.00174   1.07815
   D36       -0.97546   0.00001  -0.00264   0.00221  -0.00043  -0.97590
   D37        0.96895  -0.00000   0.00421  -0.00541  -0.00119   0.96776
   D38       -1.14174  -0.00002   0.00415  -0.00518  -0.00103  -1.14277
   D39        3.08611   0.00000   0.00260  -0.00235   0.00025   3.08636
   D40        3.08610   0.00001   0.00264  -0.00236   0.00029   3.08639
   D41        0.97542  -0.00001   0.00259  -0.00214   0.00045   0.97586
   D42       -1.07992   0.00001   0.00104   0.00069   0.00173  -1.07819
   D43       -1.14172  -0.00002   0.00420  -0.00522  -0.00102  -1.14275
   D44        3.03078  -0.00004   0.00414  -0.00500  -0.00086   3.02991
   D45        0.97544  -0.00001   0.00259  -0.00217   0.00042   0.97586
   D46       -0.96895   0.00001  -0.00417   0.00539   0.00121  -0.96774
   D47       -3.08610  -0.00000  -0.00256   0.00231  -0.00025  -3.08635
   D48        1.14175   0.00002  -0.00417   0.00519   0.00102   1.14277
   D49        1.14176   0.00002  -0.00411   0.00515   0.00104   1.14279
   D50       -0.97539   0.00001  -0.00249   0.00207  -0.00042  -0.97581
   D51       -3.03072   0.00004  -0.00411   0.00495   0.00085  -3.02988
   D52       -3.08611  -0.00000  -0.00253   0.00230  -0.00024  -3.08634
   D53        1.07993  -0.00001  -0.00092  -0.00078  -0.00170   1.07823
   D54       -0.97540   0.00001  -0.00253   0.00210  -0.00043  -0.97583
         Item               Value     Threshold  Converged?
 Maximum Force            0.003300     0.000450     NO 
 RMS     Force            0.001005     0.000300     NO 
 Maximum Displacement     0.008838     0.001800     NO 
 RMS     Displacement     0.003055     0.001200     NO 
 Predicted change in Energy=-1.106602D-04
 GradGradGradGradGradGradGradGradGradGradGradGradGradGradGradGradGradGrad

                          Input orientation:                          
 ---------------------------------------------------------------------
 Center     Atomic      Atomic             Coordinates (Angstroms)
 Number     Number       Type             X           Y           Z
 ---------------------------------------------------------------------
      1          6           0        1.807203    3.477543    1.194322
      2          6           0        1.058607    2.257870    1.693088
      3          6           0        1.712593    0.978231    1.211860
      4          6           0        3.173884    0.925732    1.610159
      5          6           0        3.922484    2.145410    1.111412
[...]
 8,-0.0275511,0.000586,-0.0325546,0.0055306,-0.0422884,-0.0061038,-0.04
 35354,-0.0363828,-0.0055698,0.0139538,0.0262782,-0.03385,0.0011073,0.0
 022189,0.0025004,0.001662,-0.0012165,-0.0027382,-0.0039723,0.0095169,0
 .0253588,0.0087925,-0.0102736,-0.0029527,-0.0098051,0.0225799,0.005984
 3,0.0024911,-0.0043228,0.0080765,-0.0018278,0.0001369,-0.0020181,0.000
 2339,0.0021584,0.0002365,0.0118422,-0.0002878,0.0249209,0.0278608,-0.0
 008836,0.0055345,-0.0009654,0.0035369,-0.0001774,-0.0061233,0.0002634,
 0.008052,0.0103843,0.0111508,-0.0035548,0.0107641,0.0209631,-0.0059307
 ,0.0026592,0.0039355,0.0081022,0.0008005,-0.0023383,0.0027457,-0.00187
 83,-0.0009976,0.0029119,-0.004642,-0.0088184,0.0254482,0.0011072,0.002
 2189,0.0025003,0.0016619,-0.0012165,-0.0027382,-0.0039723,0.0095169,0.
 0253588,0.0087925,-0.0102736,-0.0029527,-0.0098051,0.0225798,0.0059843
 ,0.0024911,-0.0043228,0.0080763,0.0278608,-0.0008836,0.0055345,-0.0009
 655,0.0035369,-0.0001774,-0.0061233,0.0002634,0.008052,-0.0018278,0.00
 01369,-0.0020181,0.0002338,0.0021584,0.0002366,0.0118421,-0.0002877,0.
 0249209,0.0008005,-0.0023384,0.0027458,-0.0018784,-0.0009977,0.0029119
 ,-0.004642,-0.0088183,0.0254482,0.0103844,0.0111508,-0.0035548,0.01076
 41,0.0209632,-0.0059306,0.0026591,0.0039354,0.0081021\Polar=48.3336735
 ,0.0000265,48.3348476,-0.0336111,-0.0043574,47.5451645\HyperPolar=0.00
 00108,-0.000003,0.0000152,0.0000161,-0.0000062,0.0000056,0.000013,0.00
 00041,0.000005,0.0000041\PG=C01 [X(C6H12)]\NImag=0\\0.57326084,-0.0010
 2773,0.57419041,0.00095705,-0.00498346,0.53582147,-0.11241817,-0.07758
 377,0.03227478,0.57414667,-0.07480815,-0.18994354,0.05230852,-0.000109
 53,0.57268707,0.03194705,0.05262359,-0.08944507,-0.00706937,0.00001687
 ,0.53644805,0.00841329,-0.00805186,-0.00335686,-0.10134744,0.06845503,
 0.02692949,0.57342391,0.00329952,-0.05367367,-0.00359635,0.07123496,-0
 .20250827,-0.05334413,0.00110158,0.57416749,-0.00312333,0.00468031,0.0
 0596300,0.02724109,-0.05305325,-0.08796119,0.00129319,0.00436172,0.535
 69015,0.00017781,0.00085789,-0.00044269,-0.03582055,0.02234608,0.00002
 125,-0.24424281,0.00500115,-0.05068962,0.57326017,0.00085789,-0.000903
 20,0.00081399,0.03423943,-0.00893796,0.00335698,0.00780248,-0.06591967
 ,0.00193216,-0.00102772,0.57419064,-0.00044269,0.00081399,0.00037008,0
 .00655251,-0.00029020,0.00546105,-0.05071877,0.00168205,-0.08164435,0.
 00095682,-0.00498341,0.53582099,-0.03582064,0.03423948,0.00655251,-0.0
 0126065,0.00007950,0.00102034,-0.03992748,-0.03179614,0.00702623,-0.11
 241812,-0.07758375,0.03227474,0.57414688,0.02234613,-0.00893799,-0.000
 29020,0.00007951,0.00064771,-0.00004138,-0.01999746,-0.00487420,-0.000
 05045,-0.07480813,-0.18994363,0.05230851,-0.00010989,0.57268768,0.0000
 2124,0.00335698,0.00546106,0.00102034,-0.00004138,0.00025762,0.0000719
 1,-0.00318720,0.00550502,0.03194701,0.05262359,-0.08944505,-0.00706953
 ,0.00001702,0.53644771,-0.24424344,0.00780253,-0.05071904,-0.03992755,
 -0.01999748,0.00007190,0.00004177,-0.00093691,-0.00048969,0.00841330,-
 0.00805184,-0.00335687,-0.10134756,0.06845533,0.02692962,0.57342477,0.
 00500121,-0.06591961,0.00168207,-0.03179617,-0.00487420,-0.00318721,-0
 .00093691,-0.00078927,-0.00076145,0.00329953,-0.05367372,-0.00359637,0
 .07123526,-0.20250872,-0.05334436,0.00110123,0.57416802,-0.05068988,0.
 00193218,-0.08164439,0.00702623,-0.00005045,0.00550503,-0.00048969,-0.
 00076145,0.00039220,-0.00312333,0.00468030,0.00596301,0.02724123,-0.05
 305348,-0.08796125,0.00129334,0.00436208,0.53569005,-0.08091406,0.0824
 3879,0.03812956,0.00637300,-0.01050332,-0.00294944,-0.00087388,-0.0015
 6230,0.00079132,-0.00008047,-0.00017251,-0.00000800,-0.00356359,-0.000
 29504,-0.00127108,-0.02629362,0.02593158,0.00757826,0.10270974,0.08250
 980,-0.20181152,-0.07536662,0.00289830,-0.03668210,-0.00555295,-0.0019
 5067,-0.00214725,0.00129867,-0.00016693,0.00014736,0.00002942,0.000106
 32,0.00035879,0.00005132,0.01176514,-0.00364272,-0.00117983,-0.0985237
 8,0.24691785,0.03895434,-0.07692817,-0.07598839,-0.00170809,0.00648907
 ,0.00599624,0.00076351,0.00108336,-0.00022412,0.00005681,-0.00009327,-
 0.00000528,-0.00109239,-0.00001903,-0.00004047,-0.00255001,0.00360414,
 0.00562349,-0.04540612,0.08879155,0.08552813,-0.03991359,0.00156140,-0
 .01602017,0.00134772,-0.00606603,0.01486472,0.00007099,0.00019233,-0.0
 0004518,-0.00003928,0.00005176,0.00000192,0.00000673,0.00016022,-0.000
 25367,-0.01306878,0.00122144,-0.03202707,0.00329102,0.00298155,0.01156
 303,0.05326321,0.00151908,-0.04039040,0.00983712,-0.00529897,-0.007225
 99,0.02802181,0.00012111,-0.00021777,0.00034278,0.00005030,-0.00010765
 ,-0.00000444,0.00024599,-0.00015086,0.00022546,0.00121915,0.00408722,0
 .00261290,0.00226809,-0.00202609,-0.02407695,0.00181551,0.04829061,-0.
 01651187,0.01076810,-0.27651419,0.00622619,0.01271717,-0.01910584,-0.0
 0020000,0.00005273,0.00015424,-0.00001503,0.00002765,-0.00002141,0.000
 07024,0.00019538,0.00015156,-0.01450193,0.00109202,-0.01600262,0.00327
 249,-0.00838006,-0.02103947,0.02188335,-0.01742294,0.33222805,-0.02546
 124,-0.01226926,-0.00240771,-0.25253173,0.00755482,-0.07430800,-0.0224
 2810,0.01359570,-0.00227735,-0.00023736,0.00158650,0.00066188,0.000231
 88,-0.00001513,0.00001617,-0.00046023,-0.00175418,0.00078232,-0.000077
 52,-0.00029885,-0.00011519,-0.00034239,-0.00010799,0.00034949,0.307263
 17,-0.02636045,-0.00451718,-0.00396167,0.00754259,-0.03937280,0.002617
 64,0.02782034,-0.00751808,0.00430234,0.00118370,-0.00282388,-0.0012903
 2,-0.00001611,-0.00017057,0.00000059,-0.00135365,-0.00256651,0.0012707
 3,-0.00041273,-0.00040319,-0.00016941,-0.00024488,0.00016774,0.0000874
 4,-0.00902186,0.05305625,0.00743030,0.00158885,0.00566573,-0.07607399,
 0.00268444,-0.06681003,0.00691451,-0.00196838,0.00563298,0.00050702,-0
 .00118214,-0.00018400,-0.00012261,0.00000584,0.00000033,0.00061410,0.0
 0117477,-0.00021855,-0.00011468,-0.00017420,-0.00002075,0.00054028,0.0
 0015563,-0.00004566,0.08697676,-0.00313635,0.07483707,0.00028105,-0.00
 651441,0.01756704,-0.04041318,0.00009539,0.00252979,0.00120889,0.00617
 877,0.01542731,-0.00025257,0.00010536,0.00033942,-0.00013280,0.0000045
 8,0.00000158,-0.00025876,-0.00007065,0.00034967,0.00020019,0.00017925,
 -0.00010003,-0.00072496,-0.00164616,0.00058352,-0.00513359,0.00016465,
 -0.02761409,0.04588027,-0.00611681,-0.00600549,0.02637826,0.00010279,-
 0.03837716,-0.00177794,0.00564756,-0.00748658,-0.02779894,0.00001005,0
 .00013515,-0.00013241,0.00000484,-0.00001221,-0.00000014,0.00002212,0.
 00014096,0.00010614,0.00005321,-0.00041610,0.00053919,-0.00159733,-0.0
 0236040,0.00094417,0.00028931,0.00433540,0.00088141,0.00021438,0.05323
 593,0.00749005,0.01196517,-0.01925974,0.00358256,-0.00181773,-0.278026
 79,0.00647497,-0.01266566,-0.01870674,0.00016917,0.00014162,0.00012484
 ,0.00003787,-0.00000151,-0.00002332,0.00015788,-0.00015420,0.00012524,
 -0.00008376,0.00033028,-0.00000442,0.00058885,0.00094274,0.00006974,-0
 .00986108,0.00020948,-0.01897620,-0.00907400,0.00231912,0.33466495,0.0
 0004558,-0.00021329,-0.00006792,0.00216486,0.00552544,0.01261678,-0.04
 016663,-0.00182075,-0.01681946,-0.01317949,-0.00036497,-0.03213242,-0.
 00002489,-0.00017365,-0.00026747,-0.00004737,-0.00005631,0.00000305,-0
 .00001818,-0.00001791,0.00000133,-0.00000067,-0.00002355,0.00000114,-0
 .00031246,0.00028865,0.00052316,-0.00048930,0.00146211,0.00049577,0.05
 298585,-0.00014411,-0.00019773,-0.00033338,0.00464548,-0.00862759,-0.0
 2921488,-0.00178585,-0.04045541,-0.01190603,-0.00011616,0.00416669,-0.
 00046711,-0.00025485,-0.00012497,-0.00020161,-0.00005510,-0.00009987,0
 .00000541,0.00002486,0.00010602,0.00001810,-0.00000064,-0.00031853,0.0
 0019265,0.00014912,0.00013384,-0.00019865,0.00151090,-0.00262264,-0.00
 094763,-0.00183470,0.04908911,-0.00020135,-0.00003243,0.00015958,0.005
 17139,-0.01330150,-0.01852166,-0.01738066,-0.01279704,-0.27619560,-0.0
 1454427,-0.00027525,-0.01597137,0.00005894,-0.00019616,0.00015731,-0.0
 0001629,-0.00002530,-0.00002110,0.00004297,0.00008571,-0.00000848,-0.0
 0001344,-0.00018837,-0.00004775,0.00034000,-0.00011629,-0.00004176,0.0
 0048967,-0.00094863,0.00009631,0.02331368,0.01968916,0.33170664,-0.000
 61563,0.00145525,0.00067076,0.00669779,0.00717539,-0.00262249,-0.09399
 036,-0.08994742,0.04499211,-0.02900260,-0.02390100,0.00799997,-0.00352
 823,0.00057176,-0.00127760,-0.00005353,0.00018761,-0.00001281,0.000223
 79,0.00030487,-0.00014253,-0.00001798,-0.00001495,0.00003659,-0.000025
 87,0.00038280,-0.00010657,0.00017902,-0.00010012,-0.00010720,0.0028740
 9,-0.00257188,0.00392029,0.11832993,0.00184328,-0.00243930,-0.00132470
 ,-0.00621383,-0.03700953,0.00636625,-0.09000619,-0.18661776,0.07386746
 ,-0.00988041,-0.00096861,0.00070119,0.00017302,0.00032413,0.00003971,0
 .00018301,0.00012128,-0.00003062,-0.00036394,-0.00052773,0.00020943,0.
 00002726,0.00010432,-0.00009030,0.00026893,-0.00044991,0.00018825,-0.0
 0022649,-0.00040698,-0.00031727,-0.00316069,-0.00116588,0.00783170,0.1
 0748206,0.22882662,0.00065387,-0.00110769,-0.00019029,-0.00210712,-0.0
 0574222,0.00599855,0.04593346,0.07536207,-0.07810580,-0.00265848,-0.00
 329599,0.00565854,-0.00108851,0.00009614,-0.00004119,0.00006116,0.0000
 8684,-0.00000612,-0.00015292,-0.00018916,0.00011722,-0.00000041,-0.000
 01973,-0.00000698,-0.00010584,0.00018346,-0.00002576,-0.00013745,-0.00
 052443,0.00000758,0.01338270,0.02285673,-0.02148266,-0.05351709,-0.087
 17113,0.08799931,-0.00008047,-0.00017251,-0.00000800,-0.00356359,-0.00
 029504,-0.00127107,-0.02629360,0.02593155,0.00757827,-0.08091412,0.082
 43884,0.03812959,0.00637300,-0.01050331,-0.00294944,-0.00087388,-0.001
 56230,0.00079132,0.00002219,-0.00000694,0.00000463,-0.00000120,0.00000
 947,0.00000162,-0.00030451,0.00069791,0.00024637,0.00006170,-0.0000807
 4,-0.00009706,-0.00015587,0.00041035,-0.00023071,-0.00059873,0.0000870
 5,0.00024655,0.10270977,-0.00016693,0.00014736,0.00002942,0.00010632,0
 .00035879,0.00005132,0.01176511,-0.00364271,-0.00117983,0.08250985,-0.
 20181152,-0.07536662,0.00289831,-0.03668209,-0.00555296,-0.00195067,-0
 .00214725,0.00129867,-0.00000694,0.00003053,-0.00001071,0.00000891,-0.
 00001335,-0.00000239,0.00000337,0.00002125,0.00002276,-0.00003487,0.00
 001900,0.00001444,0.00026928,-0.00008059,0.00024002,-0.00002683,0.0001
 4984,-0.00000828,-0.09852383,0.24691782,0.00005681,-0.00009327,-0.0000
 0528,-0.00109239,-0.00001903,-0.00004047,-0.00255000,0.00360413,0.0056
 2348,0.03895437,-0.07692819,-0.07598838,-0.00170809,0.00648907,0.00599
 624,0.00076351,0.00108336,-0.00022412,0.00000463,-0.00001071,-0.000004
 20,-0.00000491,0.00000998,0.00001166,-0.00006311,0.00019043,0.00009655
 ,-0.00001941,0.00001386,-0.00000133,-0.00038907,0.00036175,0.00001613,
 0.00024716,-0.00001326,-0.00005256,-0.04540615,0.08879157,0.08552814,-
 0.00003928,0.00005176,0.00000192,0.00000673,0.00016022,-0.00025367,-0.
 01306878,0.00122144,-0.03202705,-0.03991364,0.00156140,-0.01602021,0.0
 0134773,-0.00606603,0.01486470,0.00007099,0.00019233,-0.00004518,-0.00
 000120,0.00000891,-0.00000491,-0.00002046,-0.00002305,0.00001190,0.000
 07593,-0.00008083,0.00001369,-0.00022800,0.00014578,0.00017075,-0.0034
 9120,0.00011225,-0.00086216,-0.00020700,-0.00026563,-0.00041149,0.0032
 9102,0.00298155,0.01156303,0.05326326,0.00005030,-0.00010765,-0.000004
 44,0.00024599,-0.00015086,0.00022545,0.00121915,0.00408721,0.00261289,
 0.00151909,-0.04039044,0.00983712,-0.00529896,-0.00722600,0.02802181,0
 .00012111,-0.00021777,0.00034278,0.00000947,-0.00001335,0.00000998,-0.
 00002305,0.00000873,-0.00002017,-0.00003237,0.00001183,-0.00000923,0.0
 0014212,-0.00009029,-0.00010408,0.00016060,0.00026847,0.00002783,-0.00
 040439,-0.00003753,-0.00033033,0.00226809,-0.00202608,-0.02407695,0.00
 181551,0.04829067,-0.00001503,0.00002765,-0.00002141,0.00007024,0.0001
 9538,0.00015156,-0.01450192,0.00109202,-0.01600259,-0.01651191,0.01076
 810,-0.27651381,0.00622619,0.01271718,-0.01910584,-0.00020000,0.000052
 73,0.00015424,0.00000162,-0.00000239,0.00001166,0.00001190,-0.00002017
 ,-0.00000576,0.00004941,-0.00007636,-0.00000839,-0.00015253,0.00009937
 ,-0.00004867,-0.00086217,0.00003650,0.00020712,-0.00024243,-0.00022100
 ,0.00002422,0.00327249,-0.00838006,-0.02103948,0.02188339,-0.01742294,
 0.33222765,-0.00025258,0.00010536,0.00033942,-0.00013280,0.00000458,0.
 00000158,-0.00025876,-0.00007065,0.00034967,0.00028105,-0.00651440,0.0
 1756702,-0.04041322,0.00009539,0.00252982,0.00120888,0.00617877,0.0154
 2733,0.00006170,-0.00003487,-0.00001941,-0.00022800,0.00014212,-0.0001
 5253,-0.00001768,0.00000090,0.00001281,0.00001854,-0.00000213,-0.00002
 479,-0.00024888,-0.00013227,-0.00015765,0.00007010,0.00003071,-0.00002
 087,0.00020019,0.00017925,-0.00010003,-0.00072496,-0.00164616,0.000583
 52,0.04588031,0.00001005,0.00013515,-0.00013241,0.00000484,-0.00001221
 ,-0.00000014,0.00002212,0.00014096,0.00010614,-0.00611680,-0.00600550,
 0.02637826,0.00010279,-0.03837721,-0.00177783,0.00564756,-0.00748656,-
 0.02779894,-0.00008074,0.00001900,0.00001386,0.00014578,-0.00009029,0.
 00009937,0.00000080,0.00000368,-0.00000043,-0.00000213,-0.00003309,0.0
 0000115,-0.00013128,-0.00006933,-0.00008720,0.00007548,0.00001026,-0.0
 0001256,0.00005321,-0.00041610,0.00053919,-0.00159733,-0.00236040,0.00
 094417,0.00021436,0.05323596,0.00016918,0.00014162,0.00012484,0.000037
 87,-0.00000151,-0.00002332,0.00015788,-0.00015420,0.00012524,0.0074900
 3,0.01196517,-0.01925972,0.00358259,-0.00181761,-0.27802648,0.00647498
 ,-0.01266567,-0.01870676,-0.00009706,0.00001444,-0.00000133,0.00017075
 ,-0.00010408,-0.00004867,-0.00000119,0.00000010,0.00001110,-0.00002479
 ,0.00000115,-0.00000295,0.00018009,0.00009123,-0.00004873,-0.00009898,
 -0.00000723,-0.00000100,-0.00008376,0.00033028,-0.00000442,0.00058885,
 0.00094274,0.00006974,-0.00907402,0.00231900,0.33466465,-0.00023736,0.
 00158650,0.00066189,0.00023188,-0.00001513,0.00001617,-0.00046023,-0.0
 0175418,0.00078232,-0.02546123,-0.01226926,-0.00240771,-0.25253182,0.0
 0755477,-0.07430796,-0.02242812,0.01359571,-0.00227734,-0.00030451,0.0
 0000337,-0.00006311,0.00007593,-0.00003237,0.00004941,0.00003296,-0.00
 000065,-0.00001378,-0.00001768,0.00000080,-0.00000119,0.00008413,0.000
 02766,0.00005461,-0.00035538,0.00002407,-0.00007742,-0.00007752,-0.000
 29885,-0.00011519,-0.00034239,-0.00010799,0.00034949,-0.00513360,0.000
 28931,-0.00986109,0.30726327,0.00118370,-0.00282388,-0.00129032,-0.000
 01611,-0.00017057,0.00000059,-0.00135365,-0.00256651,0.00127073,-0.026
 36046,-0.00451719,-0.00396167,0.00754254,-0.03937279,0.00261762,0.0278
 2035,-0.00751807,0.00430233,0.00069791,0.00002125,0.00019043,-0.000080
 83,0.00001183,-0.00007636,-0.00000065,0.00001834,0.00000037,0.00000090
 ,0.00000368,0.00000010,0.00007559,0.00000479,0.00007219,-0.00066594,0.
 00006907,-0.00018437,-0.00041273,-0.00040319,-0.00016941,-0.00024488,0
 .00016774,0.00008744,0.00016466,0.00433540,0.00020949,-0.00902182,0.05
 305624,0.00050702,-0.00118214,-0.00018400,-0.00012261,0.00000584,0.000
 00033,0.00061410,0.00117477,-0.00021855,0.00743030,0.00158885,0.005665
 73,-0.07607396,0.00268442,-0.06680997,0.00691452,-0.00196838,0.0056329
 8,0.00024637,0.00002276,0.00009655,0.00001369,-0.00000923,-0.00000839,
 -0.00001378,0.00000037,-0.00000277,0.00001281,-0.00000043,0.00001110,0
 .00001324,0.00000797,-0.00000956,0.00025355,-0.00004093,0.00009963,-0.
 00011468,-0.00017420,-0.00002075,0.00054028,0.00015563,-0.00004566,-0.
 02761409,0.00088141,-0.01897621,0.08697671,-0.00313633,0.07483702,-0.0
 2900262,-0.02390102,0.00799995,-0.00352823,0.00057176,-0.00127761,-0.0
 0005353,0.00018761,-0.00001281,-0.00061563,0.00145525,0.00067076,0.006
 69779,0.00717540,-0.00262249,-0.09399036,-0.08994746,0.04499203,-0.000
 59873,-0.00002683,0.00024716,-0.00020700,-0.00040439,-0.00024243,-0.00
 035538,-0.00066594,0.00025355,0.00007010,0.00007548,-0.00009898,-0.000
 00267,-0.00001026,0.00000195,0.00002329,0.00000757,0.00000531,0.000223
 79,0.00030487,-0.00014253,-0.00001798,-0.00001495,0.00003659,0.0001790
 2,-0.00010012,-0.00010720,-0.00002587,0.00038280,-0.00010657,0.1183299
 5,-0.00988042,-0.00096862,0.00070119,0.00017302,0.00032414,0.00003971,
 0.00018301,0.00012128,-0.00003062,0.00184328,-0.00243930,-0.00132470,-
 0.00621383,-0.03700955,0.00636623,-0.09000622,-0.18661786,0.07386735,0
 .00008705,0.00014984,-0.00001326,-0.00026563,-0.00003753,-0.00022100,0
 .00002407,0.00006907,-0.00004093,0.00003071,0.00001026,-0.00000723,-0.
 00000980,-0.00001199,0.00000260,0.00000757,0.00002972,0.00000985,-0.00
 036394,-0.00052773,0.00020943,0.00002726,0.00010432,-0.00009030,-0.000
 22649,-0.00040698,-0.00031727,0.00026893,-0.00044991,0.00018825,0.1074
 8211,0.22882675,-0.00265850,-0.00329600,0.00565855,-0.00108851,0.00009
 614,-0.00004119,0.00006116,0.00008684,-0.00000612,0.00065387,-0.001107
 69,-0.00019029,-0.00210712,-0.00574224,0.00599855,0.04593339,0.0753619
 7,-0.07810565,0.00024655,-0.00000828,-0.00005256,-0.00041150,-0.000330
 33,0.00002422,-0.00007742,-0.00018437,0.00009963,-0.00002087,-0.000012
 56,-0.00000100,-0.00000550,-0.00000924,0.00001176,0.00000531,0.0000098
 5,-0.00000449,-0.00015292,-0.00018916,0.00011722,-0.00000041,-0.000019
 73,-0.00000698,-0.00013745,-0.00052443,0.00000758,-0.00010584,0.000183
 46,-0.00002576,-0.05351700,-0.08717101,0.08799917,-0.01317947,-0.00036
 496,-0.03213243,-0.00002489,-0.00017366,-0.00026747,-0.00004737,-0.000
 05631,0.00000305,0.00004558,-0.00021329,-0.00006792,0.00216485,0.00552
 544,0.01261679,-0.04016664,-0.00182074,-0.01681940,-0.00015587,0.00026
 928,-0.00038907,-0.00349120,0.00016061,-0.00086217,0.00008413,0.000075
 59,0.00001324,-0.00024889,-0.00013128,0.00018009,-0.00001681,0.0000251
 8,0.00001304,-0.00000267,-0.00000980,-0.00000550,-0.00001818,-0.000017
 91,0.00000133,-0.00000067,-0.00002355,0.00000114,-0.00048930,0.0014621
 1,0.00049577,-0.00031246,0.00028865,0.00052316,0.00287409,-0.00316070,
 0.01338271,0.05298585,-0.00011616,0.00416669,-0.00046711,-0.00025485,-
 0.00012497,-0.00020161,-0.00005510,-0.00009987,0.00000541,-0.00014411,
 -0.00019773,-0.00033338,0.00464549,-0.00862757,-0.02921488,-0.00178584
 ,-0.04045542,-0.01190605,0.00041035,-0.00008059,0.00036175,0.00011225,
 0.00026847,0.00003650,0.00002766,0.00000479,0.00000797,-0.00013227,-0.
 00006933,0.00009123,0.00002518,0.00000562,0.00001904,-0.00001026,-0.00
 001199,-0.00000924,0.00002486,0.00010602,0.00001810,-0.00000064,-0.000
 31853,0.00019265,0.00151090,-0.00262264,-0.00094763,0.00014912,0.00013
 384,-0.00019865,-0.00257189,-0.00116589,0.02285674,-0.00183470,0.04908
 912,-0.01454427,-0.00027525,-0.01597140,0.00005894,-0.00019616,0.00015
 731,-0.00001629,-0.00002530,-0.00002110,-0.00020135,-0.00003243,0.0001
 5958,0.00517140,-0.01330150,-0.01852167,-0.01738061,-0.01279708,-0.276
 19552,-0.00023072,0.00024002,0.00001613,-0.00086216,0.00002783,0.00020
 712,0.00005461,0.00007219,-0.00000956,-0.00015765,-0.00008720,-0.00004
 873,0.00001304,0.00001904,-0.00000631,0.00000195,0.00000260,0.00001176
 ,0.00004297,0.00008571,-0.00000848,-0.00001344,-0.00018837,-0.00004775
 ,0.00048967,-0.00094863,0.00009631,0.00034000,-0.00011629,-0.00004176,
 0.00392031,0.00783172,-0.02148267,0.02331362,0.01968917,0.33170659\\0.
 00000749,-0.00001303,0.00000973,0.00001436,-0.00000357,-0.00001236,0.0
 0000617,0.00001459,0.00001115,-0.00000727,0.00001300,-0.00000987,-0.00
 001448,0.00000376,0.00001256,-0.00000634,-0.00001484,-0.00001129,-0.00
 000397,0.00000736,-0.00000159,0.00000065,-0.00000032,0.00000843,-0.000
 00777,-0.00000049,0.00000195,0.00000058,-0.00000055,-0.00000824,0.0000
 0040,0.00000100,0.00000846,-0.00000512,-0.00000646,-0.00000132,0.00000
 401,-0.00000737,0.00000163,-0.00000061,0.00000031,-0.00000828,-0.00000
 054,0.00000059,0.00000812,0.00000774,0.00000052,-0.00000199,0.00000509
 ,0.00000646,0.00000137,-0.00000039,-0.00000094,-0.00000846\\\@


 MUD THROWN IS GROUND LOST -- FROM A TEA BAG
 Job cpu time:       0 days  0 hours  0 minutes  1.1 seconds.
 File lengths (MBytes):  RWF=    149 Int=      0 D2E=      0 Chk=      3 Scr=      2
 Normal termination of Gaussian 09 at Sat Apr 16 12:29:38 2022.
