 Entering Gaussian System, Link 0=g09
 Input=/scratch/mverot/anthracene-2-3-opt/anthracene-2-3-opt.com
 Output=/scratch/mverot/anthracene-2-3-opt/anthracene-2-3-opt.log
 Initial command:
 /opt/g09/l1.exe "/scratch/mverot/anthracene-2-3-opt/Gau-2835440.inp" -scrdir="/scratch/mverot/anthracene-2-3-opt/"
 Entering Link 1 = /opt/g09/l1.exe PID=   2835442.
  
 Copyright (c) 1988,1990,1992,1993,1995,1998,2003,2009,2013,
            Gaussian, Inc.  All Rights Reserved.
  
 This is part of the Gaussian(R) 09 program.  It is based on
 the Gaussian(R) 03 system (copyright 2003, Gaussian, Inc.),
 the Gaussian(R) 98 system (copyright 1998, Gaussian, Inc.),
 the Gaussian(R) 94 system (copyright 1995, Gaussian, Inc.),
 the Gaussian 92(TM) system (copyright 1992, Gaussian, Inc.),
 the Gaussian 90(TM) system (copyright 1990, Gaussian, Inc.),
 the Gaussian 88(TM) system (copyright 1988, Gaussian, Inc.),
 the Gaussian 86(TM) system (copyright 1986, Carnegie Mellon
 University), and the Gaussian 82(TM) system (copyright 1983,
 Carnegie Mellon University). Gaussian is a federally registered
 trademark of Gaussian, Inc.
  
 This software contains proprietary and confidential information,
 including trade secrets, belonging to Gaussian, Inc.
  
 This software is provided under written license and may be
 used, copied, transmitted, or stored only in accord with that
 written license.
  
 The following legend is applicable only to US Government
 contracts under FAR:
  
                    RESTRICTED RIGHTS LEGEND
  
 Use, reproduction and disclosure by the US Government is
 subject to restrictions as set forth in subparagraphs (a)
 and (c) of the Commercial Computer Software - Restricted
 Rights clause in FAR 52.227-19.
  
 Gaussian, Inc.
 340 Quinnipiac St., Bldg. 40, Wallingford CT 06492
  
  
 ---------------------------------------------------------------
 Warning -- This program may not be used in any manner that
 competes with the business of Gaussian, Inc. or will provide
 assistance to any competitor of Gaussian, Inc.  The licensee
 of this program is prohibited from giving any competitor of
 Gaussian, Inc. access to this program.  By using this program,
 the user acknowledges that Gaussian, Inc. is engaged in the
 business of creating and licensing software in the field of
 computational chemistry and represents and warrants to the
 licensee that it is not a competitor of Gaussian, Inc. and that
 it will not use this program in any manner prohibited above.
 ---------------------------------------------------------------
  

 Cite this work as:
 Gaussian 09, Revision D.01,
 M. J. Frisch, G. W. Trucks, H. B. Schlegel, G. E. Scuseria, 
 M. A. Robb, J. R. Cheeseman, G. Scalmani, V. Barone, B. Mennucci, 
 G. A. Petersson, H. Nakatsuji, M. Caricato, X. Li, H. P. Hratchian, 
 A. F. Izmaylov, J. Bloino, G. Zheng, J. L. Sonnenberg, M. Hada, 
 M. Ehara, K. Toyota, R. Fukuda, J. Hasegawa, M. Ishida, T. Nakajima, 
 Y. Honda, O. Kitao, H. Nakai, T. Vreven, J. A. Montgomery, Jr., 
 J. E. Peralta, F. Ogliaro, M. Bearpark, J. J. Heyd, E. Brothers, 
 K. N. Kudin, V. N. Staroverov, T. Keith, R. Kobayashi, J. Normand, 
 K. Raghavachari, A. Rendell, J. C. Burant, S. S. Iyengar, J. Tomasi, 
 M. Cossi, N. Rega, J. M. Millam, M. Klene, J. E. Knox, J. B. Cross, 
 V. Bakken, C. Adamo, J. Jaramillo, R. Gomperts, R. E. Stratmann, 
 O. Yazyev, A. J. Austin, R. Cammi, C. Pomelli, J. W. Ochterski, 
 R. L. Martin, K. Morokuma, V. G. Zakrzewski, G. A. Voth, 
 P. Salvador, J. J. Dannenberg, S. Dapprich, A. D. Daniels, 
 O. Farkas, J. B. Foresman, J. V. Ortiz, J. Cioslowski, 
 and D. J. Fox, Gaussian, Inc., Wallingford CT, 2013.
 
 ******************************************
 Gaussian 09:  AM64L-G09RevD.01 24-Apr-2013
                12-Apr-2022 
 ******************************************
 %chk=anthracene-2-3-opt
 ----------
 #n AM1 Opt
 ----------
 1/14=-1,18=20,19=15,26=1,38=1/1,3;
 2/9=110,12=2,17=6,18=5,40=1/2;
 3/5=2,16=1,25=1,41=700000,71=1/1,2,3;
 4/35=1/1;
 5/5=2,35=1,38=5/2;
 6/7=2,8=2,9=2,10=2,28=1/1;
 7//1,2,3,16;
 1/14=-1,18=20,19=15,26=1/3(2);
 2/9=110/2;
 99//99;
 2/9=110/2;
 3/5=2,16=1,25=1,41=700000,71=1,135=20/1,2,3;
 4/5=5,16=3,35=1/1;
 5/5=2,35=1,38=5/2;
 7//1,2,3,16;
 1/14=-1,18=20,19=15,26=1/3(-5);
 2/9=110/2;
 6/7=2,8=2,9=2,10=2,19=2,28=1/1;
 99/9=1/99;
 ---------------------
 Geometry optimization
 ---------------------
 Symbolic Z-matrix:
 Charge =  0 Multiplicity = 1
 C                     0.01771   1.45101  -0.01652 
 C                     1.29133   0.70404  -0.00695 
 C                    -1.25582   0.70392  -0.00756 
 O                     0.0138    2.67628  -0.03072 
 C                     0.01862  -1.4377    0.01468 
 C                    -1.25536  -0.69133   0.0138 
 O                     0.01546  -2.66302   0.02448 
 C                     1.29176  -0.68995   0.00394 
 C                     2.50495   1.40355  -0.01 
 C                    -2.46651  -1.39612   0.03367 
 C                     2.50582  -1.38872   0.00708 
 C                    -2.46748   1.40804  -0.01817 
 C                     3.71355   0.70508  -0.00474 
 C                     3.71399  -0.68951   0.00246 
 C                    -3.6689    0.70378  -0.00216 
 C                    -3.66839  -0.6925    0.02807 
 H                     2.51333   2.49229  -0.0163 
 H                    -2.45875  -2.483     0.05223 
 H                     2.51486  -2.47745   0.01356 
 H                    -2.46047   2.49493  -0.0369 
 H                     4.6553    1.24982  -0.00675 
 H                     4.65606  -1.23366   0.00519 
 N                    -4.86019   1.37178  -0.01423 
 N                    -4.85916  -1.36113   0.05143 
 H                    -5.70589  -0.85887   0.04735 
 H                    -4.87073  -2.34534   0.07235 
 H                    -4.87248   2.35597  -0.03551 
 H                    -5.70658   0.86908  -0.00165 
 

 GradGradGradGradGradGradGradGradGradGradGradGradGradGradGradGradGradGrad
 Berny optimization.
 Initialization pass.
                           ----------------------------
                           !    Initial Parameters    !
                           ! (Angstroms and Degrees)  !
 --------------------------                            --------------------------
 ! Name  Definition              Value          Derivative Info.                !
 --------------------------------------------------------------------------------
 ! R1    R(1,2)                  1.4765         estimate D2E/DX2                !
 ! R2    R(1,3)                  1.4765         estimate D2E/DX2                !
 ! R3    R(1,4)                  1.2254         estimate D2E/DX2                !
 ! R4    R(2,8)                  1.394          estimate D2E/DX2                !
 ! R5    R(2,9)                  1.4008         estimate D2E/DX2                !
 ! R6    R(3,6)                  1.3954         estimate D2E/DX2                !
 ! R7    R(3,12)                 1.4014         estimate D2E/DX2                !
 ! R8    R(5,6)                  1.4765         estimate D2E/DX2                !
 ! R9    R(5,7)                  1.2254         estimate D2E/DX2                !
 ! R10   R(5,8)                  1.4765         estimate D2E/DX2                !
 ! R11   R(6,10)                 1.4014         estimate D2E/DX2                !
 ! R12   R(8,11)                 1.4008         estimate D2E/DX2                !
 ! R13   R(9,13)                 1.3959         estimate D2E/DX2                !
 ! R14   R(9,17)                 1.0888         estimate D2E/DX2                !
 ! R15   R(10,16)                1.3927         estimate D2E/DX2                !
 ! R16   R(10,18)                1.0871         estimate D2E/DX2                !
 ! R17   R(11,14)                1.3959         estimate D2E/DX2                !
 ! R18   R(11,19)                1.0888         estimate D2E/DX2                !
 ! R19   R(12,15)                1.3927         estimate D2E/DX2                !
 ! R20   R(12,20)                1.0871         estimate D2E/DX2                !
 ! R21   R(13,14)                1.3946         estimate D2E/DX2                !
 ! R22   R(13,21)                1.088          estimate D2E/DX2                !
 ! R23   R(14,22)                1.0879         estimate D2E/DX2                !
 ! R24   R(15,16)                1.3966         estimate D2E/DX2                !
 ! R25   R(15,23)                1.3658         estimate D2E/DX2                !
 ! R26   R(16,24)                1.3658         estimate D2E/DX2                !
 ! R27   R(23,27)                0.9845         estimate D2E/DX2                !
 ! R28   R(23,28)                0.9845         estimate D2E/DX2                !
 ! R29   R(24,25)                0.9845         estimate D2E/DX2                !
 ! R30   R(24,26)                0.9845         estimate D2E/DX2                !
 ! A1    A(2,1,3)              119.2077         estimate D2E/DX2                !
 ! A2    A(2,1,4)              120.5762         estimate D2E/DX2                !
 ! A3    A(3,1,4)              120.2161         estimate D2E/DX2                !
 ! A4    A(1,2,8)              120.4107         estimate D2E/DX2                !
 ! A5    A(1,2,9)              119.6485         estimate D2E/DX2                !
 ! A6    A(8,2,9)              119.9408         estimate D2E/DX2                !
 ! A7    A(1,3,6)              120.3799         estimate D2E/DX2                !
 ! A8    A(1,3,12)             119.4366         estimate D2E/DX2                !
 ! A9    A(6,3,12)             120.1834         estimate D2E/DX2                !
 ! A10   A(6,5,7)              120.2157         estimate D2E/DX2                !
 ! A11   A(6,5,8)              119.2078         estimate D2E/DX2                !
 ! A12   A(7,5,8)              120.5765         estimate D2E/DX2                !
 ! A13   A(3,6,5)              120.3798         estimate D2E/DX2                !
 ! A14   A(3,6,10)             120.1841         estimate D2E/DX2                !
 ! A15   A(5,6,10)             119.4361         estimate D2E/DX2                !
 ! A16   A(2,8,5)              120.4111         estimate D2E/DX2                !
 ! A17   A(2,8,11)             119.941          estimate D2E/DX2                !
 ! A18   A(5,8,11)             119.6479         estimate D2E/DX2                !
 ! A19   A(2,9,13)             120.0164         estimate D2E/DX2                !
 ! A20   A(2,9,17)             120.3996         estimate D2E/DX2                !
 ! A21   A(13,9,17)            119.584          estimate D2E/DX2                !
 ! A22   A(6,10,16)            119.4507         estimate D2E/DX2                !
 ! A23   A(6,10,18)            119.7947         estimate D2E/DX2                !
 ! A24   A(16,10,18)           120.7545         estimate D2E/DX2                !
 ! A25   A(8,11,14)            120.0166         estimate D2E/DX2                !
 ! A26   A(8,11,19)            120.3991         estimate D2E/DX2                !
 ! A27   A(14,11,19)           119.5843         estimate D2E/DX2                !
 ! A28   A(3,12,15)            119.4511         estimate D2E/DX2                !
 ! A29   A(3,12,20)            119.795          estimate D2E/DX2                !
 ! A30   A(15,12,20)           120.7538         estimate D2E/DX2                !
 ! A31   A(9,13,14)            120.043          estimate D2E/DX2                !
 ! A32   A(9,13,21)            119.9284         estimate D2E/DX2                !
 ! A33   A(14,13,21)           120.0286         estimate D2E/DX2                !
 ! A34   A(11,14,13)           120.0419         estimate D2E/DX2                !
 ! A35   A(11,14,22)           119.9285         estimate D2E/DX2                !
 ! A36   A(13,14,22)           120.0296         estimate D2E/DX2                !
 ! A37   A(12,15,16)           120.3639         estimate D2E/DX2                !
 ! A38   A(12,15,23)           120.3304         estimate D2E/DX2                !
 ! A39   A(16,15,23)           119.3057         estimate D2E/DX2                !
 ! A40   A(10,16,15)           120.3647         estimate D2E/DX2                !
 ! A41   A(10,16,24)           120.3295         estimate D2E/DX2                !
 ! A42   A(15,16,24)           119.3058         estimate D2E/DX2                !
 ! A43   A(15,23,27)           120.0            estimate D2E/DX2                !
 ! A44   A(15,23,28)           120.0001         estimate D2E/DX2                !
 ! A45   A(27,23,28)           119.9999         estimate D2E/DX2                !
 ! A46   A(16,24,25)           120.0001         estimate D2E/DX2                !
 ! A47   A(16,24,26)           119.9999         estimate D2E/DX2                !
 ! A48   A(25,24,26)           120.0            estimate D2E/DX2                !
 ! D1    D(3,1,2,8)              0.3049         estimate D2E/DX2                !
 ! D2    D(3,1,2,9)           -179.749          estimate D2E/DX2                !
 ! D3    D(4,1,2,8)           -179.7492         estimate D2E/DX2                !
 ! D4    D(4,1,2,9)              0.1969         estimate D2E/DX2                !
 ! D5    D(2,1,3,6)              0.193          estimate D2E/DX2                !
 ! D6    D(2,1,3,12)          -179.9255         estimate D2E/DX2                !
 ! D7    D(4,1,3,6)           -179.753          estimate D2E/DX2                !
 ! D8    D(4,1,3,12)             0.1284         estimate D2E/DX2                !
 ! D9    D(1,2,8,5)             -0.3884         estimate D2E/DX2                !
 ! D10   D(1,2,8,11)           179.7225         estimate D2E/DX2                !
 ! D11   D(9,2,8,5)            179.6656         estimate D2E/DX2                !
 ! D12   D(9,2,8,11)            -0.2234         estimate D2E/DX2                !
 ! D13   D(1,2,9,13)          -179.8231         estimate D2E/DX2                !
 ! D14   D(1,2,9,17)             0.1871         estimate D2E/DX2                !
 ! D15   D(8,2,9,13)             0.1233         estimate D2E/DX2                !
 ! D16   D(8,2,9,17)          -179.8665         estimate D2E/DX2                !
 ! D17   D(1,3,6,5)             -0.5857         estimate D2E/DX2                !
 ! D18   D(1,3,6,10)           179.4592         estimate D2E/DX2                !
 ! D19   D(12,3,6,5)           179.5337         estimate D2E/DX2                !
 ! D20   D(12,3,6,10)           -0.4214         estimate D2E/DX2                !
 ! D21   D(1,3,12,15)         -179.6426         estimate D2E/DX2                !
 ! D22   D(1,3,12,20)            0.2452         estimate D2E/DX2                !
 ! D23   D(6,3,12,15)            0.239          estimate D2E/DX2                !
 ! D24   D(6,3,12,20)         -179.8731         estimate D2E/DX2                !
 ! D25   D(7,5,6,3)           -179.5137         estimate D2E/DX2                !
 ! D26   D(7,5,6,10)             0.4417         estimate D2E/DX2                !
 ! D27   D(8,5,6,3)              0.5001         estimate D2E/DX2                !
 ! D28   D(8,5,6,10)          -179.5445         estimate D2E/DX2                !
 ! D29   D(6,5,8,2)             -0.0023         estimate D2E/DX2                !
 ! D30   D(6,5,8,11)           179.8871         estimate D2E/DX2                !
 ! D31   D(7,5,8,2)           -179.9884         estimate D2E/DX2                !
 ! D32   D(7,5,8,11)            -0.099          estimate D2E/DX2                !
 ! D33   D(3,6,10,16)            0.1812         estimate D2E/DX2                !
 ! D34   D(3,6,10,18)         -179.88           estimate D2E/DX2                !
 ! D35   D(5,6,10,16)         -179.7743         estimate D2E/DX2                !
 ! D36   D(5,6,10,18)            0.1645         estimate D2E/DX2                !
 ! D37   D(2,8,11,14)            0.1493         estimate D2E/DX2                !
 ! D38   D(2,8,11,19)         -179.8775         estimate D2E/DX2                !
 ! D39   D(5,8,11,14)         -179.7406         estimate D2E/DX2                !
 ! D40   D(5,8,11,19)            0.2326         estimate D2E/DX2                !
 ! D41   D(2,9,13,14)            0.052          estimate D2E/DX2                !
 ! D42   D(2,9,13,21)         -179.9776         estimate D2E/DX2                !
 ! D43   D(17,9,13,14)        -179.9582         estimate D2E/DX2                !
 ! D44   D(17,9,13,21)           0.0122         estimate D2E/DX2                !
 ! D45   D(6,10,16,15)           0.2394         estimate D2E/DX2                !
 ! D46   D(6,10,16,24)        -179.7929         estimate D2E/DX2                !
 ! D47   D(18,10,16,15)       -179.6988         estimate D2E/DX2                !
 ! D48   D(18,10,16,24)          0.2689         estimate D2E/DX2                !
 ! D49   D(8,11,14,13)           0.0258         estimate D2E/DX2                !
 ! D50   D(8,11,14,22)         179.9828         estimate D2E/DX2                !
 ! D51   D(19,11,14,13)       -179.9476         estimate D2E/DX2                !
 ! D52   D(19,11,14,22)          0.0094         estimate D2E/DX2                !
 ! D53   D(3,12,15,16)           0.1815         estimate D2E/DX2                !
 ! D54   D(3,12,15,23)        -179.8981         estimate D2E/DX2                !
 ! D55   D(20,12,15,16)       -179.7053         estimate D2E/DX2                !
 ! D56   D(20,12,15,23)          0.2152         estimate D2E/DX2                !
 ! D57   D(9,13,14,11)          -0.1263         estimate D2E/DX2                !
 ! D58   D(9,13,14,22)         179.9168         estimate D2E/DX2                !
 ! D59   D(21,13,14,11)        179.9033         estimate D2E/DX2                !
 ! D60   D(21,13,14,22)         -0.0536         estimate D2E/DX2                !
 ! D61   D(12,15,16,10)         -0.4229         estimate D2E/DX2                !
 ! D62   D(12,15,16,24)        179.6091         estimate D2E/DX2                !
 ! D63   D(23,15,16,10)        179.6558         estimate D2E/DX2                !
 ! D64   D(23,15,16,24)         -0.3122         estimate D2E/DX2                !
 ! D65   D(12,15,23,27)          0.0784         estimate D2E/DX2                !
 ! D66   D(12,15,23,28)       -179.9216         estimate D2E/DX2                !
 ! D67   D(16,15,23,27)        179.9997         estimate D2E/DX2                !
 ! D68   D(16,15,23,28)         -0.0003         estimate D2E/DX2                !
 ! D69   D(10,16,24,25)        179.9997         estimate D2E/DX2                !
 ! D70   D(10,16,24,26)         -0.0001         estimate D2E/DX2                !
 ! D71   D(15,16,24,25)         -0.0322         estimate D2E/DX2                !
 ! D72   D(15,16,24,26)        179.9679         estimate D2E/DX2                !
 --------------------------------------------------------------------------------
 Trust Radius=3.00D-01 FncErr=1.00D-07 GrdErr=1.00D-07
 Number of steps in this run=    160 maximum allowed number of steps=    168.
 GradGradGradGradGradGradGradGradGradGradGradGradGradGradGradGradGradGrad

                          Input orientation:                          
 ---------------------------------------------------------------------
 Center     Atomic      Atomic             Coordinates (Angstroms)
 Number     Number       Type             X           Y           Z
 ---------------------------------------------------------------------
      1          6           0        0.017710    1.451010   -0.016520
      2          6           0        1.291330    0.704040   -0.006950
      3          6           0       -1.255820    0.703920   -0.007560
      4          8           0        0.013800    2.676280   -0.030720
      5          6           0        0.018620   -1.437700    0.014680
      6          6           0       -1.255360   -0.691330    0.013800
      7          8           0        0.015460   -2.663020    0.024480
      8          6           0        1.291760   -0.689950    0.003940
      9          6           0        2.504950    1.403550   -0.010000
     10          6           0       -2.466510   -1.396120    0.033670
     11          6           0        2.505820   -1.388720    0.007080
     12          6           0       -2.467480    1.408040   -0.018170
     13          6           0        3.713550    0.705080   -0.004740
     14          6           0        3.713990   -0.689510    0.002460
     15          6           0       -3.668900    0.703780   -0.002160
     16          6           0       -3.668390   -0.692500    0.028070
     17          1           0        2.513330    2.492290   -0.016300
     18          1           0       -2.458750   -2.483000    0.052230
     19          1           0        2.514860   -2.477450    0.013560
     20          1           0       -2.460470    2.494930   -0.036900
     21          1           0        4.655300    1.249820   -0.006750
     22          1           0        4.656060   -1.233660    0.005190
     23          7           0       -4.860190    1.371780   -0.014230
     24          7           0       -4.859160   -1.361130    0.051430
     25          1           0       -5.705890   -0.858870    0.047350
     26          1           0       -4.870730   -2.345340    0.072350
     27          1           0       -4.872480    2.355970   -0.035510
     28          1           0       -5.706580    0.869080   -0.001650
 ---------------------------------------------------------------------
                    Distance matrix (angstroms):
                    1          2          3          4          5
     1  C    0.000000
     2  C    1.476538   0.000000
     3  C    1.476517   2.547150   0.000000
     4  O    1.225359   2.349974   2.345778   0.000000
     5  C    2.888879   2.491447   2.492234   4.114233   0.000000
     6  C    2.492237   2.903983   1.395414   3.599104   1.476514
     7  O    4.114235   3.600823   3.599092   5.339586   1.225363
     8  C    2.491452   1.394033   2.903992   3.600818   1.476527
     9  C    2.487701   1.400784   3.825295   2.797517   3.775599
    10  C    3.778891   4.305076   2.424384   4.768703   2.485550
    11  C    3.775621   2.419675   4.304566   4.768209   2.487694
    12  C    2.485562   3.824185   1.401434   2.786636   3.778890
    13  C    3.770382   2.422221   4.969371   4.192190   4.271345
    14  C    4.271378   2.794880   5.161469   5.002104   3.770371
    15  C    3.761602   4.960232   2.413086   4.177781   4.264273
    16  C    4.264265   5.152705   2.787786   4.991058   3.761588
    17  H    2.704142   2.165920   4.171910   2.506334   4.655036
    18  H    4.649088   4.921771   3.406916   5.721761   2.689131
    19  H    4.655047   3.408713   4.933517   5.728717   2.704126
    20  H    2.689156   4.157426   2.158648   2.480915   4.649100
    21  H    4.641962   3.407957   5.936274   4.855809   5.359293
    22  H    5.359311   3.882813   6.221310   6.069555   4.641936
    23  N    4.878544   6.187659   3.665728   5.045569   5.629991
    24  N    5.629974   6.488210   4.153549   6.328757   4.878519
    25  H    6.172457   7.169848   4.716826   6.724450   5.753792
    26  H    6.190074   6.875754   4.729899   7.006135   4.973216
    27  H    4.973256   6.381398   3.976214   4.896770   6.190098
    28  H    5.753813   6.999858   4.453827   5.999130   6.172472
                    6          7          8          9         10
     6  C    0.000000
     7  O    2.345775   0.000000
     8  C    2.547139   2.349972   0.000000
     9  C    4.304535   4.768201   2.419662   0.000000
    10  C    1.401431   2.786628   3.824154   5.705740   0.000000
    11  C    3.825294   2.797505   1.400797   2.792322   4.972407
    12  C    2.424379   4.768683   4.305106   4.972439   2.804639
    13  C    5.161431   5.002082   2.794862   1.395923   6.527607
    14  C    4.969363   4.192177   2.422230   2.417195   6.220840
    15  C    2.787788   4.991048   5.152734   6.213386   2.420042
    16  C    2.413072   4.177764   4.960209   6.519586   1.392705
    17  H    4.933494   5.728721   3.408709   1.088790   6.318310
    18  H    2.158635   2.480906   4.157365   6.304559   1.087066
    19  H    4.171904   2.506303   2.165923   3.881084   5.097423
    20  H    3.406921   5.721752   4.921825   5.084017   3.891695
    21  H    6.221285   6.069548   3.882811   2.155841   7.597553
    22  H    5.936252   4.855781   3.407952   3.403290   7.124479
    23  N    4.153554   6.328750   6.488262   7.365210   3.659682
    24  N    3.665709   5.045549   6.187613   7.866215   2.392972
    25  H    4.453809   5.999110   6.999823   8.517026   3.283658
    26  H    3.976189   4.896740   6.381323   8.274153   2.585109
    27  H    4.729908   7.006127   6.875830   7.438698   4.457764
    28  H    4.716829   6.724445   7.169893   8.228910   3.953534
                   11         12         13         14         15
    11  C    0.000000
    12  C    5.705806   0.000000
    13  C    2.417178   6.220889   0.000000
    14  C    1.395919   6.527688   1.394609   0.000000
    15  C    6.519648   1.392713   7.382451   7.513211   0.000000
    16  C    6.213375   2.420040   7.513145   7.382425   1.396607
    17  H    3.881088   5.097457   2.152854   3.400851   6.435754
    18  H    5.083940   3.891687   6.947258   6.428204   3.409250
    19  H    1.088787   6.318366   3.400837   2.152851   6.954089
    20  H    6.304658   1.087074   6.428306   6.947385   2.160955
    21  H    3.403285   7.124546   1.087952   2.155725   8.342091
    22  H    2.155824   7.597628   2.155722   1.087935   8.547437
    23  N    7.866315   2.392988   8.599628   8.818490   1.365848
    24  N    7.365165   3.659683   8.818375   8.599557   2.383997
    25  H    8.228885   3.953539   9.548534   9.421509   2.567811
    26  H    7.438607   4.457765   9.110481   8.743230   3.278274
    27  H    8.274287   2.585130   8.743357   9.110645   2.044370
    28  H    8.517115   3.283675   9.421558   9.548631   2.044374
                   16         17         18         19         20
    16  C    0.000000
    17  H    6.954029   0.000000
    18  H    2.160950   7.034187   0.000000
    19  H    6.435747   4.969830   4.973763   0.000000
    20  H    3.409252   4.973843   4.978728   7.034274   0.000000
    21  H    8.547376   2.476259   8.034123   4.298190   7.223946
    22  H    8.342053   4.298192   7.223821   2.476251   8.034249
    23  N    2.383994   7.458173   4.542099   8.319177   2.649648
    24  N    1.365850   8.319077   2.649634   7.458135   4.542105
    25  H    2.044372   8.876368   3.630667   8.378644   4.667743
    26  H    2.044373   8.828073   2.415989   7.387005   5.408281
    27  H    3.278269   7.387093   5.408273   8.828202   2.416010
    28  H    2.567807   8.378660   4.667734   8.876462   3.630683
                   21         22         23         24         25
    21  H    0.000000
    22  H    2.483509   0.000000
    23  N    9.516274   9.866494   0.000000
    24  N    9.866377   9.516186   2.733699   0.000000
    25  H   10.573730  10.368812   2.386378   0.984497   0.000000
    26  H   10.182175   9.591667   3.718143   0.984500   1.705201
    27  H    9.591819  10.182346   0.984497   3.718140   3.322143
    28  H   10.368874  10.573829   0.984501   2.386373   1.728645
                   26         27         28
    26  H    0.000000
    27  H    4.702547   0.000000
    28  H    3.322140   1.705201   0.000000
 Stoichiometry    C14H10N2O2
 Framework group  C1[X(C14H10N2O2)]
 Deg. of freedom    78
 Full point group                 C1      NOp   1
 Largest Abelian subgroup         C1      NOp   1
 Largest concise Abelian subgroup C1      NOp   1
                         Standard orientation:                         
 ---------------------------------------------------------------------
 Center     Atomic      Atomic             Coordinates (Angstroms)
 Number     Number       Type             X           Y           Z
 ---------------------------------------------------------------------
      1          6           0        0.646273    1.444455   -0.000599
      2          6           0        1.919655    0.697024    0.002458
      3          6           0       -0.627486    0.697712   -0.004378
      4          8           0        0.642744    2.669808    0.000980
      5          6           0        0.646290   -1.444417   -0.006620
      6          6           0       -0.627473   -0.697697   -0.000996
      7          8           0        0.642759   -2.669760   -0.012617
      8          6           0        1.919664   -0.696991   -0.004613
      9          6           0        3.133476    1.396134    0.011387
     10          6           0       -1.838867   -1.402304    0.006831
     11          6           0        3.133515   -1.396125   -0.007510
     12          6           0       -1.838917    1.402291   -0.008876
     13          6           0        4.341862    0.697274    0.010600
     14          6           0        4.341890   -0.697293   -0.000168
     15          6           0       -3.040572    0.698261   -0.004877
     16          6           0       -3.040531   -0.698292    0.007360
     17          1           0        3.142179    2.484862    0.019136
     18          1           0       -1.831460   -2.489335    0.011404
     19          1           0        3.142231   -2.484851   -0.015037
     20          1           0       -1.831554    2.489330   -0.013583
     21          1           0        5.283768    1.241699    0.017911
     22          1           0        5.283797   -1.241729   -0.002148
     23          7           0       -4.231640    1.366736   -0.011250
     24          7           0       -4.231544   -1.366794    0.019193
     25          1           0       -5.078119   -0.864257    0.019516
     26          1           0       -4.243443   -2.351188    0.027402
     27          1           0       -4.243600    2.351122   -0.019878
     28          1           0       -5.078201    0.864181   -0.007217
 ---------------------------------------------------------------------
 Rotational constants (GHZ):      0.9874435      0.2831473      0.2200525
 Standard basis: VSTO-6G (5D, 7F)
 There are    82 symmetry adapted cartesian basis functions of A   symmetry.
 There are    82 symmetry adapted basis functions of A   symmetry.
    82 basis functions,   492 primitive gaussians,    82 cartesian basis functions
    44 alpha electrons       44 beta electrons
       nuclear repulsion energy       656.8032282368 Hartrees.
 Integral buffers will be    131072 words long.
 Regular integral format.
 Two-electron integral symmetry is turned off.
 Do NDO integrals.
 One-electron integrals computed using PRISM.
 NBasis=    82 RedAO= F EigKep=  0.00D+00  NBF=    82
 NBsUse=    82 1.00D-04 EigRej=  0.00D+00 NBFU=    82
 Simple Huckel Guess.
 Overlap will be assumed to be unity.
 Keep J ints in memory in canonical form, NReq=936458.
 Requested convergence on RMS density matrix=1.00D-08 within 128 cycles.
 Requested convergence on MAX density matrix=1.00D-06.
 Requested convergence on             energy=1.00D-06.
 No special actions if energy rises.
 SCF Done:  E(RAM1) =  0.542966246542E-02 A.U. after   14 cycles
            NFock= 13  Conv=0.84D-08     -V/T= 1.0001

 **********************************************************************

            Population analysis using the SCF density.

 **********************************************************************

 Orbital symmetries:
       Occupied  (A) (A) (A) (A) (A) (A) (A) (A) (A) (A) (A) (A)
                 (A) (A) (A) (A) (A) (A) (A) (A) (A) (A) (A) (A)
                 (A) (A) (A) (A) (A) (A) (A) (A) (A) (A) (A) (A)
                 (A) (A) (A) (A) (A) (A) (A) (A)
       Virtual   (A) (A) (A) (A) (A) (A) (A) (A) (A) (A) (A) (A)
                 (A) (A) (A) (A) (A) (A) (A) (A) (A) (A) (A) (A)
                 (A) (A) (A) (A) (A) (A) (A) (A) (A) (A) (A) (A)
                 (A) (A)
 The electronic state is 1-A.
 Alpha  occ. eigenvalues --   -1.53628  -1.48282  -1.44966  -1.41201  -1.32267
 Alpha  occ. eigenvalues --   -1.30257  -1.21002  -1.17069  -1.12488  -1.08141
 Alpha  occ. eigenvalues --   -0.96888  -0.92180  -0.86968  -0.85252  -0.79883
 Alpha  occ. eigenvalues --   -0.74360  -0.70593  -0.70082  -0.65312  -0.64153
 Alpha  occ. eigenvalues --   -0.61879  -0.61641  -0.59998  -0.58567  -0.57402
 Alpha  occ. eigenvalues --   -0.55314  -0.54965  -0.54086  -0.54019  -0.53707
 Alpha  occ. eigenvalues --   -0.52657  -0.52101  -0.48865  -0.47906  -0.46777
 Alpha  occ. eigenvalues --   -0.45040  -0.45006  -0.42524  -0.40193  -0.38617
 Alpha  occ. eigenvalues --   -0.36915  -0.36489  -0.34184  -0.29925
 Alpha virt. eigenvalues --   -0.03633  -0.00235   0.00837   0.01234   0.06230
 Alpha virt. eigenvalues --    0.06630   0.08321   0.09648   0.09660   0.10689
 Alpha virt. eigenvalues --    0.11388   0.11787   0.13558   0.13643   0.14054
 Alpha virt. eigenvalues --    0.14800   0.14868   0.15327   0.15379   0.15720
 Alpha virt. eigenvalues --    0.16243   0.17138   0.17583   0.17624   0.17946
 Alpha virt. eigenvalues --    0.18267   0.18693   0.19348   0.19608   0.19620
 Alpha virt. eigenvalues --    0.20541   0.21064   0.21790   0.22492   0.23136
 Alpha virt. eigenvalues --    0.23493   0.23888   0.24654
          Condensed to atoms (all electrons):
               1          2          3          4          5          6
     1  C    3.689786   0.000000   0.000000   0.000000   0.000000   0.000000
     2  C    0.000000   4.105106   0.000000   0.000000   0.000000   0.000000
     3  C    0.000000   0.000000   4.117323   0.000000   0.000000   0.000000
     4  O    0.000000   0.000000   0.000000   6.294128   0.000000   0.000000
     5  C    0.000000   0.000000   0.000000   0.000000   3.689789   0.000000
     6  C    0.000000   0.000000   0.000000   0.000000   0.000000   4.117320
     7  O    0.000000   0.000000   0.000000   0.000000   0.000000   0.000000
     8  C    0.000000   0.000000   0.000000   0.000000   0.000000   0.000000
     9  C    0.000000   0.000000   0.000000   0.000000   0.000000   0.000000
    10  C    0.000000   0.000000   0.000000   0.000000   0.000000   0.000000
    11  C    0.000000   0.000000   0.000000   0.000000   0.000000   0.000000
    12  C    0.000000   0.000000   0.000000   0.000000   0.000000   0.000000
    13  C    0.000000   0.000000   0.000000   0.000000   0.000000   0.000000
    14  C    0.000000   0.000000   0.000000   0.000000   0.000000   0.000000
    15  C    0.000000   0.000000   0.000000   0.000000   0.000000   0.000000
    16  C    0.000000   0.000000   0.000000   0.000000   0.000000   0.000000
    17  H    0.000000   0.000000   0.000000   0.000000   0.000000   0.000000
    18  H    0.000000   0.000000   0.000000   0.000000   0.000000   0.000000
    19  H    0.000000   0.000000   0.000000   0.000000   0.000000   0.000000
    20  H    0.000000   0.000000   0.000000   0.000000   0.000000   0.000000
    21  H    0.000000   0.000000   0.000000   0.000000   0.000000   0.000000
    22  H    0.000000   0.000000   0.000000   0.000000   0.000000   0.000000
    23  N    0.000000   0.000000   0.000000   0.000000   0.000000   0.000000
    24  N    0.000000   0.000000   0.000000   0.000000   0.000000   0.000000
    25  H    0.000000   0.000000   0.000000   0.000000   0.000000   0.000000
    26  H    0.000000   0.000000   0.000000   0.000000   0.000000   0.000000
    27  H    0.000000   0.000000   0.000000   0.000000   0.000000   0.000000
    28  H    0.000000   0.000000   0.000000   0.000000   0.000000   0.000000
               7          8          9         10         11         12
     1  C    0.000000   0.000000   0.000000   0.000000   0.000000   0.000000
     2  C    0.000000   0.000000   0.000000   0.000000   0.000000   0.000000
     3  C    0.000000   0.000000   0.000000   0.000000   0.000000   0.000000
     4  O    0.000000   0.000000   0.000000   0.000000   0.000000   0.000000
     5  C    0.000000   0.000000   0.000000   0.000000   0.000000   0.000000
     6  C    0.000000   0.000000   0.000000   0.000000   0.000000   0.000000
     7  O    6.294132   0.000000   0.000000   0.000000   0.000000   0.000000
     8  C    0.000000   4.105113   0.000000   0.000000   0.000000   0.000000
     9  C    0.000000   0.000000   4.086440   0.000000   0.000000   0.000000
    10  C    0.000000   0.000000   0.000000   4.133585   0.000000   0.000000
    11  C    0.000000   0.000000   0.000000   0.000000   4.086437   0.000000
    12  C    0.000000   0.000000   0.000000   0.000000   0.000000   4.133583
    13  C    0.000000   0.000000   0.000000   0.000000   0.000000   0.000000
    14  C    0.000000   0.000000   0.000000   0.000000   0.000000   0.000000
    15  C    0.000000   0.000000   0.000000   0.000000   0.000000   0.000000
    16  C    0.000000   0.000000   0.000000   0.000000   0.000000   0.000000
    17  H    0.000000   0.000000   0.000000   0.000000   0.000000   0.000000
    18  H    0.000000   0.000000   0.000000   0.000000   0.000000   0.000000
    19  H    0.000000   0.000000   0.000000   0.000000   0.000000   0.000000
    20  H    0.000000   0.000000   0.000000   0.000000   0.000000   0.000000
    21  H    0.000000   0.000000   0.000000   0.000000   0.000000   0.000000
    22  H    0.000000   0.000000   0.000000   0.000000   0.000000   0.000000
    23  N    0.000000   0.000000   0.000000   0.000000   0.000000   0.000000
    24  N    0.000000   0.000000   0.000000   0.000000   0.000000   0.000000
    25  H    0.000000   0.000000   0.000000   0.000000   0.000000   0.000000
    26  H    0.000000   0.000000   0.000000   0.000000   0.000000   0.000000
    27  H    0.000000   0.000000   0.000000   0.000000   0.000000   0.000000
    28  H    0.000000   0.000000   0.000000   0.000000   0.000000   0.000000
              13         14         15         16         17         18
     1  C    0.000000   0.000000   0.000000   0.000000   0.000000   0.000000
     2  C    0.000000   0.000000   0.000000   0.000000   0.000000   0.000000
     3  C    0.000000   0.000000   0.000000   0.000000   0.000000   0.000000
     4  O    0.000000   0.000000   0.000000   0.000000   0.000000   0.000000
     5  C    0.000000   0.000000   0.000000   0.000000   0.000000   0.000000
     6  C    0.000000   0.000000   0.000000   0.000000   0.000000   0.000000
     7  O    0.000000   0.000000   0.000000   0.000000   0.000000   0.000000
     8  C    0.000000   0.000000   0.000000   0.000000   0.000000   0.000000
     9  C    0.000000   0.000000   0.000000   0.000000   0.000000   0.000000
    10  C    0.000000   0.000000   0.000000   0.000000   0.000000   0.000000
    11  C    0.000000   0.000000   0.000000   0.000000   0.000000   0.000000
    12  C    0.000000   0.000000   0.000000   0.000000   0.000000   0.000000
    13  C    4.120750   0.000000   0.000000   0.000000   0.000000   0.000000
    14  C    0.000000   4.120752   0.000000   0.000000   0.000000   0.000000
    15  C    0.000000   0.000000   3.936789   0.000000   0.000000   0.000000
    16  C    0.000000   0.000000   0.000000   3.936788   0.000000   0.000000
    17  H    0.000000   0.000000   0.000000   0.000000   0.843526   0.000000
    18  H    0.000000   0.000000   0.000000   0.000000   0.000000   0.843178
    19  H    0.000000   0.000000   0.000000   0.000000   0.000000   0.000000
    20  H    0.000000   0.000000   0.000000   0.000000   0.000000   0.000000
    21  H    0.000000   0.000000   0.000000   0.000000   0.000000   0.000000
    22  H    0.000000   0.000000   0.000000   0.000000   0.000000   0.000000
    23  N    0.000000   0.000000   0.000000   0.000000   0.000000   0.000000
    24  N    0.000000   0.000000   0.000000   0.000000   0.000000   0.000000
    25  H    0.000000   0.000000   0.000000   0.000000   0.000000   0.000000
    26  H    0.000000   0.000000   0.000000   0.000000   0.000000   0.000000
    27  H    0.000000   0.000000   0.000000   0.000000   0.000000   0.000000
    28  H    0.000000   0.000000   0.000000   0.000000   0.000000   0.000000
              19         20         21         22         23         24
     1  C    0.000000   0.000000   0.000000   0.000000   0.000000   0.000000
     2  C    0.000000   0.000000   0.000000   0.000000   0.000000   0.000000
     3  C    0.000000   0.000000   0.000000   0.000000   0.000000   0.000000
     4  O    0.000000   0.000000   0.000000   0.000000   0.000000   0.000000
     5  C    0.000000   0.000000   0.000000   0.000000   0.000000   0.000000
     6  C    0.000000   0.000000   0.000000   0.000000   0.000000   0.000000
     7  O    0.000000   0.000000   0.000000   0.000000   0.000000   0.000000
     8  C    0.000000   0.000000   0.000000   0.000000   0.000000   0.000000
     9  C    0.000000   0.000000   0.000000   0.000000   0.000000   0.000000
    10  C    0.000000   0.000000   0.000000   0.000000   0.000000   0.000000
    11  C    0.000000   0.000000   0.000000   0.000000   0.000000   0.000000
    12  C    0.000000   0.000000   0.000000   0.000000   0.000000   0.000000
    13  C    0.000000   0.000000   0.000000   0.000000   0.000000   0.000000
    14  C    0.000000   0.000000   0.000000   0.000000   0.000000   0.000000
    15  C    0.000000   0.000000   0.000000   0.000000   0.000000   0.000000
    16  C    0.000000   0.000000   0.000000   0.000000   0.000000   0.000000
    17  H    0.000000   0.000000   0.000000   0.000000   0.000000   0.000000
    18  H    0.000000   0.000000   0.000000   0.000000   0.000000   0.000000
    19  H    0.843526   0.000000   0.000000   0.000000   0.000000   0.000000
    20  H    0.000000   0.843178   0.000000   0.000000   0.000000   0.000000
    21  H    0.000000   0.000000   0.862094   0.000000   0.000000   0.000000
    22  H    0.000000   0.000000   0.000000   0.862093   0.000000   0.000000
    23  N    0.000000   0.000000   0.000000   0.000000   5.414352   0.000000
    24  N    0.000000   0.000000   0.000000   0.000000   0.000000   5.414354
    25  H    0.000000   0.000000   0.000000   0.000000   0.000000   0.000000
    26  H    0.000000   0.000000   0.000000   0.000000   0.000000   0.000000
    27  H    0.000000   0.000000   0.000000   0.000000   0.000000   0.000000
    28  H    0.000000   0.000000   0.000000   0.000000   0.000000   0.000000
              25         26         27         28
     1  C    0.000000   0.000000   0.000000   0.000000
     2  C    0.000000   0.000000   0.000000   0.000000
     3  C    0.000000   0.000000   0.000000   0.000000
     4  O    0.000000   0.000000   0.000000   0.000000
     5  C    0.000000   0.000000   0.000000   0.000000
     6  C    0.000000   0.000000   0.000000   0.000000
     7  O    0.000000   0.000000   0.000000   0.000000
     8  C    0.000000   0.000000   0.000000   0.000000
     9  C    0.000000   0.000000   0.000000   0.000000
    10  C    0.000000   0.000000   0.000000   0.000000
    11  C    0.000000   0.000000   0.000000   0.000000
    12  C    0.000000   0.000000   0.000000   0.000000
    13  C    0.000000   0.000000   0.000000   0.000000
    14  C    0.000000   0.000000   0.000000   0.000000
    15  C    0.000000   0.000000   0.000000   0.000000
    16  C    0.000000   0.000000   0.000000   0.000000
    17  H    0.000000   0.000000   0.000000   0.000000
    18  H    0.000000   0.000000   0.000000   0.000000
    19  H    0.000000   0.000000   0.000000   0.000000
    20  H    0.000000   0.000000   0.000000   0.000000
    21  H    0.000000   0.000000   0.000000   0.000000
    22  H    0.000000   0.000000   0.000000   0.000000
    23  N    0.000000   0.000000   0.000000   0.000000
    24  N    0.000000   0.000000   0.000000   0.000000
    25  H    0.783343   0.000000   0.000000   0.000000
    26  H    0.000000   0.769596   0.000000   0.000000
    27  H    0.000000   0.000000   0.769596   0.000000
    28  H    0.000000   0.000000   0.000000   0.783342
 Mulliken charges:
               1
     1  C    0.310214
     2  C   -0.105106
     3  C   -0.117323
     4  O   -0.294128
     5  C    0.310211
     6  C   -0.117320
     7  O   -0.294132
     8  C   -0.105113
     9  C   -0.086440
    10  C   -0.133585
    11  C   -0.086437
    12  C   -0.133583
    13  C   -0.120750
    14  C   -0.120752
    15  C    0.063211
    16  C    0.063212
    17  H    0.156474
    18  H    0.156822
    19  H    0.156474
    20  H    0.156822
    21  H    0.137906
    22  H    0.137907
    23  N   -0.414352
    24  N   -0.414354
    25  H    0.216657
    26  H    0.230404
    27  H    0.230404
    28  H    0.216658
 Sum of Mulliken charges =  -0.00000
 Mulliken charges with hydrogens summed into heavy atoms:
               1
     1  C    0.310214
     2  C   -0.105106
     3  C   -0.117323
     4  O   -0.294128
     5  C    0.310211
     6  C   -0.117320
     7  O   -0.294132
     8  C   -0.105113
     9  C    0.070034
    10  C    0.023237
    11  C    0.070037
    12  C    0.023238
    13  C    0.017155
    14  C    0.017155
    15  C    0.063211
    16  C    0.063212
    23  N    0.032710
    24  N    0.032707
 Charge=             -0.0000 electrons
 Dipole moment (field-independent basis, Debye):
    X=             -3.0958    Y=             -0.0000    Z=              0.0233  Tot=              3.0959
 N-N= 6.568032282368D+02 E-N=-1.186164512398D+03  KE=-6.215612782237D+01
 Calling FoFJK, ICntrl=      2127 FMM=F ISym2X=0 I1Cent= 0 IOpClX= 0 NMat=1 NMatS=1 NMatT=0.
 ***** Axes restored to original set *****
 -------------------------------------------------------------------
 Center     Atomic                   Forces (Hartrees/Bohr)
 Number     Number              X              Y              Z
 -------------------------------------------------------------------
      1        6          -0.004593021   -0.019021869    0.000218766
      2        6           0.000876249    0.005135365   -0.000036862
      3        6           0.002574024    0.001609390   -0.000055955
      4        8           0.001514938    0.037171930   -0.000460407
      5        6          -0.004607331    0.019007392   -0.000108704
      6        6           0.002579606   -0.001605332    0.000085283
      7        8           0.001538112   -0.037164780    0.000291232
      8        6           0.000895249   -0.005138525    0.000074844
      9        6           0.002342248   -0.009255725    0.000045972
     10        6           0.022715429    0.005973040   -0.000342550
     11        6           0.002322679    0.009262325   -0.000017743
     12        6           0.022715032   -0.005957319    0.000173534
     13        6          -0.007847544   -0.004334350   -0.000031612
     14        6          -0.007861838    0.004339022    0.000015894
     15        6           0.001416215    0.035189868   -0.000682762
     16        6           0.001431241   -0.035188310    0.000682026
     17        1          -0.002387186    0.009290518   -0.000096029
     18        1           0.002425970   -0.010657322    0.000196330
     19        1          -0.002381663   -0.009294676    0.000077533
     20        1           0.002419086    0.010652452   -0.000232506
     21        1           0.007396293    0.004560661   -0.000021624
     22        1           0.007409526   -0.004560861    0.000016560
     23        7          -0.021314342    0.028823142   -0.000605276
     24        7          -0.021291583   -0.028837504    0.000780229
     25        1          -0.004067871   -0.013006287    0.000380231
     26        1          -0.001071727   -0.001245621    0.000025990
     27        1          -0.001072551    0.001247927   -0.000017621
     28        1          -0.004075240    0.013005449   -0.000354773
 -------------------------------------------------------------------
 Cartesian Forces:  Max     0.037171930 RMS     0.011472897

 GradGradGradGradGradGradGradGradGradGradGradGradGradGradGradGradGradGrad
 Berny optimization.
 FormGI is forming the generalized inverse of G from B-inverse, IUseBI=4.
 Internal  Forces:  Max     0.088786253 RMS     0.013580219
 Search for a local minimum.
 Step number   1 out of a maximum of  160
 All quantities printed in internal units (Hartrees-Bohrs-Radians)
 Mixed Optimization -- RFO/linear search
 Second derivative matrix not updated -- first step.
 ITU=  0
     Eigenvalues ---    0.01076   0.01077   0.01077   0.01560   0.01646
     Eigenvalues ---    0.01774   0.01812   0.01888   0.01923   0.02105
     Eigenvalues ---    0.02109   0.02110   0.02115   0.02120   0.02128
     Eigenvalues ---    0.02144   0.02144   0.02144   0.02144   0.02145
     Eigenvalues ---    0.02149   0.02152   0.02153   0.02156   0.02164
     Eigenvalues ---    0.16000   0.16000   0.16000   0.16000   0.16000
     Eigenvalues ---    0.16000   0.16000   0.16000   0.16000   0.16000
     Eigenvalues ---    0.22000   0.22589   0.23083   0.23999   0.24505
     Eigenvalues ---    0.24999   0.25000   0.25000   0.25000   0.25000
     Eigenvalues ---    0.25000   0.25000   0.25000   0.33250   0.33977
     Eigenvalues ---    0.34953   0.34953   0.34970   0.34971   0.35050
     Eigenvalues ---    0.35052   0.35153   0.35154   0.40172   0.41707
     Eigenvalues ---    0.41953   0.42037   0.45072   0.45630   0.45841
     Eigenvalues ---    0.45929   0.46225   0.46350   0.46460   0.46741
     Eigenvalues ---    0.50521   0.50521   0.50521   0.50521   0.51783
     Eigenvalues ---    0.51783   0.93046   0.93048
 RFO step:  Lambda=-6.43482662D-02 EMin= 1.07644666D-02
 Linear search not attempted -- first point.
 Maximum step size (   0.300) exceeded in Quadratic search.
    -- Step size scaled by   0.732
 Iteration  1 RMS(Cart)=  0.09860411 RMS(Int)=  0.00409243
 Iteration  2 RMS(Cart)=  0.00711682 RMS(Int)=  0.00009412
 Iteration  3 RMS(Cart)=  0.00004639 RMS(Int)=  0.00009258
 Iteration  4 RMS(Cart)=  0.00000000 RMS(Int)=  0.00009258
 Variable       Old X    -DE/DX   Delta X   Delta X   Delta X     New X
                                 (Linear)    (Quad)   (Total)
    R1        2.79025   0.00413   0.00000   0.00810   0.00812   2.79837
    R2        2.79021   0.00305   0.00000   0.00461   0.00459   2.79480
    R3        2.31559   0.03717   0.00000   0.02735   0.02735   2.34294
    R4        2.63434   0.01154   0.00000   0.01755   0.01758   2.65192
    R5        2.64710  -0.00099   0.00000  -0.00119  -0.00119   2.64591
    R6        2.63695   0.00644   0.00000   0.00325   0.00294   2.63988
    R7        2.64833  -0.00302   0.00000  -0.00654  -0.00669   2.64164
    R8        2.79021   0.00306   0.00000   0.00461   0.00460   2.79480
    R9        2.31560   0.03716   0.00000   0.02734   0.02734   2.34295
   R10        2.79023   0.00414   0.00000   0.00811   0.00813   2.79836
   R11        2.64832  -0.00302   0.00000  -0.00654  -0.00668   2.64164
   R12        2.64712  -0.00100   0.00000  -0.00120  -0.00121   2.64591
   R13        2.63791   0.00018   0.00000   0.00005   0.00005   2.63797
   R14        2.05752   0.00927   0.00000   0.01640   0.01640   2.07392
   R15        2.63183   0.02690   0.00000   0.03918   0.03931   2.67114
   R16        2.05426   0.01068   0.00000   0.01879   0.01879   2.07305
   R17        2.63791   0.00019   0.00000   0.00006   0.00006   2.63797
   R18        2.05751   0.00927   0.00000   0.01640   0.01640   2.07391
   R19        2.63185   0.02689   0.00000   0.03917   0.03930   2.67114
   R20        2.05427   0.01067   0.00000   0.01878   0.01878   2.07305
   R21        2.63543   0.00137   0.00000   0.00150   0.00150   2.63693
   R22        2.05593   0.00869   0.00000   0.01533   0.01533   2.07126
   R23        2.05590   0.00870   0.00000   0.01535   0.01535   2.07124
   R24        2.63921   0.08879   0.00000   0.12797   0.12825   2.76745
   R25        2.58108   0.04416   0.00000   0.05552   0.05552   2.63660
   R26        2.58108   0.04416   0.00000   0.05552   0.05552   2.63660
   R27        1.86043   0.00126   0.00000   0.00162   0.00162   1.86205
   R28        1.86044  -0.00314   0.00000  -0.00404  -0.00404   1.85640
   R29        1.86043  -0.00314   0.00000  -0.00403  -0.00403   1.85640
   R30        1.86044   0.00126   0.00000   0.00162   0.00162   1.86205
    A1        2.08057  -0.00878   0.00000  -0.02249  -0.02257   2.05799
    A2        2.10445   0.00250   0.00000   0.00684   0.00688   2.11133
    A3        2.09817   0.00628   0.00000   0.01565   0.01569   2.11386
    A4        2.10156   0.00375   0.00000   0.00940   0.00938   2.11095
    A5        2.08826  -0.00254   0.00000  -0.00712  -0.00710   2.08116
    A6        2.09336  -0.00121   0.00000  -0.00228  -0.00228   2.09108
    A7        2.10102   0.00503   0.00000   0.01310   0.01320   2.11422
    A8        2.08456  -0.00931   0.00000  -0.01224  -0.01195   2.07262
    A9        2.09760   0.00428   0.00000  -0.00087  -0.00125   2.09635
   A10        2.09816   0.00628   0.00000   0.01565   0.01569   2.11385
   A11        2.08057  -0.00878   0.00000  -0.02250  -0.02258   2.05799
   A12        2.10446   0.00250   0.00000   0.00684   0.00688   2.11134
   A13        2.10102   0.00503   0.00000   0.01310   0.01319   2.11422
   A14        2.09761   0.00427   0.00000  -0.00087  -0.00126   2.09635
   A15        2.08455  -0.00931   0.00000  -0.01223  -0.01194   2.07262
   A16        2.10157   0.00375   0.00000   0.00940   0.00938   2.11095
   A17        2.09336  -0.00121   0.00000  -0.00228  -0.00228   2.09108
   A18        2.08825  -0.00253   0.00000  -0.00711  -0.00710   2.08115
   A19        2.09468   0.00046   0.00000   0.00133   0.00133   2.09601
   A20        2.10137  -0.00276   0.00000  -0.00892  -0.00892   2.09245
   A21        2.08713   0.00230   0.00000   0.00759   0.00759   2.09472
   A22        2.08481   0.01620   0.00000   0.03937   0.03935   2.12416
   A23        2.09081  -0.01052   0.00000  -0.02756  -0.02755   2.06326
   A24        2.10756  -0.00569   0.00000  -0.01181  -0.01180   2.09576
   A25        2.09468   0.00046   0.00000   0.00133   0.00133   2.09601
   A26        2.10136  -0.00276   0.00000  -0.00892  -0.00892   2.09245
   A27        2.08714   0.00230   0.00000   0.00759   0.00759   2.09473
   A28        2.08481   0.01620   0.00000   0.03937   0.03935   2.12416
   A29        2.09082  -0.01052   0.00000  -0.02756  -0.02755   2.06327
   A30        2.10755  -0.00569   0.00000  -0.01181  -0.01180   2.09576
   A31        2.09515   0.00075   0.00000   0.00095   0.00095   2.09609
   A32        2.09315  -0.00063   0.00000  -0.00129  -0.00129   2.09185
   A33        2.09489  -0.00012   0.00000   0.00035   0.00035   2.09524
   A34        2.09513   0.00075   0.00000   0.00096   0.00096   2.09609
   A35        2.09315  -0.00063   0.00000  -0.00129  -0.00130   2.09185
   A36        2.09491  -0.00013   0.00000   0.00034   0.00034   2.09525
   A37        2.10075  -0.02048   0.00000  -0.03850  -0.03809   2.06266
   A38        2.10016  -0.03291   0.00000  -0.08124  -0.08144   2.01872
   A39        2.08228   0.05339   0.00000   0.11974   0.11953   2.20181
   A40        2.10076  -0.02048   0.00000  -0.03851  -0.03810   2.06266
   A41        2.10015  -0.03291   0.00000  -0.08122  -0.08143   2.01871
   A42        2.08228   0.05339   0.00000   0.11973   0.11953   2.20181
   A43        2.09440  -0.00692   0.00000  -0.02257  -0.02257   2.07183
   A44        2.09440   0.01580   0.00000   0.05155   0.05155   2.14594
   A45        2.09439  -0.00888   0.00000  -0.02898  -0.02898   2.06541
   A46        2.09440   0.01580   0.00000   0.05155   0.05155   2.14595
   A47        2.09439  -0.00692   0.00000  -0.02257  -0.02257   2.07183
   A48        2.09439  -0.00888   0.00000  -0.02898  -0.02898   2.06541
    D1        0.00532  -0.00004   0.00000  -0.00032  -0.00032   0.00500
    D2       -3.13721  -0.00004   0.00000  -0.00033  -0.00033  -3.13754
    D3       -3.13722  -0.00002   0.00000  -0.00016  -0.00016  -3.13738
    D4        0.00344  -0.00002   0.00000  -0.00017  -0.00017   0.00327
    D5        0.00337  -0.00006   0.00000  -0.00041  -0.00040   0.00297
    D6       -3.14029  -0.00001   0.00000  -0.00017  -0.00017  -3.14046
    D7       -3.13728  -0.00007   0.00000  -0.00056  -0.00056  -3.13784
    D8        0.00224  -0.00002   0.00000  -0.00032  -0.00032   0.00192
    D9       -0.00678   0.00006   0.00000   0.00059   0.00059  -0.00619
   D10        3.13675   0.00004   0.00000   0.00038   0.00038   3.13713
   D11        3.13576   0.00006   0.00000   0.00060   0.00060   3.13635
   D12       -0.00390   0.00004   0.00000   0.00038   0.00038  -0.00351
   D13       -3.13851  -0.00002   0.00000  -0.00019  -0.00019  -3.13869
   D14        0.00327  -0.00003   0.00000  -0.00029  -0.00029   0.00297
   D15        0.00215  -0.00002   0.00000  -0.00019  -0.00019   0.00197
   D16       -3.13926  -0.00003   0.00000  -0.00029  -0.00029  -3.13955
   D17       -0.01022   0.00004   0.00000   0.00065   0.00065  -0.00958
   D18        3.13215   0.00004   0.00000   0.00073   0.00073   3.13289
   D19        3.13345   0.00001   0.00000   0.00042   0.00042   3.13387
   D20       -0.00735   0.00001   0.00000   0.00050   0.00051  -0.00685
   D21       -3.13536  -0.00011   0.00000  -0.00066  -0.00066  -3.13601
   D22        0.00428   0.00000   0.00000   0.00002   0.00000   0.00428
   D23        0.00417  -0.00006   0.00000  -0.00040  -0.00041   0.00376
   D24       -3.13938   0.00005   0.00000   0.00027   0.00025  -3.13912
   D25       -3.13311  -0.00004   0.00000  -0.00029  -0.00029  -3.13339
   D26        0.00771  -0.00004   0.00000  -0.00037  -0.00037   0.00734
   D27        0.00873  -0.00006   0.00000  -0.00047  -0.00046   0.00827
   D28       -3.13364  -0.00005   0.00000  -0.00054  -0.00054  -3.13418
   D29       -0.00004  -0.00004   0.00000  -0.00025  -0.00025  -0.00029
   D30        3.13962  -0.00001   0.00000  -0.00004  -0.00003   3.13959
   D31       -3.14139  -0.00005   0.00000  -0.00043  -0.00043   3.14137
   D32       -0.00173  -0.00003   0.00000  -0.00021  -0.00021  -0.00194
   D33        0.00316  -0.00006   0.00000  -0.00032  -0.00032   0.00284
   D34       -3.13950   0.00001   0.00000   0.00002   0.00001  -3.13949
   D35       -3.13765  -0.00007   0.00000  -0.00025  -0.00025  -3.13790
   D36        0.00287   0.00001   0.00000   0.00009   0.00008   0.00295
   D37        0.00261  -0.00003   0.00000  -0.00025  -0.00025   0.00236
   D38       -3.13945  -0.00002   0.00000  -0.00014  -0.00014  -3.13959
   D39       -3.13706  -0.00005   0.00000  -0.00048  -0.00048  -3.13754
   D40        0.00406  -0.00004   0.00000  -0.00037  -0.00036   0.00370
   D41        0.00091  -0.00002   0.00000  -0.00015  -0.00015   0.00076
   D42       -3.14120  -0.00001   0.00000  -0.00003  -0.00003  -3.14123
   D43       -3.14086  -0.00001   0.00000  -0.00005  -0.00005  -3.14091
   D44        0.00021   0.00001   0.00000   0.00007   0.00007   0.00029
   D45        0.00418   0.00001   0.00000  -0.00009  -0.00009   0.00409
   D46       -3.13798   0.00009   0.00000   0.00039   0.00035  -3.13762
   D47       -3.13634  -0.00006   0.00000  -0.00043  -0.00042  -3.13675
   D48        0.00469   0.00002   0.00000   0.00006   0.00003   0.00472
   D49        0.00045  -0.00001   0.00000  -0.00009  -0.00009   0.00036
   D50        3.14129   0.00001   0.00000   0.00012   0.00012   3.14141
   D51       -3.14068  -0.00002   0.00000  -0.00019  -0.00020  -3.14087
   D52        0.00016   0.00000   0.00000   0.00001   0.00001   0.00017
   D53        0.00317   0.00002   0.00000   0.00001   0.00001   0.00318
   D54       -3.13981   0.00016   0.00000   0.00086   0.00081  -3.13900
   D55       -3.13645  -0.00009   0.00000  -0.00066  -0.00065  -3.13709
   D56        0.00376   0.00005   0.00000   0.00020   0.00015   0.00391
   D57       -0.00220   0.00003   0.00000   0.00028   0.00028  -0.00193
   D58        3.14014   0.00001   0.00000   0.00007   0.00007   3.14021
   D59        3.13990   0.00002   0.00000   0.00016   0.00016   3.14006
   D60       -0.00094  -0.00001   0.00000  -0.00005  -0.00005  -0.00098
   D61       -0.00738   0.00009   0.00000   0.00042   0.00042  -0.00697
   D62        3.13477   0.00003   0.00000   0.00000  -0.00001   3.13476
   D63        3.13559   0.00002   0.00000  -0.00027  -0.00030   3.13529
   D64       -0.00545  -0.00004   0.00000  -0.00068  -0.00073  -0.00618
   D65        0.00137  -0.00005   0.00000  -0.00041  -0.00041   0.00095
   D66       -3.14022  -0.00011   0.00000  -0.00092  -0.00092  -3.14115
   D67        3.14159   0.00003   0.00000   0.00031   0.00031  -3.14128
   D68       -0.00000  -0.00002   0.00000  -0.00020  -0.00020  -0.00020
   D69        3.14159  -0.00009   0.00000  -0.00072  -0.00072   3.14087
   D70       -0.00000  -0.00004   0.00000  -0.00027  -0.00028  -0.00028
   D71       -0.00056  -0.00003   0.00000  -0.00029  -0.00029  -0.00085
   D72        3.14103   0.00002   0.00000   0.00016   0.00016   3.14119
         Item               Value     Threshold  Converged?
 Maximum Force            0.088786     0.000450     NO 
 RMS     Force            0.013580     0.000300     NO 
 Maximum Displacement     0.643767     0.001800     NO 
 RMS     Displacement     0.102270     0.001200     NO 
 Predicted change in Energy=-3.274815D-02
 GradGradGradGradGradGradGradGradGradGradGradGradGradGradGradGradGradGrad

                          Input orientation:                          
 ---------------------------------------------------------------------
 Center     Atomic      Atomic             Coordinates (Angstroms)
 Number     Number       Type             X           Y           Z
 ---------------------------------------------------------------------
      1          6           0        0.005514    1.469769   -0.016655
      2          6           0        1.275758    0.708680   -0.007068
      3          6           0       -1.260124    0.704691   -0.007023
      4          8           0        0.004652    2.709512   -0.031430
      5          6           0        0.006441   -1.456481    0.015501
      6          6           0       -1.259665   -0.692116    0.014113
      7          8           0        0.006344   -2.696274    0.025560
      8          6           0        1.276197   -0.694606    0.004584
      9          6           0        2.490421    1.405110   -0.010879
     10          6           0       -2.468648   -1.393617    0.033398
     11          6           0        2.491297   -1.390279    0.008061
     12          6           0       -2.469603    1.405527   -0.017240
     13          6           0        3.698382    0.705481   -0.005485
     14          6           0        3.698823   -0.689898    0.002807
     15          6           0       -3.715310    0.737698   -0.002208
     16          6           0       -3.714790   -0.726445    0.028820
     17          1           0        2.491579    2.502554   -0.018048
     18          1           0       -2.431985   -2.489860    0.051757
     19          1           0        2.493133   -2.487721    0.015265
     20          1           0       -2.433685    2.501787   -0.036227
     21          1           0        4.646963    1.254608   -0.008153
     22          1           0        4.647741   -1.238427    0.005729
     23          7           0       -4.842152    1.560277   -0.018102
     24          7           0       -4.841018   -1.549613    0.054762
     25          1           0       -5.758886   -1.199537    0.054969
     26          1           0       -4.712961   -2.526420    0.074150
     27          1           0       -4.714784    2.537136   -0.039245
     28          1           0       -5.759804    1.209733   -0.009585
 ---------------------------------------------------------------------
                    Distance matrix (angstroms):
                    1          2          3          4          5
     1  C    0.000000
     2  C    1.480834   0.000000
     3  C    1.478945   2.535886   0.000000
     4  O    1.239832   2.370577   2.370562   0.000000
     5  C    2.926427   2.509901   2.505067   4.166258   0.000000
     6  C    2.505069   2.896731   1.396967   3.629276   1.478946
     7  O    4.166257   3.634032   3.629265   5.406087   1.239833
     8  C    2.509901   1.403334   2.896738   3.634026   1.480829
     9  C    2.485754   1.400155   3.815389   2.807300   3.789400
    10  C    3.784570   4.294400   2.421789   4.791356   2.475952
    11  C    3.789406   2.425571   4.296777   4.795128   2.485749
    12  C    2.475951   3.809650   1.397897   2.796877   3.784568
    13  C    3.771145   2.422626   4.958507   4.202434   4.278429
    14  C    4.278442   2.797742   5.151324   5.020364   3.771140
    15  C    3.792186   4.991155   2.455412   4.210348   4.320435
    16  C    4.320427   5.192922   2.841622   5.063959   3.792187
    17  H    2.692056   2.167101   4.160254   2.495559   4.674506
    18  H    4.650242   4.897089   3.403215   5.742613   2.648605
    19  H    4.674505   3.420451   4.927366   5.762461   2.692043
    20  H    2.648610   4.120200   2.146544   2.447174   4.650245
    21  H    4.646441   3.415122   5.932629   4.865012   5.374478
    22  H    5.374485   3.893797   6.219224   6.094742   4.646430
    23  N    4.848512   6.176906   3.682808   4.981208   5.710588
    24  N    5.710573   6.520634   4.231844   6.451984   4.848512
    25  H    6.352845   7.289127   4.885569   6.964661   5.771185
    26  H    6.183994   6.807146   4.729561   7.048547   4.839521
    27  H    4.839525   6.263457   3.910699   4.722590   6.184007
    28  H    5.771184   7.053382   4.527934   5.956406   6.352866
                    6          7          8          9         10
     6  C    0.000000
     7  O    2.370561   0.000000
     8  C    2.535881   2.370579   0.000000
     9  C    4.296758   4.795134   2.425569   0.000000
    10  C    1.397897   2.796885   3.809634   5.694489   0.000000
    11  C    3.815388   2.807298   1.400158   2.795453   4.960011
    12  C    2.421784   4.791338   4.294421   4.960028   2.799602
    13  C    5.151301   5.020364   2.797736   1.395951   6.514599
    14  C    4.958502   4.202436   2.422631   2.418570   6.207565
    15  C    2.841623   5.063955   5.192945   6.241523   2.469400
    16  C    2.455408   4.210353   4.991147   6.561230   1.413509
    17  H    4.927351   5.762475   3.420453   1.097469   6.307667
    18  H    2.146541   2.447190   4.120167   6.277324   1.097010
    19  H    4.160252   2.495540   2.167097   3.892920   5.081011
    20  H    3.403215   5.742595   4.897123   5.044815   3.896183
    21  H    6.219203   6.094747   3.893797   2.161789   7.592545
    22  H    5.932619   4.865005   3.415121   3.412124   7.118135
    23  N    4.231846   6.451980   6.520675   7.334218   3.789678
    24  N    3.682803   4.981225   6.176882   7.904726   2.377589
    25  H    4.527928   5.956422   7.053360   8.650988   3.296027
    26  H    3.910694   4.722611   6.263417   8.206879   2.514327
    27  H    4.729563   7.048534   6.807197   7.293646   4.527828
    28  H    4.885574   6.964667   7.289171   8.252538   4.196544
                   11         12         13         14         15
    11  C    0.000000
    12  C    5.694533   0.000000
    13  C    2.418564   6.207596   0.000000
    14  C    1.395952   6.514652   1.395404   0.000000
    15  C    6.561277   1.413509   7.413763   7.550326   0.000000
    16  C    6.241524   2.469396   7.550279   7.413748   1.464472
    17  H    3.892921   5.081024   2.164717   3.413154   6.452941
    18  H    5.044769   3.896180   6.913385   6.389763   3.473754
    19  H    1.097467   6.307709   3.413151   2.164720   6.996313
    20  H    6.277387   1.097013   6.389828   6.913467   2.180764
    21  H    3.412123   7.118172   1.096062   2.163375   8.378236
    22  H    2.161785   7.592602   2.163374   1.096056   8.593355
    23  N    7.904805   2.377591   8.583214   8.832439   1.395229
    24  N    7.334195   3.789676   8.832352   8.583163   2.549952
    25  H    8.252521   4.196541   9.647418   9.471574   2.816443
    26  H    7.293594   4.527827   9.011228   8.610227   3.414030
    27  H    8.206975   2.514331   8.610312   9.011343   2.058713
    28  H    8.651072   3.296030   9.471619   9.647506   2.098292
                   16         17         18         19         20
    16  C    0.000000
    17  H    6.996260   0.000000
    18  H    2.180767   7.012173   0.000000
    19  H    6.452951   4.990387   4.925254   0.000000
    20  H    3.473751   4.925298   4.992423   7.012231   0.000000
    21  H    8.593302   2.490612   8.008504   4.317934   7.189702
    22  H    8.378220   4.317932   7.189626   2.490614   8.008592
    23  N    2.549951   7.394018   4.713534   8.378175   2.586017
    24  N    1.395230   8.378087   2.586023   7.394010   4.713531
    25  H    2.098292   9.043285   3.568363   8.352055   4.976453
    26  H    2.058716   8.786609   2.281379   7.206439   5.521789
    27  H    3.414028   7.206478   5.521789   8.786708   2.281376
    28  H    2.816442   8.352053   4.976458   9.043382   3.568359
                   21         22         23         24         25
    21  H    0.000000
    22  H    2.493074   0.000000
    23  N    9.494042   9.894007   0.000000
    24  N    9.893907   9.493987   3.110744   0.000000
    25  H   10.691516  10.406816   2.909006   0.982362   0.000000
    26  H   10.095104   9.449145   4.089779   0.985356   1.689659
    27  H    9.449241  10.095236   0.985355   4.089779   3.880947
    28  H   10.406864  10.691619   0.982364   2.909003   2.410134
                   26         27         28
    26  H    0.000000
    27  H    5.064826   0.000000
    28  H    3.880944   1.689659   0.000000
 Stoichiometry    C14H10N2O2
 Framework group  C1[X(C14H10N2O2)]
 Deg. of freedom    78
 Full point group                 C1      NOp   1
 Largest Abelian subgroup         C1      NOp   1
 Largest concise Abelian subgroup C1      NOp   1
                         Standard orientation:                         
 ---------------------------------------------------------------------
 Center     Atomic      Atomic             Coordinates (Angstroms)
 Number     Number       Type             X           Y           Z
 ---------------------------------------------------------------------
      1          6           0        0.642260    1.463220    0.000053
      2          6           0        1.912260    0.701669    0.002594
      3          6           0       -0.623616    0.698483   -0.003625
      4          8           0        0.641786    2.703051    0.001821
      5          6           0        0.642276   -1.463199   -0.006840
      6          6           0       -0.623605   -0.698482   -0.001130
      7          8           0        0.641803   -2.703015   -0.013328
      8          6           0        1.912272   -0.701647   -0.004481
      9          6           0        3.127126    1.397703    0.011051
     10          6           0       -1.832831   -1.399795    0.005832
     11          6           0        3.127162   -1.397690   -0.007312
     12          6           0       -1.832867    1.399776   -0.007451
     13          6           0        4.334872    0.697682    0.010067
     14          6           0        4.334896   -0.697683   -0.000261
     15          6           0       -3.078796    0.732200   -0.004383
     16          6           0       -3.078768   -0.732227    0.007105
     17          1           0        3.128614    2.495145    0.018530
     18          1           0       -1.796524   -2.496197    0.009650
     19          1           0        3.128669   -2.495131   -0.014748
     20          1           0       -1.796591    2.496180   -0.011719
     21          1           0        5.283612    1.246495    0.017051
     22          1           0        5.283648   -1.246503   -0.002335
     23          7           0       -4.205363    1.555275   -0.012058
     24          7           0       -4.205290   -1.555311    0.019303
     25          1           0       -5.123057   -1.204978    0.021933
     26          1           0       -4.077559   -2.532330    0.025967
     27          1           0       -4.077666    2.532289   -0.019852
     28          1           0       -5.123132    1.204938   -0.010467
 ---------------------------------------------------------------------
 Rotational constants (GHZ):      0.9377009      0.2842255      0.2181170
 Standard basis: VSTO-6G (5D, 7F)
 There are    82 symmetry adapted cartesian basis functions of A   symmetry.
 There are    82 symmetry adapted basis functions of A   symmetry.
    82 basis functions,   492 primitive gaussians,    82 cartesian basis functions
    44 alpha electrons       44 beta electrons
       nuclear repulsion energy       653.0103823446 Hartrees.
 Integral buffers will be    131072 words long.
 Regular integral format.
 Two-electron integral symmetry is turned off.
 Do NDO integrals.
 One-electron integrals computed using PRISM.
 NBasis=    82 RedAO= F EigKep=  0.00D+00  NBF=    82
 NBsUse=    82 1.00D-04 EigRej=  0.00D+00 NBFU=    82
 Initial guess from the checkpoint file:  "anthracene-2-3-opt.chk"
 B after Tr=     0.000000    0.000000    0.000000
         Rot=    1.000000   -0.000199   -0.000001    0.000000 Ang=  -0.02 deg.
 Overlap will be assumed to be unity.
 Keep J ints in memory in canonical form, NReq=936458.
 Requested convergence on RMS density matrix=1.00D-08 within 128 cycles.
 Requested convergence on MAX density matrix=1.00D-06.
 Requested convergence on             energy=1.00D-06.
 No special actions if energy rises.
 SCF Done:  E(RAM1) = -0.335953136107E-02 A.U. after   14 cycles
            NFock= 13  Conv=0.54D-08     -V/T= 0.9999
 Calling FoFJK, ICntrl=      2127 FMM=F ISym2X=0 I1Cent= 0 IOpClX= 0 NMat=1 NMatS=1 NMatT=0.
 ***** Axes restored to original set *****
 -------------------------------------------------------------------
 Center     Atomic                   Forces (Hartrees/Bohr)
 Number     Number              X              Y              Z
 -------------------------------------------------------------------
      1        6          -0.001974554    0.000033718   -0.000004751
      2        6          -0.002078729    0.000973441   -0.000023344
      3        6           0.002464575    0.002127882   -0.000015237
      4        8           0.000835662    0.002606272   -0.000053851
      5        6          -0.001977102   -0.000039445    0.000003940
      6        6           0.002466721   -0.002127047    0.000036339
      7        8           0.000837682   -0.002602247    0.000029073
      8        6          -0.002072376   -0.000975053    0.000052705
      9        6           0.001258003   -0.004883325    0.000019776
     10        6           0.002343664    0.014320200   -0.000374673
     11        6           0.001252684    0.004885804   -0.000001696
     12        6           0.002352143   -0.014315134    0.000368129
     13        6          -0.003053947   -0.003267985   -0.000012743
     14        6          -0.003062507    0.003268231    0.000004361
     15        6          -0.008963932   -0.006935757    0.000256585
     16        6          -0.008972352    0.006929264   -0.000154839
     17        1          -0.001496382    0.003297579   -0.000057313
     18        1           0.001241635   -0.004676136    0.000086339
     19        1          -0.001493710   -0.003299576    0.000044490
     20        1           0.001239053    0.004675248   -0.000104628
     21        1           0.002479781    0.001552959   -0.000014257
     22        1           0.002484467   -0.001553115    0.000007153
     23        7           0.003982426   -0.023352250    0.000530028
     24        7           0.003968003    0.023353306   -0.000581095
     25        1           0.001861821    0.004447554   -0.000117368
     26        1           0.001105539   -0.000678924   -0.000000302
     27        1           0.001105334    0.000680801   -0.000011777
     28        1           0.001866396   -0.004446268    0.000088958
 -------------------------------------------------------------------
 Cartesian Forces:  Max     0.023353306 RMS     0.004984288

 GradGradGradGradGradGradGradGradGradGradGradGradGradGradGradGradGradGrad
 Berny optimization.
 Using GEDIIS/GDIIS optimizer.
 FormGI is forming the generalized inverse of G from B-inverse, IUseBI=4.
 Internal  Forces:  Max     0.040556483 RMS     0.006286191
 Search for a local minimum.
 Step number   2 out of a maximum of  160
 All quantities printed in internal units (Hartrees-Bohrs-Radians)
 Mixed Optimization -- RFO/linear search
 Update second derivatives using D2CorX and points    1    2
 DE= -8.79D-03 DEPred=-3.27D-02 R= 2.68D-01
 Trust test= 2.68D-01 RLast= 3.00D-01 DXMaxT set to 3.00D-01
 ITU=  0  0
 Use linear search instead of GDIIS.
     Eigenvalues ---    0.01076   0.01077   0.01077   0.01568   0.01645
     Eigenvalues ---    0.01775   0.01811   0.01892   0.01925   0.02105
     Eigenvalues ---    0.02109   0.02111   0.02115   0.02121   0.02129
     Eigenvalues ---    0.02144   0.02144   0.02144   0.02144   0.02145
     Eigenvalues ---    0.02149   0.02150   0.02153   0.02157   0.02161
     Eigenvalues ---    0.15962   0.16000   0.16000   0.16000   0.16000
     Eigenvalues ---    0.16000   0.16000   0.16000   0.16000   0.16308
     Eigenvalues ---    0.22000   0.22572   0.22889   0.23962   0.24501
     Eigenvalues ---    0.24722   0.25000   0.25000   0.25000   0.25000
     Eigenvalues ---    0.25000   0.25000   0.32081   0.33298   0.34012
     Eigenvalues ---    0.34694   0.34953   0.34971   0.35002   0.35051
     Eigenvalues ---    0.35102   0.35113   0.35153   0.40596   0.41717
     Eigenvalues ---    0.41946   0.43021   0.45117   0.45656   0.45930
     Eigenvalues ---    0.46210   0.46223   0.46407   0.46488   0.49682
     Eigenvalues ---    0.50511   0.50521   0.50521   0.50523   0.51783
     Eigenvalues ---    0.83071   0.93047   0.94709
 RFO step:  Lambda=-2.49765075D-03 EMin= 1.07644690D-02
 Quartic linear search produced a step of -0.40022.
 Iteration  1 RMS(Cart)=  0.05173332 RMS(Int)=  0.00122420
 Iteration  2 RMS(Cart)=  0.00173296 RMS(Int)=  0.00003611
 Iteration  3 RMS(Cart)=  0.00000048 RMS(Int)=  0.00003611
 Variable       Old X    -DE/DX   Delta X   Delta X   Delta X     New X
                                 (Linear)    (Quad)   (Total)
    R1        2.79837  -0.00162  -0.00325   0.00080  -0.00246   2.79591
    R2        2.79480  -0.00295  -0.00184  -0.00260  -0.00443   2.79038
    R3        2.34294   0.00261  -0.01095   0.01693   0.00599   2.34893
    R4        2.65192   0.00125  -0.00703   0.01011   0.00307   2.65498
    R5        2.64591  -0.00141   0.00048  -0.00242  -0.00194   2.64396
    R6        2.63988  -0.00006  -0.00117   0.00396   0.00291   2.64280
    R7        2.64164  -0.00293   0.00268  -0.00612  -0.00339   2.63826
    R8        2.79480  -0.00295  -0.00184  -0.00259  -0.00443   2.79038
    R9        2.34295   0.00260  -0.01094   0.01693   0.00598   2.34893
   R10        2.79836  -0.00162  -0.00325   0.00081  -0.00245   2.79591
   R11        2.64164  -0.00294   0.00267  -0.00611  -0.00339   2.63826
   R12        2.64591  -0.00141   0.00048  -0.00243  -0.00195   2.64396
   R13        2.63797  -0.00059  -0.00002  -0.00075  -0.00077   2.63719
   R14        2.07392   0.00330  -0.00656   0.01334   0.00678   2.08069
   R15        2.67114  -0.00128  -0.01573   0.01717   0.00139   2.67253
   R16        2.07305   0.00472  -0.00752   0.01685   0.00933   2.08238
   R17        2.63797  -0.00059  -0.00002  -0.00075  -0.00077   2.63719
   R18        2.07391   0.00330  -0.00657   0.01334   0.00678   2.08069
   R19        2.67114  -0.00128  -0.01573   0.01716   0.00138   2.67253
   R20        2.07305   0.00471  -0.00752   0.01685   0.00933   2.08238
   R21        2.63693  -0.00190  -0.00060  -0.00171  -0.00231   2.63462
   R22        2.07126   0.00292  -0.00613   0.01219   0.00606   2.07731
   R23        2.07124   0.00293  -0.00614   0.01221   0.00607   2.07731
   R24        2.76745  -0.04056  -0.05133   0.01020  -0.04124   2.72621
   R25        2.63660  -0.02161  -0.02222   0.00375  -0.01847   2.61813
   R26        2.63660  -0.02161  -0.02222   0.00375  -0.01848   2.61813
   R27        1.86205   0.00082  -0.00065   0.00180   0.00115   1.86320
[...]
    16  C    0.000000
    17  H    6.961800   0.000000
    18  H    2.183471   6.999459   0.000000
    19  H    6.426502   4.993985   4.906674   0.000000
    20  H    3.453680   4.906729   4.989443   6.999511   0.000000
    21  H    8.574767   2.503363   8.007066   4.330444   7.186064
    22  H    8.362938   4.330441   7.186010   2.503370   8.007125
    23  N    2.469780   7.452827   4.645664   8.361788   2.687485
    24  N    1.403968   8.361880   2.687637   7.452949   4.645687
    25  H    2.023612   8.868448   3.528084   8.237310   4.821893
    26  H    2.016867   8.763168   2.346849   7.252539   5.448026
    27  H    3.319941   7.252750   5.448122   8.763345   2.346999
    28  H    2.685325   8.237925   4.821847   8.868791   3.528534
                   21         22         23         24         25
    21  H    0.000000
    22  H    2.500185   0.000000
    23  N    9.549909   9.919551   0.000000
    24  N    9.919661   9.550037   2.881659   0.000000
    25  H   10.542744  10.283234   2.660308   0.998767   0.000000
    26  H   10.113175   9.495474   3.863566   0.998540   1.653816
    27  H    9.495683  10.113378   0.998478   3.863539   3.649693
    28  H   10.283842  10.543246   0.998691   2.659813   2.400721
                   26         27         28
    26  H    0.000000
    27  H    4.845782   0.000000
    28  H    3.649284   1.653988   0.000000
 Stoichiometry    C14H10N2O2
 Framework group  C1[X(C14H10N2O2)]
 Deg. of freedom    78
 Full point group                 C1      NOp   1
 Largest Abelian subgroup         C1      NOp   1
 Largest concise Abelian subgroup C1      NOp   1
                         Standard orientation:                         
 ---------------------------------------------------------------------
 Center     Atomic      Atomic             Coordinates (Angstroms)
 Number     Number       Type             X           Y           Z
 ---------------------------------------------------------------------
      1          6           0        0.647830    1.473675   -0.000901
      2          6           0        1.909523    0.702203   -0.000943
      3          6           0       -0.610293    0.700750   -0.001355
      4          8           0        0.649807    2.713830    0.001110
      5          6           0        0.647813   -1.473673    0.001309
      6          6           0       -0.610250   -0.700753    0.001547
      7          8           0        0.649808   -2.713832   -0.000285
      8          6           0        1.909528   -0.702208    0.001015
      9          6           0        3.126346    1.394191   -0.002241
     10          6           0       -1.822639   -1.390401   -0.003735
     11          6           0        3.126348   -1.394193    0.001992
     12          6           0       -1.822633    1.390425    0.003761
     13          6           0        4.334381    0.696738   -0.001419
     14          6           0        4.334383   -0.696738    0.000828
     15          6           0       -3.060399    0.717568    0.005503
     16          6           0       -3.060332   -0.717547   -0.005712
     17          1           0        3.114894    2.496988   -0.003931
     18          1           0       -1.791774   -2.494708   -0.004366
     19          1           0        3.114893   -2.496991    0.003710
     20          1           0       -1.791828    2.494727    0.004524
     21          1           0        5.285625    1.250092   -0.002512
     22          1           0        5.285629   -1.250090    0.001655
     23          7           0       -4.262169    1.439111   -0.070747
     24          7           0       -4.262289   -1.439085    0.070493
     25          1           0       -4.982905   -1.081711   -0.521565
     26          1           0       -4.137062   -2.422374   -0.050098
     27          1           0       -4.137273    2.422376    0.049869
     28          1           0       -4.983547    1.081301    0.519990
 ---------------------------------------------------------------------
 Rotational constants (GHZ):      0.9543750      0.2829262      0.2183612

 **********************************************************************

            Population analysis using the SCF density.

 **********************************************************************

 Orbital symmetries:
       Occupied  (A) (A) (A) (A) (A) (A) (A) (A) (A) (A) (A) (A)
                 (A) (A) (A) (A) (A) (A) (A) (A) (A) (A) (A) (A)
                 (A) (A) (A) (A) (A) (A) (A) (A) (A) (A) (A) (A)
                 (A) (A) (A) (A) (A) (A) (A) (A)
       Virtual   (A) (A) (A) (A) (A) (A) (A) (A) (A) (A) (A) (A)
                 (A) (A) (A) (A) (A) (A) (A) (A) (A) (A) (A) (A)
                 (A) (A) (A) (A) (A) (A) (A) (A) (A) (A) (A) (A)
                 (A) (A)
 The electronic state is 1-A.
 Alpha  occ. eigenvalues --   -1.53086  -1.46576  -1.44369  -1.40556  -1.31631
 Alpha  occ. eigenvalues --   -1.29897  -1.20888  -1.17405  -1.13204  -1.07690
 Alpha  occ. eigenvalues --   -0.97602  -0.91932  -0.87031  -0.84670  -0.80358
 Alpha  occ. eigenvalues --   -0.74232  -0.69973  -0.67855  -0.64709  -0.63730
 Alpha  occ. eigenvalues --   -0.61641  -0.61486  -0.60778  -0.58556  -0.57360
 Alpha  occ. eigenvalues --   -0.55732  -0.55175  -0.54793  -0.54145  -0.53775
 Alpha  occ. eigenvalues --   -0.53012  -0.50927  -0.48921  -0.48194  -0.46909
 Alpha  occ. eigenvalues --   -0.45412  -0.44418  -0.43033  -0.40944  -0.39262
 Alpha  occ. eigenvalues --   -0.37273  -0.36961  -0.35331  -0.31761
 Alpha virt. eigenvalues --   -0.04614  -0.00937  -0.00191   0.00536   0.05085
 Alpha virt. eigenvalues --    0.05767   0.08705   0.09483   0.09790   0.10357
 Alpha virt. eigenvalues --    0.10796   0.11007   0.12897   0.13173   0.13315
 Alpha virt. eigenvalues --    0.14078   0.14081   0.14376   0.14629   0.15213
 Alpha virt. eigenvalues --    0.15700   0.16463   0.16521   0.16733   0.17310
 Alpha virt. eigenvalues --    0.17669   0.17995   0.18606   0.19056   0.19113
 Alpha virt. eigenvalues --    0.19539   0.20534   0.20557   0.21372   0.21640
 Alpha virt. eigenvalues --    0.22123   0.23051   0.23825
          Condensed to atoms (all electrons):
               1          2          3          4          5          6
     1  C    3.691019   0.000000   0.000000   0.000000   0.000000   0.000000
     2  C    0.000000   4.106256   0.000000   0.000000   0.000000   0.000000
     3  C    0.000000   0.000000   4.109686   0.000000   0.000000   0.000000
     4  O    0.000000   0.000000   0.000000   6.293880   0.000000   0.000000
     5  C    0.000000   0.000000   0.000000   0.000000   3.690996   0.000000
     6  C    0.000000   0.000000   0.000000   0.000000   0.000000   4.109898
     7  O    0.000000   0.000000   0.000000   0.000000   0.000000   0.000000
     8  C    0.000000   0.000000   0.000000   0.000000   0.000000   0.000000
     9  C    0.000000   0.000000   0.000000   0.000000   0.000000   0.000000
    10  C    0.000000   0.000000   0.000000   0.000000   0.000000   0.000000
    11  C    0.000000   0.000000   0.000000   0.000000   0.000000   0.000000
    12  C    0.000000   0.000000   0.000000   0.000000   0.000000   0.000000
    13  C    0.000000   0.000000   0.000000   0.000000   0.000000   0.000000
    14  C    0.000000   0.000000   0.000000   0.000000   0.000000   0.000000
    15  C    0.000000   0.000000   0.000000   0.000000   0.000000   0.000000
    16  C    0.000000   0.000000   0.000000   0.000000   0.000000   0.000000
    17  H    0.000000   0.000000   0.000000   0.000000   0.000000   0.000000
    18  H    0.000000   0.000000   0.000000   0.000000   0.000000   0.000000
    19  H    0.000000   0.000000   0.000000   0.000000   0.000000   0.000000
    20  H    0.000000   0.000000   0.000000   0.000000   0.000000   0.000000
    21  H    0.000000   0.000000   0.000000   0.000000   0.000000   0.000000
    22  H    0.000000   0.000000   0.000000   0.000000   0.000000   0.000000
    23  N    0.000000   0.000000   0.000000   0.000000   0.000000   0.000000
    24  N    0.000000   0.000000   0.000000   0.000000   0.000000   0.000000
    25  H    0.000000   0.000000   0.000000   0.000000   0.000000   0.000000
    26  H    0.000000   0.000000   0.000000   0.000000   0.000000   0.000000
    27  H    0.000000   0.000000   0.000000   0.000000   0.000000   0.000000
    28  H    0.000000   0.000000   0.000000   0.000000   0.000000   0.000000
               7          8          9         10         11         12
     1  C    0.000000   0.000000   0.000000   0.000000   0.000000   0.000000
     2  C    0.000000   0.000000   0.000000   0.000000   0.000000   0.000000
     3  C    0.000000   0.000000   0.000000   0.000000   0.000000   0.000000
     4  O    0.000000   0.000000   0.000000   0.000000   0.000000   0.000000
     5  C    0.000000   0.000000   0.000000   0.000000   0.000000   0.000000
     6  C    0.000000   0.000000   0.000000   0.000000   0.000000   0.000000
     7  O    6.293904   0.000000   0.000000   0.000000   0.000000   0.000000
     8  C    0.000000   4.106240   0.000000   0.000000   0.000000   0.000000
     9  C    0.000000   0.000000   4.088324   0.000000   0.000000   0.000000
    10  C    0.000000   0.000000   0.000000   4.122894   0.000000   0.000000
    11  C    0.000000   0.000000   0.000000   0.000000   4.088329   0.000000
    12  C    0.000000   0.000000   0.000000   0.000000   0.000000   4.123105
    13  C    0.000000   0.000000   0.000000   0.000000   0.000000   0.000000
    14  C    0.000000   0.000000   0.000000   0.000000   0.000000   0.000000
    15  C    0.000000   0.000000   0.000000   0.000000   0.000000   0.000000
    16  C    0.000000   0.000000   0.000000   0.000000   0.000000   0.000000
    17  H    0.000000   0.000000   0.000000   0.000000   0.000000   0.000000
    18  H    0.000000   0.000000   0.000000   0.000000   0.000000   0.000000
    19  H    0.000000   0.000000   0.000000   0.000000   0.000000   0.000000
    20  H    0.000000   0.000000   0.000000   0.000000   0.000000   0.000000
    21  H    0.000000   0.000000   0.000000   0.000000   0.000000   0.000000
    22  H    0.000000   0.000000   0.000000   0.000000   0.000000   0.000000
    23  N    0.000000   0.000000   0.000000   0.000000   0.000000   0.000000
    24  N    0.000000   0.000000   0.000000   0.000000   0.000000   0.000000
    25  H    0.000000   0.000000   0.000000   0.000000   0.000000   0.000000
    26  H    0.000000   0.000000   0.000000   0.000000   0.000000   0.000000
    27  H    0.000000   0.000000   0.000000   0.000000   0.000000   0.000000
    28  H    0.000000   0.000000   0.000000   0.000000   0.000000   0.000000
              13         14         15         16         17         18
     1  C    0.000000   0.000000   0.000000   0.000000   0.000000   0.000000
     2  C    0.000000   0.000000   0.000000   0.000000   0.000000   0.000000
     3  C    0.000000   0.000000   0.000000   0.000000   0.000000   0.000000
     4  O    0.000000   0.000000   0.000000   0.000000   0.000000   0.000000
     5  C    0.000000   0.000000   0.000000   0.000000   0.000000   0.000000
     6  C    0.000000   0.000000   0.000000   0.000000   0.000000   0.000000
     7  O    0.000000   0.000000   0.000000   0.000000   0.000000   0.000000
     8  C    0.000000   0.000000   0.000000   0.000000   0.000000   0.000000
     9  C    0.000000   0.000000   0.000000   0.000000   0.000000   0.000000
    10  C    0.000000   0.000000   0.000000   0.000000   0.000000   0.000000
    11  C    0.000000   0.000000   0.000000   0.000000   0.000000   0.000000
    12  C    0.000000   0.000000   0.000000   0.000000   0.000000   0.000000
    13  C    4.118089   0.000000   0.000000   0.000000   0.000000   0.000000
    14  C    0.000000   4.118080   0.000000   0.000000   0.000000   0.000000
    15  C    0.000000   0.000000   3.981397   0.000000   0.000000   0.000000
    16  C    0.000000   0.000000   0.000000   3.981880   0.000000   0.000000
    17  H    0.000000   0.000000   0.000000   0.000000   0.840254   0.000000
    18  H    0.000000   0.000000   0.000000   0.000000   0.000000   0.841491
    19  H    0.000000   0.000000   0.000000   0.000000   0.000000   0.000000
    20  H    0.000000   0.000000   0.000000   0.000000   0.000000   0.000000
    21  H    0.000000   0.000000   0.000000   0.000000   0.000000   0.000000
    22  H    0.000000   0.000000   0.000000   0.000000   0.000000   0.000000
    23  N    0.000000   0.000000   0.000000   0.000000   0.000000   0.000000
    24  N    0.000000   0.000000   0.000000   0.000000   0.000000   0.000000
    25  H    0.000000   0.000000   0.000000   0.000000   0.000000   0.000000
    26  H    0.000000   0.000000   0.000000   0.000000   0.000000   0.000000
    27  H    0.000000   0.000000   0.000000   0.000000   0.000000   0.000000
    28  H    0.000000   0.000000   0.000000   0.000000   0.000000   0.000000
              19         20         21         22         23         24
     1  C    0.000000   0.000000   0.000000   0.000000   0.000000   0.000000
     2  C    0.000000   0.000000   0.000000   0.000000   0.000000   0.000000
     3  C    0.000000   0.000000   0.000000   0.000000   0.000000   0.000000
     4  O    0.000000   0.000000   0.000000   0.000000   0.000000   0.000000
     5  C    0.000000   0.000000   0.000000   0.000000   0.000000   0.000000
     6  C    0.000000   0.000000   0.000000   0.000000   0.000000   0.000000
     7  O    0.000000   0.000000   0.000000   0.000000   0.000000   0.000000
     8  C    0.000000   0.000000   0.000000   0.000000   0.000000   0.000000
     9  C    0.000000   0.000000   0.000000   0.000000   0.000000   0.000000
    10  C    0.000000   0.000000   0.000000   0.000000   0.000000   0.000000
    11  C    0.000000   0.000000   0.000000   0.000000   0.000000   0.000000
    12  C    0.000000   0.000000   0.000000   0.000000   0.000000   0.000000
    13  C    0.000000   0.000000   0.000000   0.000000   0.000000   0.000000
    14  C    0.000000   0.000000   0.000000   0.000000   0.000000   0.000000
    15  C    0.000000   0.000000   0.000000   0.000000   0.000000   0.000000
    16  C    0.000000   0.000000   0.000000   0.000000   0.000000   0.000000
    17  H    0.000000   0.000000   0.000000   0.000000   0.000000   0.000000
    18  H    0.000000   0.000000   0.000000   0.000000   0.000000   0.000000
    19  H    0.840251   0.000000   0.000000   0.000000   0.000000   0.000000
    20  H    0.000000   0.841492   0.000000   0.000000   0.000000   0.000000
    21  H    0.000000   0.000000   0.859390   0.000000   0.000000   0.000000
    22  H    0.000000   0.000000   0.000000   0.859390   0.000000   0.000000
    23  N    0.000000   0.000000   0.000000   0.000000   5.317245   0.000000
    24  N    0.000000   0.000000   0.000000   0.000000   0.000000   5.316970
    25  H    0.000000   0.000000   0.000000   0.000000   0.000000   0.000000
    26  H    0.000000   0.000000   0.000000   0.000000   0.000000   0.000000
    27  H    0.000000   0.000000   0.000000   0.000000   0.000000   0.000000
    28  H    0.000000   0.000000   0.000000   0.000000   0.000000   0.000000
              25         26         27         28
     1  C    0.000000   0.000000   0.000000   0.000000
     2  C    0.000000   0.000000   0.000000   0.000000
     3  C    0.000000   0.000000   0.000000   0.000000
     4  O    0.000000   0.000000   0.000000   0.000000
     5  C    0.000000   0.000000   0.000000   0.000000
     6  C    0.000000   0.000000   0.000000   0.000000
     7  O    0.000000   0.000000   0.000000   0.000000
     8  C    0.000000   0.000000   0.000000   0.000000
     9  C    0.000000   0.000000   0.000000   0.000000
    10  C    0.000000   0.000000   0.000000   0.000000
    11  C    0.000000   0.000000   0.000000   0.000000
    12  C    0.000000   0.000000   0.000000   0.000000
    13  C    0.000000   0.000000   0.000000   0.000000
    14  C    0.000000   0.000000   0.000000   0.000000
    15  C    0.000000   0.000000   0.000000   0.000000
    16  C    0.000000   0.000000   0.000000   0.000000
    17  H    0.000000   0.000000   0.000000   0.000000
    18  H    0.000000   0.000000   0.000000   0.000000
    19  H    0.000000   0.000000   0.000000   0.000000
    20  H    0.000000   0.000000   0.000000   0.000000
    21  H    0.000000   0.000000   0.000000   0.000000
    22  H    0.000000   0.000000   0.000000   0.000000
    23  N    0.000000   0.000000   0.000000   0.000000
    24  N    0.000000   0.000000   0.000000   0.000000
    25  H    0.813177   0.000000   0.000000   0.000000
    26  H    0.000000   0.816779   0.000000   0.000000
    27  H    0.000000   0.000000   0.816614   0.000000
    28  H    0.000000   0.000000   0.000000   0.812971
 Mulliken charges:
               1
     1  C    0.308981
     2  C   -0.106256
     3  C   -0.109686
     4  O   -0.293880
     5  C    0.309004
     6  C   -0.109898
     7  O   -0.293904
     8  C   -0.106240
     9  C   -0.088324
    10  C   -0.122894
    11  C   -0.088329
    12  C   -0.123105
    13  C   -0.118089
    14  C   -0.118080
    15  C    0.018603
    16  C    0.018120
    17  H    0.159746
    18  H    0.158509
    19  H    0.159749
    20  H    0.158508
    21  H    0.140610
    22  H    0.140610
    23  N   -0.317245
    24  N   -0.316970
    25  H    0.186823
    26  H    0.183221
    27  H    0.183386
    28  H    0.187029
 Sum of Mulliken charges =   0.00000
 Mulliken charges with hydrogens summed into heavy atoms:
               1
     1  C    0.308981
     2  C   -0.106256
     3  C   -0.109686
     4  O   -0.293880
     5  C    0.309004
     6  C   -0.109898
     7  O   -0.293904
     8  C   -0.106240
     9  C    0.071422
    10  C    0.035616
    11  C    0.071420
    12  C    0.035403
    13  C    0.022521
    14  C    0.022531
    15  C    0.018603
    16  C    0.018120
    23  N    0.053171
    24  N    0.053073
 Charge=              0.0000 electrons
 Dipole moment (field-independent basis, Debye):
    X=             -1.1413    Y=              0.0014    Z=             -0.0025  Tot=              1.1413
 N-N= 6.538790878213D+02 E-N=-1.180572085421D+03  KE=-6.195418140201D+01
 1\1\GINC-GTX1080DELTA\FOpt\RAM1\ZDO\C14H10N2O2\MVEROT\12-Apr-2022\0\\#
 n AM1 Opt\\Geometry optimization\\0,1\C,0.0061605114,1.4798041206,-0.0
 375067674\C,1.2681309806,0.7090010014,-0.0193163463\C,-1.2516783615,0.
 7067865554,-0.0136058826\O,0.0076909993,2.7195438813,-0.0697071385\C,0
 .0072228357,-1.4663614551,0.0459941345\C,-1.251116957,-0.6941034938,0.
 0279509474\O,0.0096659442,-2.7060918002,0.0786021847\C,1.268652336,-0.
 6948221839,0.0213767562\C,2.4846954657,1.4010515683,-0.0426368182\C,-2
 .4632645719,-1.3839956369,0.0446196312\C,2.4857235108,-1.3861545312,0.
 0385025697\C,-2.4642533658,1.3959787812,-0.0245877331\C,3.6929827693,0
 .704246547,-0.0254944837\C,3.6934976875,-0.6886368214,0.0151856118\C,-
 3.7017658482,0.7230579547,-0.0012998595\C,-3.7012037732,-0.7118203905,
 0.0270725903\H,2.4728372847,2.5033794804,-0.0747160295\H,-2.4319983631
 ,-2.4878908903,0.0743728002\H,2.4746744566,-2.4884889227,0.0706645642\
 H,-2.4338485689,2.4998907122,-0.0543576105\H,4.6440202537,1.2576433071
 ,-0.0441459252\H,4.6449445799,-1.2414720689,0.0289779163\N,-4.90397909
 87,1.4418647719,-0.0945202919\N,-4.9027112083,-1.4313399126,0.12605048
 44\H,-5.6248786566,-1.0906473376,-0.4738979964\H,-4.7774158699,-2.4175
 437711,0.0323245224\H,-4.7791510571,2.4281202768,-0.0013724648\H,-5.62
 38039152,1.1002702581,0.5076006342\\Version=AM64L-G09RevD.01\State=1-A
 \HF=-0.0159637\RMSD=4.970e-09\RMSF=1.511e-05\Dipole=-0.4490415,0.00038
 75,0.0000665\PG=C01 [X(C14H10N2O2)]\\@


 DEFINE YOUR TERMS, YOU WILL PERMIT ME AGAIN TO SAY, 
 OR WE SHALL NEVER UNDERSTAND ONE ANOTHER.

                                    -- VOLTAIRE
 Job cpu time:       0 days  0 hours  0 minutes 16.9 seconds.
 File lengths (MBytes):  RWF=    132 Int=      0 D2E=      0 Chk=      4 Scr=      2
 Normal termination of Gaussian 09 at Tue Apr 12 01:07:38 2022.
