 Entering Gaussian System, Link 0=g09
 Input=/scratch/mverot/cyclopentane-opt/cyclopentane-opt.com
 Output=/scratch/mverot/cyclopentane-opt/cyclopentane-opt.log
 Initial command:
 /opt/g09/l1.exe "/scratch/mverot/cyclopentane-opt/Gau-760265.inp" -scrdir="/scratch/mverot/cyclopentane-opt/"
 Entering Link 1 = /opt/g09/l1.exe PID=    760267.
  
 Copyright (c) 1988,1990,1992,1993,1995,1998,2003,2009,2013,
            Gaussian, Inc.  All Rights Reserved.
  
 This is part of the Gaussian(R) 09 program.  It is based on
 the Gaussian(R) 03 system (copyright 2003, Gaussian, Inc.),
 the Gaussian(R) 98 system (copyright 1998, Gaussian, Inc.),
 the Gaussian(R) 94 system (copyright 1995, Gaussian, Inc.),
 the Gaussian 92(TM) system (copyright 1992, Gaussian, Inc.),
 the Gaussian 90(TM) system (copyright 1990, Gaussian, Inc.),
 the Gaussian 88(TM) system (copyright 1988, Gaussian, Inc.),
 the Gaussian 86(TM) system (copyright 1986, Carnegie Mellon
 University), and the Gaussian 82(TM) system (copyright 1983,
 Carnegie Mellon University). Gaussian is a federally registered
 trademark of Gaussian, Inc.
  
 This software contains proprietary and confidential information,
 including trade secrets, belonging to Gaussian, Inc.
  
 This software is provided under written license and may be
 used, copied, transmitted, or stored only in accord with that
 written license.
  
 The following legend is applicable only to US Government
 contracts under FAR:
  
                    RESTRICTED RIGHTS LEGEND
  
 Use, reproduction and disclosure by the US Government is
 subject to restrictions as set forth in subparagraphs (a)
 and (c) of the Commercial Computer Software - Restricted
 Rights clause in FAR 52.227-19.
  
 Gaussian, Inc.
 340 Quinnipiac St., Bldg. 40, Wallingford CT 06492
  
  
 ---------------------------------------------------------------
 Warning -- This program may not be used in any manner that
 competes with the business of Gaussian, Inc. or will provide
 assistance to any competitor of Gaussian, Inc.  The licensee
 of this program is prohibited from giving any competitor of
 Gaussian, Inc. access to this program.  By using this program,
 the user acknowledges that Gaussian, Inc. is engaged in the
 business of creating and licensing software in the field of
 computational chemistry and represents and warrants to the
 licensee that it is not a competitor of Gaussian, Inc. and that
 it will not use this program in any manner prohibited above.
 ---------------------------------------------------------------
  

 Cite this work as:
 Gaussian 09, Revision D.01,
 M. J. Frisch, G. W. Trucks, H. B. Schlegel, G. E. Scuseria, 
 M. A. Robb, J. R. Cheeseman, G. Scalmani, V. Barone, B. Mennucci, 
 G. A. Petersson, H. Nakatsuji, M. Caricato, X. Li, H. P. Hratchian, 
 A. F. Izmaylov, J. Bloino, G. Zheng, J. L. Sonnenberg, M. Hada, 
 M. Ehara, K. Toyota, R. Fukuda, J. Hasegawa, M. Ishida, T. Nakajima, 
 Y. Honda, O. Kitao, H. Nakai, T. Vreven, J. A. Montgomery, Jr., 
 J. E. Peralta, F. Ogliaro, M. Bearpark, J. J. Heyd, E. Brothers, 
 K. N. Kudin, V. N. Staroverov, T. Keith, R. Kobayashi, J. Normand, 
 K. Raghavachari, A. Rendell, J. C. Burant, S. S. Iyengar, J. Tomasi, 
 M. Cossi, N. Rega, J. M. Millam, M. Klene, J. E. Knox, J. B. Cross, 
 V. Bakken, C. Adamo, J. Jaramillo, R. Gomperts, R. E. Stratmann, 
 O. Yazyev, A. J. Austin, R. Cammi, C. Pomelli, J. W. Ochterski, 
 R. L. Martin, K. Morokuma, V. G. Zakrzewski, G. A. Voth, 
 P. Salvador, J. J. Dannenberg, S. Dapprich, A. D. Daniels, 
 O. Farkas, J. B. Foresman, J. V. Ortiz, J. Cioslowski, 
 and D. J. Fox, Gaussian, Inc., Wallingford CT, 2013.
 
 ******************************************
 Gaussian 09:  AM64L-G09RevD.01 24-Apr-2013
                16-Apr-2022 
 ******************************************
 %chk=cyclopentane-opt
 ---------------
 #n AM1 Opt freq
 ---------------
 1/14=-1,18=20,19=15,26=1,38=1/1,3;
 2/9=110,12=2,17=6,18=5,40=1/2;
 3/5=2,16=1,25=1,41=700000,71=1/1,2,3;
 4/35=1/1;
 5/5=2,35=1,38=5/2;
 6/7=2,8=2,9=2,10=2,28=1/1;
 7//1,2,3,16;
 1/14=-1,18=20,19=15,26=1/3(2);
 2/9=110/2;
 99//99;
 2/9=110/2;
 3/5=2,16=1,25=1,41=700000,71=1,135=20/1,2,3;
 4/5=5,16=3,35=1/1;
 5/5=2,35=1,38=5/2;
 7//1,2,3,16;
 1/14=-1,18=20,19=15,26=1/3(-5);
 2/9=110/2;
 6/7=2,8=2,9=2,10=2,19=2,28=1/1;
 99/9=1/99;
 -------------------------
 Optimisation de geometrie
 -------------------------
 Symbolic Z-matrix:
 Charge =  0 Multiplicity = 1
 C                     1.1922    2.9959    1.0423 
 C                     2.7255    3.0298    0.9305 
 C                     0.8462    1.4882    1.1293 
 C                     3.1656    1.9157    1.8944 
 C                     2.1313    0.7863    1.6682 
 H                     0.8846    3.5068    1.9643 
 H                     0.6862    3.5001    0.2116 
 H                     3.0338    2.7826   -0.0951 
 H                     3.1552    4.0081    1.1743 
 H                    -0.0237    1.3088    1.7701 
 H                     0.5891    1.0986    0.1376 
 H                     4.1977    1.5851    1.733 
 H                     3.1026    2.2836    2.9273 
 H                     1.9419    0.2184    2.5853 
 H                     2.5091    0.0701    0.9292 
 

 GradGradGradGradGradGradGradGradGradGradGradGradGradGradGradGradGradGrad
 Berny optimization.
 Initialization pass.
                           ----------------------------
                           !    Initial Parameters    !
                           ! (Angstroms and Degrees)  !
 --------------------------                            --------------------------
 ! Name  Definition              Value          Derivative Info.                !
 --------------------------------------------------------------------------------
 ! R1    R(1,2)                  1.5377         estimate D2E/DX2                !
 ! R2    R(1,3)                  1.5493         estimate D2E/DX2                !
 ! R3    R(1,6)                  1.0981         estimate D2E/DX2                !
 ! R4    R(1,7)                  1.0956         estimate D2E/DX2                !
 ! R5    R(2,4)                  1.5375         estimate D2E/DX2                !
 ! R6    R(2,8)                  1.0991         estimate D2E/DX2                !
 ! R7    R(2,9)                  1.096          estimate D2E/DX2                !
 ! R8    R(3,5)                  1.5603         estimate D2E/DX2                !
 ! R9    R(3,10)                 1.0952         estimate D2E/DX2                !
 ! R10   R(3,11)                 1.0961         estimate D2E/DX2                !
 ! R11   R(4,5)                  1.5481         estimate D2E/DX2                !
 ! R12   R(4,12)                 1.0957         estimate D2E/DX2                !
 ! R13   R(4,13)                 1.0983         estimate D2E/DX2                !
 ! R14   R(5,14)                 1.0952         estimate D2E/DX2                !
 ! R15   R(5,15)                 1.0963         estimate D2E/DX2                !
 ! A1    A(2,1,3)              104.3717         estimate D2E/DX2                !
 ! A2    A(2,1,6)              109.2756         estimate D2E/DX2                !
 ! A3    A(2,1,7)              113.2813         estimate D2E/DX2                !
 ! A4    A(3,1,6)              110.0637         estimate D2E/DX2                !
 ! A5    A(3,1,7)              112.7851         estimate D2E/DX2                !
 ! A6    A(6,1,7)              107.0466         estimate D2E/DX2                !
 ! A7    A(1,2,4)              102.9357         estimate D2E/DX2                !
 ! A8    A(1,2,8)              110.0339         estimate D2E/DX2                !
 ! A9    A(1,2,9)              113.2313         estimate D2E/DX2                !
 ! A10   A(4,2,8)              109.9823         estimate D2E/DX2                !
 ! A11   A(4,2,9)              113.2735         estimate D2E/DX2                !
 ! A12   A(8,2,9)              107.3593         estimate D2E/DX2                !
 ! A13   A(1,3,5)              105.856          estimate D2E/DX2                !
 ! A14   A(1,3,10)             111.6927         estimate D2E/DX2                !
 ! A15   A(1,3,11)             110.3332         estimate D2E/DX2                !
 ! A16   A(5,3,10)             112.2351         estimate D2E/DX2                !
 ! A17   A(5,3,11)             110.2299         estimate D2E/DX2                !
 ! A18   A(10,3,11)            106.5493         estimate D2E/DX2                !
 ! A19   A(2,4,5)              104.2287         estimate D2E/DX2                !
 ! A20   A(2,4,12)             113.3224         estimate D2E/DX2                !
 ! A21   A(2,4,13)             109.2961         estimate D2E/DX2                !
 ! A22   A(5,4,12)             112.811          estimate D2E/DX2                !
 ! A23   A(5,4,13)             110.0893         estimate D2E/DX2                !
 ! A24   A(12,4,13)            107.0759         estimate D2E/DX2                !
 ! A25   A(3,5,4)              105.8166         estimate D2E/DX2                !
 ! A26   A(3,5,14)             112.3364         estimate D2E/DX2                !
 ! A27   A(3,5,15)             110.176          estimate D2E/DX2                !
 ! A28   A(4,5,14)             111.8075         estimate D2E/DX2                !
 ! A29   A(4,5,15)             110.1741         estimate D2E/DX2                !
 ! A30   A(14,5,15)            106.578          estimate D2E/DX2                !
 ! D1    D(3,1,2,4)            -39.1682         estimate D2E/DX2                !
 ! D2    D(3,1,2,8)             78.0231         estimate D2E/DX2                !
 ! D3    D(3,1,2,9)           -161.8364         estimate D2E/DX2                !
 ! D4    D(6,1,2,4)             78.5283         estimate D2E/DX2                !
 ! D5    D(6,1,2,8)           -164.2804         estimate D2E/DX2                !
 ! D6    D(6,1,2,9)            -44.1399         estimate D2E/DX2                !
 ! D7    D(7,1,2,4)           -162.2254         estimate D2E/DX2                !
 ! D8    D(7,1,2,8)            -45.0341         estimate D2E/DX2                !
 ! D9    D(7,1,2,9)             75.1064         estimate D2E/DX2                !
 ! D10   D(2,1,3,5)             23.5819         estimate D2E/DX2                !
 ! D11   D(2,1,3,10)           146.017          estimate D2E/DX2                !
 ! D12   D(2,1,3,11)           -95.667          estimate D2E/DX2                !
 ! D13   D(6,1,3,5)            -93.5716         estimate D2E/DX2                !
 ! D14   D(6,1,3,10)            28.8634         estimate D2E/DX2                !
 ! D15   D(6,1,3,11)           147.1795         estimate D2E/DX2                !
 ! D16   D(7,1,3,5)            146.9613         estimate D2E/DX2                !
 ! D17   D(7,1,3,10)           -90.6036         estimate D2E/DX2                !
 ! D18   D(7,1,3,11)            27.7124         estimate D2E/DX2                !
 ! D19   D(1,2,4,5)             39.7181         estimate D2E/DX2                !
 ! D20   D(1,2,4,12)           162.7341         estimate D2E/DX2                !
 ! D21   D(1,2,4,13)           -77.942          estimate D2E/DX2                !
 ! D22   D(8,2,4,5)            -77.5098         estimate D2E/DX2                !
 ! D23   D(8,2,4,12)            45.5062         estimate D2E/DX2                !
 ! D24   D(8,2,4,13)           164.83           estimate D2E/DX2                !
 ! D25   D(9,2,4,5)            162.358          estimate D2E/DX2                !
 ! D26   D(9,2,4,12)           -74.626          estimate D2E/DX2                !
 ! D27   D(9,2,4,13)            44.6979         estimate D2E/DX2                !
 ! D28   D(1,3,5,4)              0.8744         estimate D2E/DX2                !
 ! D29   D(1,3,5,14)           123.1385         estimate D2E/DX2                !
 ! D30   D(1,3,5,15)          -118.2018         estimate D2E/DX2                !
 ! D31   D(10,3,5,4)          -121.2141         estimate D2E/DX2                !
 ! D32   D(10,3,5,14)            1.05           estimate D2E/DX2                !
 ! D33   D(10,3,5,15)          119.7097         estimate D2E/DX2                !
 ! D34   D(11,3,5,4)           120.1913         estimate D2E/DX2                !
 ! D35   D(11,3,5,14)         -117.5446         estimate D2E/DX2                !
 ! D36   D(11,3,5,15)            1.1152         estimate D2E/DX2                !
 ! D37   D(2,4,5,3)            -25.0022         estimate D2E/DX2                !
 ! D38   D(2,4,5,14)          -147.6039         estimate D2E/DX2                !
 ! D39   D(2,4,5,15)            94.0752         estimate D2E/DX2                !
 ! D40   D(12,4,5,3)          -148.3513         estimate D2E/DX2                !
 ! D41   D(12,4,5,14)           89.0471         estimate D2E/DX2                !
 ! D42   D(12,4,5,15)          -29.2738         estimate D2E/DX2                !
 ! D43   D(13,4,5,3)            92.1099         estimate D2E/DX2                !
 ! D44   D(13,4,5,14)          -30.4917         estimate D2E/DX2                !
 ! D45   D(13,4,5,15)         -148.8126         estimate D2E/DX2                !
 --------------------------------------------------------------------------------
 Trust Radius=3.00D-01 FncErr=1.00D-07 GrdErr=1.00D-07
 Number of steps in this run=    100 maximum allowed number of steps=    100.
 GradGradGradGradGradGradGradGradGradGradGradGradGradGradGradGradGradGrad

                          Input orientation:                          
 ---------------------------------------------------------------------
 Center     Atomic      Atomic             Coordinates (Angstroms)
 Number     Number       Type             X           Y           Z
 ---------------------------------------------------------------------
      1          6           0        1.192200    2.995900    1.042300
      2          6           0        2.725500    3.029800    0.930500
      3          6           0        0.846200    1.488200    1.129300
      4          6           0        3.165600    1.915700    1.894400
      5          6           0        2.131300    0.786300    1.668200
      6          1           0        0.884600    3.506800    1.964300
      7          1           0        0.686200    3.500100    0.211600
      8          1           0        3.033800    2.782600   -0.095100
      9          1           0        3.155200    4.008100    1.174300
     10          1           0       -0.023700    1.308800    1.770100
     11          1           0        0.589100    1.098600    0.137600
     12          1           0        4.197700    1.585100    1.733000
     13          1           0        3.102600    2.283600    2.927300
     14          1           0        1.941900    0.218400    2.585300
     15          1           0        2.509100    0.070100    0.929200
 ---------------------------------------------------------------------
                    Distance matrix (angstroms):
                    1          2          3          4          5
     1  C    0.000000
     2  C    1.537744   0.000000
     3  C    1.549337   2.438815   0.000000
     4  C    2.405663   1.537534   2.479466   0.000000
     5  C    2.481127   2.435276   1.560307   1.548059   0.000000
     6  H    1.098053   2.164529   2.184822   2.781986   3.007167
     7  H    1.095589   2.212859   2.217096   3.389626   3.402162
     8  H    2.175009   1.099096   2.821386   2.174166   2.812285
     9  H    2.212542   1.095971   3.418099   2.212869   3.416475
    10  H    2.203273   3.350354   1.095233   3.248909   2.219778
    11  H    2.186769   2.987043   1.096065   3.223717   2.195142
    12  H    3.391232   2.213264   3.406816   1.095708   2.216369
    13  H    2.776729   2.164770   2.992792   1.098272   2.184185
    14  H    3.264568   3.355050   2.221010   2.203545   1.095196
    15  H    3.210502   2.967601   2.194603   2.183768   1.096265
                    6          7          8          9         10
     6  H    0.000000
     7  H    1.763906   0.000000
     8  H    3.063438   2.473883   0.000000
     9  H    2.455815   2.698299   1.768605   0.000000
    10  H    2.386195   2.781129   3.872901   4.212672   0.000000
    11  H    3.037035   2.404601   2.977678   4.015570   1.756350
    12  H    3.837064   4.279312   2.476009   2.696272   4.230595
    13  H    2.709818   3.833261   3.064088   2.459609   3.473197
    14  H    3.509572   4.240376   3.866770   4.221948   2.391047
    15  H    3.939713   3.950040   2.946550   3.998170   2.942204
                   11         12         13         14         15
    11  H    0.000000
    12  H    3.975422   0.000000
    13  H    3.937554   1.764511   0.000000
    14  H    2.931903   2.771808   2.393583   0.000000
    15  H    2.317508   2.406801   3.040432   1.756808   0.000000
 Stoichiometry    C5H10
 Framework group  C1[X(C5H10)]
 Deg. of freedom    39
 Full point group                 C1      NOp   1
 Largest Abelian subgroup         C1      NOp   1
 Largest concise Abelian subgroup C1      NOp   1
                         Standard orientation:                         
 ---------------------------------------------------------------------
 Center     Atomic      Atomic             Coordinates (Angstroms)
 Number     Number       Type             X           Y           Z
 ---------------------------------------------------------------------
      1          6           0       -1.138730   -0.574218   -0.199094
      2          6           0        0.164498   -1.245931    0.264648
      3          6           0       -0.908886    0.934917    0.065722
      4          6           0        1.246350   -0.260292   -0.206649
      5          6           0        0.638478    1.135250    0.075207
      6          1           0       -1.275295   -0.751521   -1.274098
      7          1           0       -2.029777   -0.962783    0.306247
      8          1           0        0.178790   -1.323321    1.360923
      9          1           0        0.295921   -2.257422   -0.136308
     10          1           0       -1.402840    1.557937   -0.687530
     11          1           0       -1.333992    1.220626    1.034749
     12          1           0        2.213595   -0.409700    0.285988
     13          1           0        1.410224   -0.389604   -1.284900
     14          1           0        0.966538    1.877919   -0.659826
     15          1           0        0.966578    1.499517    1.055746
 ---------------------------------------------------------------------
 Rotational constants (GHZ):      6.4567654      6.4563597      3.7244690
 Standard basis: VSTO-6G (5D, 7F)
 There are    30 symmetry adapted cartesian basis functions of A   symmetry.
 There are    30 symmetry adapted basis functions of A   symmetry.
    30 basis functions,   180 primitive gaussians,    30 cartesian basis functions
    15 alpha electrons       15 beta electrons
       nuclear repulsion energy       119.0966708026 Hartrees.
 Integral buffers will be    131072 words long.
 Regular integral format.
 Two-electron integral symmetry is turned off.
 Do NDO integrals.
 One-electron integrals computed using PRISM.
 NBasis=    30 RedAO= F EigKep=  0.00D+00  NBF=    30
 NBsUse=    30 1.00D-04 EigRej=  0.00D+00 NBFU=    30
 Simple Huckel Guess.
 Overlap will be assumed to be unity.
 Keep J ints in memory in canonical form, NReq=892960.
 Requested convergence on RMS density matrix=1.00D-08 within 128 cycles.
 Requested convergence on MAX density matrix=1.00D-06.
 Requested convergence on             energy=1.00D-06.
 No special actions if energy rises.
 SCF Done:  E(RAM1) = -0.383081243408E-01 A.U. after   11 cycles
            NFock= 10  Conv=0.27D-08     -V/T= 0.9980

 **********************************************************************

            Population analysis using the SCF density.

 **********************************************************************

 Orbital symmetries:
       Occupied  (A) (A) (A) (A) (A) (A) (A) (A) (A) (A) (A) (A)
                 (A) (A) (A)
       Virtual   (A) (A) (A) (A) (A) (A) (A) (A) (A) (A) (A) (A)
                 (A) (A) (A)
 The electronic state is 1-A.
 Alpha  occ. eigenvalues --   -1.41085  -1.07966  -1.07896  -0.78844  -0.77732
 Alpha  occ. eigenvalues --   -0.60735  -0.59724  -0.51677  -0.51526  -0.44552
 Alpha  occ. eigenvalues --   -0.44496  -0.44371  -0.44272  -0.41667  -0.41144
 Alpha virt. eigenvalues --    0.13873   0.14032   0.14076   0.16295   0.16370
 Alpha virt. eigenvalues --    0.17213   0.17452   0.17651   0.17916   0.18927
 Alpha virt. eigenvalues --    0.18985   0.19466   0.19475   0.19816   0.19907
          Condensed to atoms (all electrons):
               1          2          3          4          5          6
     1  C    4.158921   0.000000   0.000000   0.000000   0.000000   0.000000
     2  C    0.000000   4.159160   0.000000   0.000000   0.000000   0.000000
     3  C    0.000000   0.000000   4.157685   0.000000   0.000000   0.000000
     4  C    0.000000   0.000000   0.000000   4.159018   0.000000   0.000000
     5  C    0.000000   0.000000   0.000000   0.000000   4.157769   0.000000
     6  H    0.000000   0.000000   0.000000   0.000000   0.000000   0.923252
     7  H    0.000000   0.000000   0.000000   0.000000   0.000000   0.000000
     8  H    0.000000   0.000000   0.000000   0.000000   0.000000   0.000000
     9  H    0.000000   0.000000   0.000000   0.000000   0.000000   0.000000
    10  H    0.000000   0.000000   0.000000   0.000000   0.000000   0.000000
    11  H    0.000000   0.000000   0.000000   0.000000   0.000000   0.000000
    12  H    0.000000   0.000000   0.000000   0.000000   0.000000   0.000000
    13  H    0.000000   0.000000   0.000000   0.000000   0.000000   0.000000
    14  H    0.000000   0.000000   0.000000   0.000000   0.000000   0.000000
    15  H    0.000000   0.000000   0.000000   0.000000   0.000000   0.000000
               7          8          9         10         11         12
     1  C    0.000000   0.000000   0.000000   0.000000   0.000000   0.000000
     2  C    0.000000   0.000000   0.000000   0.000000   0.000000   0.000000
     3  C    0.000000   0.000000   0.000000   0.000000   0.000000   0.000000
     4  C    0.000000   0.000000   0.000000   0.000000   0.000000   0.000000
     5  C    0.000000   0.000000   0.000000   0.000000   0.000000   0.000000
     6  H    0.000000   0.000000   0.000000   0.000000   0.000000   0.000000
     7  H    0.917651   0.000000   0.000000   0.000000   0.000000   0.000000
     8  H    0.000000   0.921595   0.000000   0.000000   0.000000   0.000000
     9  H    0.000000   0.000000   0.916946   0.000000   0.000000   0.000000
    10  H    0.000000   0.000000   0.000000   0.920252   0.000000   0.000000
    11  H    0.000000   0.000000   0.000000   0.000000   0.923466   0.000000
    12  H    0.000000   0.000000   0.000000   0.000000   0.000000   0.917560
    13  H    0.000000   0.000000   0.000000   0.000000   0.000000   0.000000
    14  H    0.000000   0.000000   0.000000   0.000000   0.000000   0.000000
    15  H    0.000000   0.000000   0.000000   0.000000   0.000000   0.000000
              13         14         15
     1  C    0.000000   0.000000   0.000000
     2  C    0.000000   0.000000   0.000000
     3  C    0.000000   0.000000   0.000000
     4  C    0.000000   0.000000   0.000000
     5  C    0.000000   0.000000   0.000000
     6  H    0.000000   0.000000   0.000000
     7  H    0.000000   0.000000   0.000000
     8  H    0.000000   0.000000   0.000000
     9  H    0.000000   0.000000   0.000000
    10  H    0.000000   0.000000   0.000000
    11  H    0.000000   0.000000   0.000000
    12  H    0.000000   0.000000   0.000000
    13  H    0.923112   0.000000   0.000000
    14  H    0.000000   0.920002   0.000000
    15  H    0.000000   0.000000   0.923611
 Mulliken charges:
               1
     1  C   -0.158921
     2  C   -0.159160
     3  C   -0.157685
     4  C   -0.159018
     5  C   -0.157769
     6  H    0.076748
     7  H    0.082349
     8  H    0.078405
     9  H    0.083054
    10  H    0.079748
    11  H    0.076534
    12  H    0.082440
    13  H    0.076888
    14  H    0.079998
    15  H    0.076389
 Sum of Mulliken charges =   0.00000
 Mulliken charges with hydrogens summed into heavy atoms:
               1
     1  C    0.000175
     2  C    0.002300
     3  C   -0.001403
     4  C    0.000310
     5  C   -0.001382
 Charge=              0.0000 electrons
 Dipole moment (field-independent basis, Debye):
    X=              0.0005    Y=             -0.0028    Z=              0.0003  Tot=              0.0028
 N-N= 1.190966708026D+02 E-N=-1.993102627698D+02  KE=-1.900596798857D+01
 Calling FoFJK, ICntrl=      2127 FMM=F ISym2X=0 I1Cent= 0 IOpClX= 0 NMat=1 NMatS=1 NMatT=0.
 ***** Axes restored to original set *****
 -------------------------------------------------------------------
 Center     Atomic                   Forces (Hartrees/Bohr)
 Number     Number              X              Y              Z
 -------------------------------------------------------------------
      1        6           0.013901111   -0.023957234   -0.000804123
      2        6          -0.013798341   -0.014271644    0.013562760
      3        6           0.030616178    0.011893657    0.009347658
      4        6          -0.021413853   -0.004002157   -0.016243212
      5        6          -0.007836690    0.032229568   -0.006298390
      6        1          -0.004171470    0.005508565    0.012523341
      7        1          -0.003785790    0.002782864   -0.012170328
      8        1           0.003432602   -0.003504431   -0.012493262
      9        1           0.003034831    0.010546458    0.006370050
     10        1          -0.008124264   -0.000904663    0.011100675
     11        1          -0.000961320   -0.004647973   -0.013705775
     12        1           0.010436457   -0.004864609   -0.005936442
     13        1          -0.001837489    0.004112101    0.013428315
     14        1          -0.004210785   -0.003260139    0.012678995
     15        1           0.004718822   -0.007660363   -0.011360263
 -------------------------------------------------------------------
 Cartesian Forces:  Max     0.032229568 RMS     0.011807903

 GradGradGradGradGradGradGradGradGradGradGradGradGradGradGradGradGradGrad
 Berny optimization.
 FormGI is forming the generalized inverse of G from B-inverse, IUseBI=4.
 Internal  Forces:  Max     0.020342355 RMS     0.005772814
 Search for a local minimum.
 Step number   1 out of a maximum of  100
 All quantities printed in internal units (Hartrees-Bohrs-Radians)
 Mixed Optimization -- RFO/linear search
 Second derivative matrix not updated -- first step.
 ITU=  0
     Eigenvalues ---    0.00259   0.00442   0.01955   0.01966   0.04052
     Eigenvalues ---    0.04108   0.04257   0.04769   0.05047   0.05153
     Eigenvalues ---    0.05474   0.05591   0.06110   0.06750   0.06938
     Eigenvalues ---    0.06970   0.07188   0.07195   0.08720   0.08747
     Eigenvalues ---    0.11081   0.11293   0.20192   0.20571   0.25766
     Eigenvalues ---    0.26175   0.27543   0.27635   0.28156   0.33782
     Eigenvalues ---    0.33874   0.33898   0.34099   0.34121   0.34132
     Eigenvalues ---    0.34161   0.34175   0.34215   0.34219
 RFO step:  Lambda=-1.07462961D-02 EMin= 2.58851368D-03
 Linear search not attempted -- first point.
 Iteration  1 RMS(Cart)=  0.03162851 RMS(Int)=  0.00066033
 Iteration  2 RMS(Cart)=  0.00059788 RMS(Int)=  0.00008503
 Iteration  3 RMS(Cart)=  0.00000023 RMS(Int)=  0.00008503
 Variable       Old X    -DE/DX   Delta X   Delta X   Delta X     New X
                                 (Linear)    (Quad)   (Total)
    R1        2.90592  -0.01070   0.00000  -0.03431  -0.03441   2.87151
    R2        2.92782  -0.01609   0.00000  -0.05660  -0.05656   2.87127
    R3        2.07502   0.01425   0.00000   0.04074   0.04074   2.11576
    R4        2.07036   0.01226   0.00000   0.03477   0.03477   2.10514
    R5        2.90552  -0.01058   0.00000  -0.03380  -0.03390   2.87161
    R6        2.07699   0.01341   0.00000   0.03847   0.03847   2.11546
    R7        2.07108   0.01202   0.00000   0.03414   0.03414   2.10523
    R8        2.94855  -0.02034   0.00000  -0.07524  -0.07511   2.87344
    R9        2.06969   0.01310   0.00000   0.03711   0.03711   2.10680
   R10        2.07126   0.01428   0.00000   0.04057   0.04057   2.11183
   R11        2.92541  -0.01553   0.00000  -0.05426  -0.05423   2.87118
   R12        2.07059   0.01217   0.00000   0.03455   0.03455   2.10514
   R13        2.07543   0.01411   0.00000   0.04038   0.04038   2.11581
   R14        2.06962   0.01304   0.00000   0.03694   0.03694   2.10656
   R15        2.07164   0.01429   0.00000   0.04062   0.04062   2.11226
    A1        1.82163  -0.00085   0.00000   0.00388   0.00361   1.82524
    A2        1.90722   0.00072   0.00000   0.00471   0.00476   1.91197
    A3        1.97713  -0.00046   0.00000  -0.01127  -0.01118   1.96595
    A4        1.92097  -0.00093   0.00000  -0.00952  -0.00945   1.91152
    A5        1.96847   0.00016   0.00000  -0.01000  -0.00997   1.95851
    A6        1.86832   0.00130   0.00000   0.02142   0.02140   1.88971
    A7        1.79657  -0.00126   0.00000   0.00497   0.00448   1.80105
    A8        1.92045  -0.00025   0.00000  -0.00510  -0.00496   1.91550
    A9        1.97626   0.00029   0.00000  -0.00724  -0.00710   1.96916
   A10        1.91955  -0.00016   0.00000  -0.00443  -0.00430   1.91526
   A11        1.97700   0.00023   0.00000  -0.00755  -0.00740   1.96960
   A12        1.87377   0.00104   0.00000   0.01809   0.01802   1.89179
   A13        1.84754   0.00189   0.00000   0.01120   0.01120   1.85873
   A14        1.94941  -0.00112   0.00000  -0.01129  -0.01128   1.93813
   A15        1.92568  -0.00046   0.00000  -0.00211  -0.00207   1.92361
   A16        1.95887  -0.00125   0.00000  -0.01468  -0.01464   1.94423
   A17        1.92387  -0.00133   0.00000  -0.01079  -0.01082   1.91305
   A18        1.85964   0.00217   0.00000   0.02670   0.02670   1.88634
   A19        1.81913  -0.00096   0.00000   0.00374   0.00344   1.82258
   A20        1.97785  -0.00041   0.00000  -0.01105  -0.01095   1.96690
   A21        1.90758   0.00071   0.00000   0.00434   0.00439   1.91196
   A22        1.96892   0.00023   0.00000  -0.00952  -0.00948   1.95944
   A23        1.92142  -0.00089   0.00000  -0.00938  -0.00930   1.91212
   A24        1.86883   0.00126   0.00000   0.02105   0.02102   1.88985
   A25        1.84685   0.00168   0.00000   0.01055   0.01054   1.85738
   A26        1.96064  -0.00122   0.00000  -0.01520  -0.01516   1.94548
   A27        1.92293  -0.00131   0.00000  -0.01084  -0.01088   1.91206
   A28        1.95141  -0.00104   0.00000  -0.01099  -0.01098   1.94043
   A29        1.92290  -0.00032   0.00000  -0.00082  -0.00078   1.92212
   A30        1.86014   0.00211   0.00000   0.02642   0.02642   1.88655
    D1       -0.68361   0.00115   0.00000   0.04035   0.04037  -0.64324
    D2        1.36176   0.00019   0.00000   0.03558   0.03556   1.39732
    D3       -2.82458   0.00155   0.00000   0.05025   0.05031  -2.77427
    D4        1.37058  -0.00003   0.00000   0.03358   0.03356   1.40414
    D5       -2.86723  -0.00099   0.00000   0.02882   0.02876  -2.83848
    D6       -0.77039   0.00036   0.00000   0.04348   0.04350  -0.72689
    D7       -2.83137   0.00180   0.00000   0.05667   0.05667  -2.77470
    D8       -0.78599   0.00084   0.00000   0.05190   0.05186  -0.73413
    D9        1.31085   0.00220   0.00000   0.06656   0.06661   1.37746
   D10        0.41158  -0.00004   0.00000  -0.02163  -0.02174   0.38984
   D11        2.54848  -0.00101   0.00000  -0.03900  -0.03907   2.50941
   D12       -1.66970   0.00069   0.00000  -0.01418  -0.01425  -1.68395
   D13       -1.63313   0.00002   0.00000  -0.02470  -0.02472  -1.65786
   D14        0.50376  -0.00094   0.00000  -0.04208  -0.04205   0.46171
   D15        2.56877   0.00076   0.00000  -0.01725  -0.01723   2.55153
   D16        2.56496  -0.00109   0.00000  -0.03873  -0.03880   2.52616
   D17       -1.58133  -0.00206   0.00000  -0.05611  -0.05612  -1.63745
   D18        0.48367  -0.00036   0.00000  -0.03129  -0.03130   0.45237
   D19        0.69321  -0.00123   0.00000  -0.04116  -0.04117   0.65204
   D20        2.84025  -0.00183   0.00000  -0.05682  -0.05682   2.78343
   D21       -1.36034  -0.00002   0.00000  -0.03431  -0.03428  -1.39463
   D22       -1.35280  -0.00021   0.00000  -0.03592  -0.03590  -1.38870
   D23        0.79423  -0.00081   0.00000  -0.05158  -0.05154   0.74269
   D24        2.87683   0.00100   0.00000  -0.02907  -0.02900   2.84782
   D25        2.83368  -0.00158   0.00000  -0.05085  -0.05091   2.78277
   D26       -1.30247  -0.00219   0.00000  -0.06651  -0.06656  -1.36903
   D27        0.78013  -0.00037   0.00000  -0.04400  -0.04402   0.73611
   D28        0.01526   0.00001   0.00000  -0.00077  -0.00077   0.01449
   D29        2.14917  -0.00088   0.00000  -0.01635  -0.01633   2.13285
   D30       -2.06301   0.00011   0.00000  -0.00015  -0.00011  -2.06312
   D31       -2.11559   0.00088   0.00000   0.01443   0.01440  -2.10119
   D32        0.01833  -0.00001   0.00000  -0.00116  -0.00116   0.01717
   D33        2.08933   0.00099   0.00000   0.01504   0.01506   2.10439
   D34        2.09773  -0.00015   0.00000  -0.00251  -0.00256   2.09518
   D35       -2.05154  -0.00104   0.00000  -0.01810  -0.01811  -2.06965
   D36        0.01946  -0.00005   0.00000  -0.00190  -0.00189   0.01757
   D37       -0.43637   0.00009   0.00000   0.02313   0.02324  -0.41313
   D38       -2.57617   0.00110   0.00000   0.04140   0.04146  -2.53471
   D39        1.64192  -0.00067   0.00000   0.01590   0.01596   1.65788
   D40       -2.58922   0.00111   0.00000   0.03974   0.03981  -2.54941
   D41        1.55417   0.00212   0.00000   0.05802   0.05803   1.61220
   D42       -0.51092   0.00035   0.00000   0.03251   0.03253  -0.47839
   D43        1.60762  -0.00003   0.00000   0.02578   0.02580   1.63342
   D44       -0.53218   0.00098   0.00000   0.04405   0.04402  -0.48816
   D45       -2.59727  -0.00079   0.00000   0.01855   0.01852  -2.57875
         Item               Value     Threshold  Converged?
 Maximum Force            0.020342     0.000450     NO 
 RMS     Force            0.005773     0.000300     NO 
 Maximum Displacement     0.118743     0.001800     NO 
 RMS     Displacement     0.031841     0.001200     NO 
 Predicted change in Energy=-5.891242D-03
 GradGradGradGradGradGradGradGradGradGradGradGradGradGradGradGradGradGrad

                          Input orientation:                          
 ---------------------------------------------------------------------
 Center     Atomic      Atomic             Coordinates (Angstroms)
 Number     Number       Type             X           Y           Z
 ---------------------------------------------------------------------
      1          6           0        1.200244    2.977356    1.034962
      2          6           0        2.716455    3.027171    0.947690
      3          6           0        0.871548    1.497559    1.138711
      4          6           0        3.154340    1.908403    1.878160
      5          6           0        2.123387    0.812995    1.664425
      6          1           0        0.861044    3.501993    1.964062
      7          1           0        0.704363    3.458684    0.161234
      8          1           0        3.042870    2.798379   -0.098390
      9          1           0        3.133634    4.018768    1.237136
     10          1           0        0.000838    1.327201    1.813824
     11          1           0        0.614773    1.087480    0.131348
     12          1           0        4.191401    1.558277    1.671064
     13          1           0        3.108961    2.263987    2.938865
     14          1           0        1.919593    0.261419    2.611463
     15          1           0        2.493850    0.078429    0.907746
 ---------------------------------------------------------------------
                    Distance matrix (angstroms):
                    1          2          3          4          5
     1  C    0.000000
     2  C    1.519537   0.000000
     3  C    1.519409   2.404139   0.000000
     4  C    2.381624   1.519593   2.434484   0.000000
     5  C    2.435750   2.401670   1.520560   1.519363   0.000000
     6  H    1.119610   2.168183   2.167734   2.793942   2.985633
     7  H    1.113990   2.203004   2.197594   3.369509   3.357511
     8  H    2.170666   1.119453   2.817301   2.170537   2.809754
     9  H    2.205315   1.114039   3.388689   2.205671   3.388239
    10  H    2.183624   3.318835   1.114870   3.207259   2.189050
    11  H    2.175069   2.974202   1.117532   3.189775   2.168313
    12  H    3.371266   2.203721   3.362813   1.113990   2.198220
    13  H    2.788717   2.168246   2.972201   1.119640   2.168163
    14  H    3.221666   3.324533   2.189849   2.185152   1.114742
    15  H    3.177008   2.957403   2.167750   2.174110   1.117762
                    6          7          8          9         10
     6  H    0.000000
     7  H    1.810142   0.000000
     8  H    3.083690   2.443772   0.000000
     9  H    2.441341   2.715256   1.811413   0.000000
    10  H    2.343554   2.787332   3.882639   4.170314   0.000000
    11  H    3.041276   2.373084   2.979196   4.019935   1.806961
    12  H    3.867189   4.248596   2.447028   2.713150   4.199356
    13  H    2.745183   3.863240   3.084616   2.444534   3.435653
    14  H    3.470010   4.207482   3.878301   4.180950   2.335324
    15  H    3.937340   3.896879   2.951586   4.005509   2.931811
                   11         12         13         14         15
    11  H    0.000000
    12  H    3.922326   0.000000
    13  H    3.935390   1.810254   0.000000
    14  H    2.921627   2.779802   2.352034   0.000000
    15  H    2.269782   2.377874   3.046386   1.807182   0.000000
 Stoichiometry    C5H10
 Framework group  C1[X(C5H10)]
 Deg. of freedom    39
 Full point group                 C1      NOp   1
 Largest Abelian subgroup         C1      NOp   1
 Largest concise Abelian subgroup C1      NOp   1
                         Standard orientation:                         
 ---------------------------------------------------------------------
 Center     Atomic      Atomic             Coordinates (Angstroms)
 Number     Number       Type             X           Y           Z
 ---------------------------------------------------------------------
      1          6           0       -0.008918   -1.259594   -0.186527
      2          6           0        1.177085   -0.412550    0.243481
      3          6           0       -1.220037   -0.376813    0.063454
      4          6           0        0.779729    0.987654   -0.193209
      5          6           0       -0.714597    1.057255    0.072515
      6          1           0        0.069510   -1.486265   -1.280144
      7          1           0       -0.069736   -2.224587    0.366703
      8          1           0        1.281509   -0.445722    1.357558
      9          1           0        2.136829   -0.751021   -0.209744
     10          1           0       -1.995929   -0.529639   -0.722403
     11          1           0       -1.677064   -0.619671    1.053921
     12          1           0        1.342182    1.782494    0.347947
     13          1           0        0.971315    1.106549   -1.289910
     14          1           0       -1.231901    1.677013   -0.696215
     15          1           0       -0.906294    1.515140    1.074007
 ---------------------------------------------------------------------
 Rotational constants (GHZ):      6.5965300      6.5955008      3.8201521
 Standard basis: VSTO-6G (5D, 7F)
 There are    30 symmetry adapted cartesian basis functions of A   symmetry.
 There are    30 symmetry adapted basis functions of A   symmetry.
    30 basis functions,   180 primitive gaussians,    30 cartesian basis functions
    15 alpha electrons       15 beta electrons
       nuclear repulsion energy       119.5605111492 Hartrees.
 Integral buffers will be    131072 words long.
 Regular integral format.
 Two-electron integral symmetry is turned off.
 Do NDO integrals.
 One-electron integrals computed using PRISM.
 NBasis=    30 RedAO= F EigKep=  0.00D+00  NBF=    30
 NBsUse=    30 1.00D-04 EigRej=  0.00D+00 NBFU=    30
 Initial guess from the checkpoint file:  "cyclopentane-opt.chk"
 B after Tr=    -0.000000    0.000000    0.000000
         Rot=    0.851826   -0.001351   -0.000960   -0.523822 Ang= -63.18 deg.
 Overlap will be assumed to be unity.
 Keep J ints in memory in canonical form, NReq=892960.
 Requested convergence on RMS density matrix=1.00D-08 within 128 cycles.
 Requested convergence on MAX density matrix=1.00D-06.
 Requested convergence on             energy=1.00D-06.
 No special actions if energy rises.
 SCF Done:  E(RAM1) = -0.431507153177E-01 A.U. after   10 cycles
            NFock=  9  Conv=0.33D-08     -V/T= 0.9977
 Calling FoFJK, ICntrl=      2127 FMM=F ISym2X=0 I1Cent= 0 IOpClX= 0 NMat=1 NMatS=1 NMatT=0.
 ***** Axes restored to original set *****
 -------------------------------------------------------------------
 Center     Atomic                   Forces (Hartrees/Bohr)
 Number     Number              X              Y              Z
 -------------------------------------------------------------------
      1        6          -0.003932765    0.005284409   -0.001636085
      2        6           0.003396893    0.005210685   -0.001218890
      3        6          -0.006674080   -0.002968799   -0.001479732
      4        6           0.006164258   -0.000293569    0.002667308
      5        6           0.001082882   -0.007151124    0.001728135
      6        1          -0.000898885    0.001755241   -0.000650027
      7        1           0.000227615    0.000216792   -0.000986597
      8        1           0.001034615    0.001555667   -0.000411334
      9        1          -0.000305686    0.000154267    0.000947743
     10        1          -0.001509248   -0.000450129    0.000543338
     11        1          -0.002023830   -0.000331144   -0.000858438
     12        1           0.000584330   -0.000026206   -0.000833466
     13        1           0.001957230    0.000129613    0.000589143
     14        1          -0.000077558   -0.001130207    0.001138009
     15        1           0.000974230   -0.001955496    0.000460894
 -------------------------------------------------------------------
 Cartesian Forces:  Max     0.007151124 RMS     0.002462427

 GradGradGradGradGradGradGradGradGradGradGradGradGradGradGradGradGradGrad
 Berny optimization.
 Using GEDIIS/GDIIS optimizer.
 FormGI is forming the generalized inverse of G from B-inverse, IUseBI=4.
 Internal  Forces:  Max     0.010017249 RMS     0.002009494
 Search for a local minimum.
 Step number   2 out of a maximum of  100
 All quantities printed in internal units (Hartrees-Bohrs-Radians)
 Mixed Optimization -- RFO/linear search
 Update second derivatives using D2CorX and points    1    2
 DE= -4.84D-03 DEPred=-5.89D-03 R= 8.22D-01
 TightC=F SS=  1.41D+00  RLast= 3.09D-01 DXNew= 5.0454D-01 9.2766D-01
 Trust test= 8.22D-01 RLast= 3.09D-01 DXMaxT set to 5.05D-01
 ITU=  1  0
 Use linear search instead of GDIIS.
     Eigenvalues ---    0.00255   0.00399   0.01979   0.01980   0.04090
     Eigenvalues ---    0.04157   0.04369   0.04816   0.05066   0.05162
     Eigenvalues ---    0.05538   0.05595   0.06123   0.06752   0.06937
     Eigenvalues ---    0.06960   0.07231   0.07249   0.08747   0.08749
     Eigenvalues ---    0.11075   0.11299   0.20411   0.20752   0.26184
     Eigenvalues ---    0.26223   0.27617   0.27669   0.28727   0.33800
     Eigenvalues ---    0.33884   0.33942   0.34106   0.34115   0.34148
     Eigenvalues ---    0.34168   0.34184   0.34217   0.40861
 RFO step:  Lambda=-2.79576542D-03 EMin= 2.55461909D-03
 Quartic linear search produced a step of -0.09549.
 Iteration  1 RMS(Cart)=  0.05708677 RMS(Int)=  0.00162511
 Iteration  2 RMS(Cart)=  0.00192891 RMS(Int)=  0.00048667
 Iteration  3 RMS(Cart)=  0.00000104 RMS(Int)=  0.00048667
 Iteration  4 RMS(Cart)=  0.00000000 RMS(Int)=  0.00048667
 Variable       Old X    -DE/DX   Delta X   Delta X   Delta X     New X
                                 (Linear)    (Quad)   (Total)
    R1        2.87151   0.00651   0.00329   0.01403   0.01696   2.88847
    R2        2.87127   0.00859   0.00540   0.01265   0.01821   2.88947
    R3        2.11576   0.00056  -0.00389   0.01085   0.00696   2.12272
    R4        2.10514   0.00077  -0.00332   0.00999   0.00667   2.11181
    R5        2.87161   0.00644   0.00324   0.01410   0.01696   2.88857
    R6        2.11546   0.00037  -0.00367   0.00985   0.00618   2.12164
    R7        2.10523   0.00027  -0.00326   0.00859   0.00533   2.11056
    R8        2.87344   0.01002   0.00717   0.01154   0.01918   2.89262
    R9        2.10680   0.00158  -0.00354   0.01259   0.00904   2.11584
   R10        2.11183   0.00136  -0.00387   0.01285   0.00898   2.12081
   R11        2.87118   0.00840   0.00518   0.01275   0.01804   2.88922
   R12        2.10514   0.00071  -0.00330   0.00979   0.00649   2.11163
   R13        2.11581   0.00052  -0.00386   0.01068   0.00682   2.12264
   R14        2.10656   0.00154  -0.00353   0.01245   0.00893   2.11548
   R15        2.11226   0.00130  -0.00388   0.01270   0.00882   2.12109
    A1        1.82524   0.00055  -0.00034   0.02028   0.01814   1.84338
    A2        1.91197  -0.00041  -0.00045  -0.00187  -0.00196   1.91002
    A3        1.96595  -0.00018   0.00107  -0.00996  -0.00833   1.95762
    A4        1.91152  -0.00002   0.00090  -0.00153  -0.00027   1.91125
    A5        1.95851   0.00036   0.00095  -0.00237  -0.00072   1.95779
    A6        1.88971  -0.00030  -0.00204  -0.00397  -0.00635   1.88336
    A7        1.80105   0.00097  -0.00043   0.02934   0.02660   1.82765
    A8        1.91550  -0.00033   0.00047  -0.00578  -0.00483   1.91067
    A9        1.96916  -0.00009   0.00068  -0.00618  -0.00472   1.96444
   A10        1.91526  -0.00034   0.00041  -0.00559  -0.00469   1.91057
   A11        1.96960  -0.00010   0.00071  -0.00654  -0.00507   1.96453
   A12        1.89179  -0.00010  -0.00172  -0.00444  -0.00663   1.88516
   A13        1.85873  -0.00056  -0.00107   0.00996   0.00787   1.86661
   A14        1.93813   0.00009   0.00108  -0.00502  -0.00365   1.93448
   A15        1.92361   0.00015   0.00020  -0.00112  -0.00068   1.92293
   A16        1.94423   0.00072   0.00140  -0.00209  -0.00033   1.94390
   A17        1.91305   0.00032   0.00103   0.00226   0.00352   1.91658
   A18        1.88634  -0.00069  -0.00255  -0.00381  -0.00653   1.87981
   A19        1.82258   0.00062  -0.00033   0.02124   0.01907   1.84164
   A20        1.96690  -0.00018   0.00105  -0.00988  -0.00826   1.95864
   A21        1.91196  -0.00042  -0.00042  -0.00204  -0.00208   1.90989
   A22        1.95944   0.00030   0.00091  -0.00261  -0.00098   1.95846
   A23        1.91212  -0.00005   0.00089  -0.00215  -0.00090   1.91123
   A24        1.88985  -0.00027  -0.00201  -0.00396  -0.00633   1.88352
   A25        1.85738  -0.00051  -0.00101   0.01027   0.00821   1.86559
   A26        1.94548   0.00072   0.00145  -0.00220  -0.00038   1.94510
   A27        1.91206   0.00032   0.00104   0.00248   0.00375   1.91581
   A28        1.94043   0.00007   0.00105  -0.00552  -0.00416   1.93627
   A29        1.92212   0.00009   0.00007  -0.00101  -0.00069   1.92143
   A30        1.88655  -0.00068  -0.00252  -0.00380  -0.00651   1.88005
    D1       -0.64324   0.00104  -0.00385   0.10721   0.10362  -0.53962
    D2        1.39732   0.00101  -0.00340   0.11351   0.11000   1.50732
    D3       -2.77427   0.00058  -0.00480   0.09960   0.09510  -2.67917
    D4        1.40414   0.00112  -0.00320   0.11537   0.11214   1.51628
    D5       -2.83848   0.00108  -0.00275   0.12166   0.11852  -2.71996
    D6       -0.72689   0.00066  -0.00415   0.10776   0.10362  -0.62327
    D7       -2.77470   0.00034  -0.00541   0.10248   0.09739  -2.67731
    D8       -0.73413   0.00031  -0.00495   0.10877   0.10377  -0.63036
    D9        1.37746  -0.00012  -0.00636   0.09487   0.08887   1.46633
   D10        0.38984  -0.00089   0.00208  -0.06520  -0.06327   0.32657
   D11        2.50941  -0.00032   0.00373  -0.06438  -0.06083   2.44858
   D12       -1.68395  -0.00103   0.00136  -0.07310  -0.07174  -1.75570
   D13       -1.65786  -0.00070   0.00236  -0.07311  -0.07065  -1.72851
   D14        0.46171  -0.00013   0.00401  -0.07229  -0.06821   0.39351
   D15        2.55153  -0.00084   0.00165  -0.08102  -0.07912   2.47241
   D16        2.52616  -0.00054   0.00370  -0.06554  -0.06201   2.46415
   D17       -1.63745   0.00003   0.00536  -0.06472  -0.05957  -1.69702
   D18        0.45237  -0.00068   0.00299  -0.07344  -0.07049   0.38188
   D19        0.65204  -0.00103   0.00393  -0.10864  -0.10498   0.54706
   D20        2.78343  -0.00035   0.00543  -0.10350  -0.09841   2.68502
   D21       -1.39463  -0.00110   0.00327  -0.11648  -0.11318  -1.50781
   D22       -1.38870  -0.00100   0.00343  -0.11479  -0.11126  -1.49995
   D23        0.74269  -0.00032   0.00492  -0.10965  -0.10468   0.63800
   D24        2.84782  -0.00107   0.00277  -0.12263  -0.11946   2.72836
   D25        2.78277  -0.00056   0.00486  -0.10077  -0.09622   2.68655
   D26       -1.36903   0.00011   0.00636  -0.09564  -0.08965  -1.45867
   D27        0.73611  -0.00064   0.00420  -0.10861  -0.10442   0.63168
   D28        0.01449  -0.00004   0.00007  -0.00244  -0.00237   0.01212
   D29        2.13285   0.00014   0.00156  -0.00390  -0.00242   2.13043
   D30       -2.06312  -0.00003   0.00001  -0.00842  -0.00832  -2.07144
   D31       -2.10119  -0.00021  -0.00137  -0.00144  -0.00275  -2.10394
   D32        0.01717  -0.00003   0.00011  -0.00290  -0.00280   0.01437
   D33        2.10439  -0.00021  -0.00144  -0.00741  -0.00870   2.09569
   D34        2.09518  -0.00001   0.00024   0.00315   0.00331   2.09848
   D35       -2.06965   0.00017   0.00173   0.00169   0.00326  -2.06639
   D36        0.01757  -0.00000   0.00018  -0.00282  -0.00264   0.01493
   D37       -0.41313   0.00092  -0.00222   0.06911   0.06704  -0.34609
   D38       -2.53471   0.00032  -0.00396   0.06850   0.06473  -2.46999
   D39        1.65788   0.00106  -0.00152   0.07747   0.07594   1.73383
   D40       -2.54941   0.00057  -0.00380   0.06886   0.06524  -2.48417
   D41        1.61220  -0.00003  -0.00554   0.06824   0.06293   1.67512
   D42       -0.47839   0.00070  -0.00311   0.07722   0.07414  -0.40425
   D43        1.63342   0.00074  -0.00246   0.07703   0.07445   1.70787
   D44       -0.48816   0.00015  -0.00420   0.07641   0.07214  -0.41602
   D45       -2.57875   0.00088  -0.00177   0.08538   0.08335  -2.49539
         Item               Value     Threshold  Converged?
 Maximum Force            0.010017     0.000450     NO 
 RMS     Force            0.002009     0.000300     NO 
 Maximum Displacement     0.204520     0.001800     NO 
 RMS     Displacement     0.056853     0.001200     NO 
 Predicted change in Energy=-1.894602D-03
 GradGradGradGradGradGradGradGradGradGradGradGradGradGradGradGradGradGrad

                          Input orientation:                          
 ---------------------------------------------------------------------
 Center     Atomic      Atomic             Coordinates (Angstroms)
 Number     Number       Type             X           Y           Z
 ---------------------------------------------------------------------
      1          6           0        1.190607    2.975986    1.000300
      2          6           0        2.716929    3.055688    0.981965
      3          6           0        0.857684    1.490939    1.147862
      4          6           0        3.177210    1.889304    1.856152
      5          6           0        2.117283    0.801841    1.678546
      6          1           0        0.797593    3.538647    1.889537
      7          1           0        0.734134    3.421387    0.082638
      8          1           0        3.086976    2.905634   -0.067346
      9          1           0        3.098871    4.040286    1.345363
     10          1           0       -0.010149    1.344178    1.839928
     11          1           0        0.577273    1.056295    0.151884
     12          1           0        4.199365    1.531994    1.580165
     13          1           0        3.203559    2.215417    2.930698
     14          1           0        1.918753    0.274831    2.646043
     15          1           0        2.471212    0.035673    0.938566
 ---------------------------------------------------------------------
                    Distance matrix (angstroms):
                    1          2          3          4          5
     1  C    0.000000
     2  C    1.528512   0.000000
     3  C    1.529044   2.435724   0.000000
     4  C    2.420734   1.528566   2.457757   0.000000
     5  C    2.458790   2.434055   1.530709   1.528910   0.000000
     6  H    1.123294   2.177335   2.178716   2.895518   3.045687
     7  H    1.117522   2.207714   2.208302   3.385447   3.364825
     8  H    2.177392   1.122722   2.906516   2.177364   2.900757
     9  H    2.212075   1.116858   3.400161   2.212186   3.400302
    10  H    2.193077   3.332015   1.119656   3.233680   2.201395
    11  H    2.186596   3.043802   1.122282   3.218401   2.183362
    12  H    3.387327   2.208416   3.369778   1.117426   2.208590
    13  H    2.890827   2.177252   3.034222   1.123251   2.178550
    14  H    3.245752   3.337575   2.202120   2.194121   1.119466
    15  H    3.207678   3.030305   2.182905   2.185485   1.122430
                    6          7          8          9         10
     6  H    0.000000
     7  H    1.811812   0.000000
     8  H    3.077560   2.413372   0.000000
     9  H    2.417364   2.751271   1.811995   0.000000
    10  H    2.338932   2.820784   3.958285   4.144828   0.000000
    11  H    3.038100   2.371300   3.125176   4.084979   1.810368
    12  H    3.961619   4.221401   2.416317   2.749136   4.221701
    13  H    2.936602   3.957761   3.078678   2.419586   3.503821
    14  H    3.532959   4.227906   3.955800   4.154889   2.348188
    15  H    3.997021   3.900399   3.102853   4.073864   2.946488
                   11         12         13         14         15
    11  H    0.000000
    12  H    3.922477   0.000000
    13  H    3.995341   1.811804   0.000000
    14  H    2.937870   2.813849   2.344703   0.000000
    15  H    2.290751   2.374266   3.042401   1.810493   0.000000
 Stoichiometry    C5H10
 Framework group  C1[X(C5H10)]
 Deg. of freedom    39
 Full point group                 C1      NOp   1
 Largest Abelian subgroup         C1      NOp   1
 Largest concise Abelian subgroup C1      NOp   1
                         Standard orientation:                         
 ---------------------------------------------------------------------
 Center     Atomic      Atomic             Coordinates (Angstroms)
 Number     Number       Type             X           Y           Z
 ---------------------------------------------------------------------
      1          6           0       -1.219085   -0.383158   -0.156745
      2          6           0       -0.026085   -1.268606    0.202535
      3          6           0       -0.743037    1.054486    0.054287
      4          6           0        1.201120   -0.433457   -0.162165
      5          6           0        0.787291    1.021217    0.061972
      6          1           0       -1.485446   -0.535266   -1.237349
      7          1           0       -2.121882   -0.622838    0.456742
      8          1           0       -0.027710   -1.468630    1.307294
      9          1           0       -0.047775   -2.251979   -0.326501
     10          1           0       -1.132621    1.725573   -0.752866
     11          1           0       -1.119905    1.446874    1.035876
     12          1           0        2.098481   -0.715111    0.441205
     13          1           0        1.450639   -0.589635   -1.246158
     14          1           0        1.215125    1.685609   -0.730962
     15          1           0        1.169874    1.382515    1.053407
 ---------------------------------------------------------------------
 Rotational constants (GHZ):      6.4996063      6.4956052      3.7192295
 Standard basis: VSTO-6G (5D, 7F)
 There are    30 symmetry adapted cartesian basis functions of A   symmetry.
 There are    30 symmetry adapted basis functions of A   symmetry.
    30 basis functions,   180 primitive gaussians,    30 cartesian basis functions
    15 alpha electrons       15 beta electrons
       nuclear repulsion energy       118.9771981985 Hartrees.
 Integral buffers will be    131072 words long.
 Regular integral format.
 Two-electron integral symmetry is turned off.
 Do NDO integrals.
 One-electron integrals computed using PRISM.
 NBasis=    30 RedAO= F EigKep=  0.00D+00  NBF=    30
 NBsUse=    30 1.00D-04 EigRej=  0.00D+00 NBFU=    30
 Initial guess from the checkpoint file:  "cyclopentane-opt.chk"
 B after Tr=     0.000000   -0.000000   -0.000000
         Rot=    0.809797   -0.000596   -0.000361    0.586710 Ang= -71.85 deg.
 Overlap will be assumed to be unity.
 Keep J ints in memory in canonical form, NReq=892960.
 Requested convergence on RMS density matrix=1.00D-08 within 128 cycles.
 Requested convergence on MAX density matrix=1.00D-06.
 Requested convergence on             energy=1.00D-06.
 No special actions if energy rises.
 SCF Done:  E(RAM1) = -0.447609102162E-01 A.U. after   10 cycles
            NFock=  9  Conv=0.50D-08     -V/T= 0.9976
 Calling FoFJK, ICntrl=      2127 FMM=F ISym2X=0 I1Cent= 0 IOpClX= 0 NMat=1 NMatS=1 NMatT=0.
 ***** Axes restored to original set *****
 -------------------------------------------------------------------
 Center     Atomic                   Forces (Hartrees/Bohr)
 Number     Number              X              Y              Z
 -------------------------------------------------------------------
      1        6           0.002286671   -0.001048744    0.002954352
      2        6          -0.001583087   -0.003786747   -0.000971474
      3        6           0.001681148    0.000657145   -0.000842125
      4        6          -0.003360966    0.002014552    0.000531706
      5        6           0.000447532    0.001418127   -0.001529534
      6        1           0.000295872   -0.000370849   -0.002612869
      7        1           0.001383736   -0.001472633    0.000955719
      8        1          -0.000028656    0.001423261    0.001897930
      9        1          -0.001342374   -0.001915735    0.000696354
     10        1           0.001821383    0.000136822   -0.001097608
     11        1          -0.000131576    0.000994163    0.002363978
     12        1          -0.002121388    0.000431312   -0.000617257
     13        1           0.001167880   -0.000815838   -0.002204144
     14        1           0.000087250    0.001165892   -0.001762187
     15        1          -0.000603425    0.001169272    0.002237158
 -------------------------------------------------------------------
 Cartesian Forces:  Max     0.003786747 RMS     0.001598156

 GradGradGradGradGradGradGradGradGradGradGradGradGradGradGradGradGradGrad
 Berny optimization.
 Using GEDIIS/GDIIS optimizer.
 FormGI is forming the generalized inverse of G from B-inverse, IUseBI=4.
 Internal  Forces:  Max     0.004681801 RMS     0.001209648
 Search for a local minimum.
 Step number   3 out of a maximum of  100
 All quantities printed in internal units (Hartrees-Bohrs-Radians)
 Mixed Optimization -- RFO/linear search
 Update second derivatives using D2CorX and points    2    3
 DE= -1.61D-03 DEPred=-1.89D-03 R= 8.50D-01
 TightC=F SS=  1.41D+00  RLast= 5.37D-01 DXNew= 8.4853D-01 1.6102D+00
 Trust test= 8.50D-01 RLast= 5.37D-01 DXMaxT set to 8.49D-01
 ITU=  1  1  0
 Use linear search instead of GDIIS.
     Eigenvalues ---    0.00249   0.00296   0.01946   0.01952   0.04018
     Eigenvalues ---    0.04062   0.04361   0.04861   0.05012   0.05257
     Eigenvalues ---    0.05480   0.05523   0.05933   0.06994   0.07102
     Eigenvalues ---    0.07126   0.07315   0.07325   0.08886   0.08893
     Eigenvalues ---    0.11241   0.11393   0.20813   0.21048   0.26151
     Eigenvalues ---    0.26318   0.27640   0.27901   0.32254   0.33800
     Eigenvalues ---    0.33884   0.33949   0.34107   0.34129   0.34148
     Eigenvalues ---    0.34168   0.34197   0.34217   0.53805
 RFO step:  Lambda=-1.33820821D-03 EMin= 2.48536157D-03
 Quartic linear search produced a step of  0.20927.
 Iteration  1 RMS(Cart)=  0.05094019 RMS(Int)=  0.00151389
 Iteration  2 RMS(Cart)=  0.00171499 RMS(Int)=  0.00039394
 Iteration  3 RMS(Cart)=  0.00000058 RMS(Int)=  0.00039394
 Variable       Old X    -DE/DX   Delta X   Delta X   Delta X     New X
                                 (Linear)    (Quad)   (Total)
    R1        2.88847  -0.00460   0.00355  -0.01433  -0.01107   2.87740
    R2        2.88947  -0.00342   0.00381  -0.01144  -0.00750   2.88197
    R3        2.12272  -0.00236   0.00146  -0.00782  -0.00636   2.11636
    R4        2.11181  -0.00194   0.00140  -0.00632  -0.00492   2.10689
    R5        2.88857  -0.00468   0.00355  -0.01458  -0.01134   2.87723
    R6        2.12164  -0.00197   0.00129  -0.00662  -0.00533   2.11631
    R7        2.11056  -0.00192   0.00111  -0.00637  -0.00526   2.10530
    R8        2.89262  -0.00335   0.00401  -0.01228  -0.00789   2.88473
    R9        2.11584  -0.00211   0.00189  -0.00671  -0.00482   2.11102
   R10        2.12081  -0.00245   0.00188  -0.00790  -0.00602   2.11479
   R11        2.88922  -0.00346   0.00378  -0.01149  -0.00761   2.88161
   R12        2.11163  -0.00193   0.00136  -0.00630  -0.00494   2.10669
   R13        2.12264  -0.00232   0.00143  -0.00770  -0.00627   2.11636
   R14        2.11548  -0.00209   0.00187  -0.00665  -0.00478   2.11070
   R15        2.12109  -0.00246   0.00185  -0.00796  -0.00611   2.11497
    A1        1.84338   0.00018   0.00380   0.01048   0.01278   1.85616
    A2        1.91002   0.00012  -0.00041   0.00525   0.00506   1.91508
    A3        1.95762  -0.00030  -0.00174  -0.01075  -0.01200   1.94562
    A4        1.91125   0.00025  -0.00006   0.00691   0.00706   1.91831
    A5        1.95779  -0.00021  -0.00015  -0.00790  -0.00748   1.95031
    A6        1.88336  -0.00002  -0.00133  -0.00316  -0.00471   1.87865
    A7        1.82765   0.00013   0.00557   0.01378   0.01743   1.84508
    A8        1.91067   0.00027  -0.00101   0.00613   0.00538   1.91605
    A9        1.96444  -0.00033  -0.00099  -0.01135  -0.01163   1.95281
   A10        1.91057   0.00026  -0.00098   0.00605   0.00534   1.91591
   A11        1.96453  -0.00034  -0.00106  -0.01151  -0.01187   1.95266
   A12        1.88516   0.00005  -0.00139  -0.00204  -0.00373   1.88142
   A13        1.86661  -0.00034   0.00165   0.00352   0.00435   1.87096
   A14        1.93448   0.00011  -0.00076  -0.00217  -0.00269   1.93179
   A15        1.92293   0.00016  -0.00014   0.00228   0.00232   1.92525
   A16        1.94390   0.00003  -0.00007  -0.00380  -0.00360   1.94030
   A17        1.91658   0.00026   0.00074   0.00507   0.00599   1.92256
   A18        1.87981  -0.00021  -0.00137  -0.00470  -0.00619   1.87362
   A19        1.84164   0.00019   0.00399   0.01092   0.01337   1.85501
   A20        1.95864  -0.00032  -0.00173  -0.01105  -0.01227   1.94637
   A21        1.90989   0.00012  -0.00044   0.00525   0.00505   1.91494
   A22        1.95846  -0.00022  -0.00021  -0.00815  -0.00776   1.95069
   A23        1.91123   0.00025  -0.00019   0.00687   0.00690   1.91812
   A24        1.88352  -0.00000  -0.00132  -0.00299  -0.00455   1.87897
   A25        1.86559  -0.00030   0.00172   0.00386   0.00473   1.87033
   A26        1.94510   0.00001  -0.00008  -0.00413  -0.00392   1.94119
   A27        1.91581   0.00026   0.00078   0.00540   0.00636   1.92217
   A28        1.93627   0.00009  -0.00087  -0.00292  -0.00353   1.93273
   A29        1.92143   0.00016  -0.00014   0.00269   0.00273   1.92416
   A30        1.88005  -0.00020  -0.00136  -0.00466  -0.00615   1.87390
    D1       -0.53962  -0.00029   0.02168   0.06143   0.08323  -0.45639
    D2        1.50732   0.00022   0.02302   0.07875   0.10169   1.60901
    D3       -2.67917   0.00024   0.01990   0.07300   0.09311  -2.58606
    D4        1.51628   0.00016   0.02347   0.07790   0.10132   1.61761
    D5       -2.71996   0.00067   0.02480   0.09522   0.11978  -2.60018
    D6       -0.62327   0.00070   0.02168   0.08947   0.11120  -0.51207
    D7       -2.67731   0.00003   0.02038   0.07058   0.09116  -2.58614
    D8       -0.63036   0.00053   0.02172   0.08790   0.10962  -0.52075
    D9        1.46633   0.00056   0.01860   0.08215   0.10104   1.56737
   D10        0.32657   0.00010  -0.01324  -0.03742  -0.05070   0.27588
   D11        2.44858  -0.00002  -0.01273  -0.04112  -0.05393   2.39465
   D12       -1.75570  -0.00010  -0.01501  -0.04687  -0.06183  -1.81753
   D13       -1.72851  -0.00026  -0.01478  -0.05279  -0.06750  -1.79600
   D14        0.39351  -0.00038  -0.01427  -0.05649  -0.07073   0.32277
   D15        2.47241  -0.00046  -0.01656  -0.06223  -0.07863   2.39378
   D16        2.46415  -0.00028  -0.01298  -0.04840  -0.06150   2.40265
   D17       -1.69702  -0.00039  -0.01247  -0.05209  -0.06474  -1.76176
   D18        0.38188  -0.00048  -0.01475  -0.05784  -0.07263   0.30925
   D19        0.54706   0.00029  -0.02197  -0.06229  -0.08438   0.46268
   D20        2.68502  -0.00004  -0.02059  -0.07161  -0.09241   2.59261
   D21       -1.50781  -0.00017  -0.02369  -0.07891  -0.10255  -1.61036
   D22       -1.49995  -0.00022  -0.02328  -0.07966  -0.10286  -1.60282
   D23        0.63800  -0.00055  -0.02191  -0.08898  -0.11089   0.52711
   D24        2.72836  -0.00068  -0.02500  -0.09628  -0.12103   2.60733
   D25        2.68655  -0.00023  -0.02014  -0.07375  -0.09410   2.59245
   D26       -1.45867  -0.00057  -0.01876  -0.08308  -0.10213  -1.56081
   D27        0.63168  -0.00070  -0.02185  -0.09038  -0.11228   0.51941
   D28        0.01212  -0.00000  -0.00050  -0.00143  -0.00193   0.01019
   D29        2.13043  -0.00008  -0.00051  -0.00498  -0.00555   2.12487
   D30       -2.07144  -0.00015  -0.00174  -0.00988  -0.01157  -2.08300
   D31       -2.10394   0.00006  -0.00058   0.00122   0.00072  -2.10322
   D32        0.01437  -0.00002  -0.00058  -0.00232  -0.00291   0.01146
   D33        2.09569  -0.00009  -0.00182  -0.00722  -0.00892   2.08677
   D34        2.09848   0.00013   0.00069   0.00618   0.00682   2.10531
   D35       -2.06639   0.00005   0.00068   0.00263   0.00319  -2.06320
   D36        0.01493  -0.00002  -0.00055  -0.00226  -0.00282   0.01212
   D37       -0.34609  -0.00011   0.01403   0.03966   0.05373  -0.29236
   D38       -2.46999   0.00001   0.01354   0.04398   0.05762  -2.41237
   D39        1.73383   0.00011   0.01589   0.04989   0.06574   1.79956
   D40       -2.48417   0.00028   0.01365   0.05084   0.06463  -2.41954
   D41        1.67512   0.00041   0.01317   0.05516   0.06851   1.74364
   D42       -0.40425   0.00050   0.01552   0.06107   0.07663  -0.32762
   D43        1.70787   0.00026   0.01558   0.05521   0.07072   1.77859
   D44       -0.41602   0.00038   0.01510   0.05953   0.07460  -0.34142
   D45       -2.49539   0.00048   0.01744   0.06544   0.08272  -2.41268
         Item               Value     Threshold  Converged?
 Maximum Force            0.004682     0.000450     NO 
 RMS     Force            0.001210     0.000300     NO 
 Maximum Displacement     0.194376     0.001800     NO 
 RMS     Displacement     0.050877     0.001200     NO 
 Predicted change in Energy=-7.689573D-04
 GradGradGradGradGradGradGradGradGradGradGradGradGradGradGradGradGradGrad

                          Input orientation:                          
 ---------------------------------------------------------------------
 Center     Atomic      Atomic             Coordinates (Angstroms)
 Number     Number       Type             X           Y           Z
 ---------------------------------------------------------------------
      1          6           0        1.191730    2.966660    0.976246
      2          6           0        2.710563    3.068238    1.012290
      3          6           0        0.855814    1.490008    1.156543
      4          6           0        3.184193    1.876837    1.833531
      5          6           0        2.111579    0.802935    1.686914
      6          1           0        0.752954    3.562985    1.816551
      7          1           0        0.778104    3.370960    0.023097
      8          1           0        3.119900    2.998222   -0.027769
      9          1           0        3.051920    4.034985    1.448223
     10          1           0       -0.001518    1.363601    1.861476
     11          1           0        0.553036    1.038310    0.178447
     12          1           0        4.181362    1.514621    1.491097
     13          1           0        3.281646    2.173972    2.908919
     14          1           0        1.915891    0.303083    2.666403
     15          1           0        2.450124    0.012684    0.970332
 ---------------------------------------------------------------------
                    Distance matrix (angstroms):
                    1          2          3          4          5
     1  C    0.000000
     2  C    1.522653   0.000000
     3  C    1.525074   2.439614   0.000000
     4  C    2.427459   1.522563   2.455463   0.000000
     5  C    2.456192   2.438339   1.526535   1.524881   0.000000
     6  H    1.119928   2.173440   2.177941   2.958767   3.079050
     7  H    1.114916   2.191926   2.197435   3.361448   3.337843
     8  H    2.174139   1.119902   2.967051   2.173953   2.962454
     9  H    2.196449   1.114075   3.374148   2.196261   3.374517
    10  H    2.185697   3.313953   1.117106   3.226909   2.193171
    11  H    2.182418   3.077470   1.119096   3.219536   2.181726
    12  H    3.363240   2.192311   3.342424   1.114813   2.197462
    13  H    2.954882   2.173258   3.069738   1.119932   2.177636
    14  H    3.236615   3.318685   2.193679   2.186084   1.116935
    15  H    3.210851   3.066920   2.181510   2.181521   1.119195
                    6          7          8          9         10
     6  H    0.000000
     7  H    1.803880   0.000000
     8  H    3.053343   2.371820   0.000000
     9  H    2.375646   2.764444   1.805007   0.000000
    10  H    2.325626   2.831420   3.998059   4.078058   0.000000
    11  H    3.016179   2.348626   3.236135   4.103269   1.801646
    12  H    4.006955   4.145260   2.373758   2.762193   4.201960
    13  H    3.084949   4.003557   3.054453   2.376926   3.540199
    14  H    3.563935   4.206363   3.996495   4.086761   2.334322
    15  H    4.025060   3.869228   3.218423   4.095052   2.937628
                   11         12         13         14         15
    11  H    0.000000
    12  H    3.887759   0.000000
    13  H    4.023744   1.804010   0.000000
    14  H    2.930504   2.825159   2.329019   0.000000
    15  H    2.297375   2.350361   3.020052   1.801775   0.000000
 Stoichiometry    C5H10
 Framework group  C1[X(C5H10)]
 Deg. of freedom    39
 Full point group                 C1      NOp   1
 Largest Abelian subgroup         C1      NOp   1
 Largest concise Abelian subgroup C1      NOp   1
                         Standard orientation:                         
 ---------------------------------------------------------------------
 Center     Atomic      Atomic             Coordinates (Angstroms)
 Number     Number       Type             X           Y           Z
 ---------------------------------------------------------------------
      1          6           0       -0.382084    1.221722   -0.131631
      2          6           0       -1.273426    0.024388    0.168990
      3          6           0        1.054827    0.742630    0.046161
      4          6           0       -0.428999   -1.205279   -0.136065
      5          6           0        1.024212   -0.783584    0.052642
      6          1           0       -0.544134    1.557955   -1.187531
      7          1           0       -0.616068    2.082819    0.536803
      8          1           0       -1.560453    0.027849    1.251480
      9          1           0       -2.211275    0.043502   -0.432039
     10          1           0        1.704390    1.129644   -0.776160
     11          1           0        1.474864    1.123975    1.010797
     12          1           0       -0.700060   -2.061571    0.524312
     13          1           0       -0.598217   -1.526509   -1.195510
     14          1           0        1.666619   -1.204305   -0.758439
     15          1           0        1.417151   -1.172626    1.025701
 ---------------------------------------------------------------------
 Rotational constants (GHZ):      6.5209689      6.5189348      3.7046629
 Standard basis: VSTO-6G (5D, 7F)
 There are    30 symmetry adapted cartesian basis functions of A   symmetry.
 There are    30 symmetry adapted basis functions of A   symmetry.
    30 basis functions,   180 primitive gaussians,    30 cartesian basis functions
    15 alpha electrons       15 beta electrons
       nuclear repulsion energy       119.0576491422 Hartrees.
 Integral buffers will be    131072 words long.
 Regular integral format.
 Two-electron integral symmetry is turned off.
 Do NDO integrals.
 One-electron integrals computed using PRISM.
 NBasis=    30 RedAO= F EigKep=  0.00D+00  NBF=    30
 NBsUse=    30 1.00D-04 EigRej=  0.00D+00 NBFU=    30
 Initial guess from the checkpoint file:  "cyclopentane-opt.chk"
 B after Tr=     0.000000    0.000000    0.000000
         Rot=    0.707648   -0.000191    0.000222    0.706565 Ang= -89.91 deg.
 Overlap will be assumed to be unity.
 Keep J ints in memory in canonical form, NReq=892960.
 Requested convergence on RMS density matrix=1.00D-08 within 128 cycles.
 Requested convergence on MAX density matrix=1.00D-06.
 Requested convergence on             energy=1.00D-06.
 No special actions if energy rises.
 SCF Done:  E(RAM1) = -0.456441762478E-01 A.U. after   10 cycles
            NFock=  9  Conv=0.54D-08     -V/T= 0.9976
 Calling FoFJK, ICntrl=      2127 FMM=F ISym2X=0 I1Cent= 0 IOpClX= 0 NMat=1 NMatS=1 NMatT=0.
 ***** Axes restored to original set *****
 -------------------------------------------------------------------
 Center     Atomic                   Forces (Hartrees/Bohr)
 Number     Number              X              Y              Z
 -------------------------------------------------------------------
      1        6           0.000159575   -0.000156647    0.001810645
      2        6          -0.000114686   -0.001553892   -0.001713966
      3        6           0.000663606    0.000147255   -0.000510964
      4        6          -0.001244838    0.000612659    0.001257570
      5        6           0.000183620    0.000406564   -0.000800719
      6        1          -0.000408186    0.000193104   -0.000450608
      7        1          -0.000278530   -0.000164137   -0.001038038
      8        1           0.000367338    0.000704118    0.000027617
      9        1           0.000071533    0.000924930    0.000978318
     10        1           0.000002867   -0.000172015    0.000411979
     11        1          -0.000115527    0.000023256    0.000195464
     12        1           0.000612385   -0.000631211   -0.000692224
     13        1           0.000570922   -0.000319281   -0.000023500
     14        1          -0.000384768    0.000020522    0.000305054
     15        1          -0.000085312   -0.000035223    0.000243372
 -------------------------------------------------------------------
 Cartesian Forces:  Max     0.001810645 RMS     0.000667392

 GradGradGradGradGradGradGradGradGradGradGradGradGradGradGradGradGradGrad
 Berny optimization.
 Using GEDIIS/GDIIS optimizer.
 FormGI is forming the generalized inverse of G from B-inverse, IUseBI=4.
 Internal  Forces:  Max     0.001207345 RMS     0.000263508
 Search for a local minimum.
 Step number   4 out of a maximum of  100
 All quantities printed in internal units (Hartrees-Bohrs-Radians)
 Mixed Optimization -- En-DIIS/RFO-DIIS
 Update second derivatives using D2CorX and points    3    4
 DE= -8.83D-04 DEPred=-7.69D-04 R= 1.15D+00
 TightC=F SS=  1.41D+00  RLast= 5.22D-01 DXNew= 1.4270D+00 1.5673D+00
 Trust test= 1.15D+00 RLast= 5.22D-01 DXMaxT set to 1.43D+00
 ITU=  1  1  1  0
 Use linear search instead of GDIIS.
     Eigenvalues ---    0.00196   0.00244   0.01929   0.01935   0.03982
     Eigenvalues ---    0.04018   0.04232   0.04859   0.04951   0.05347
     Eigenvalues ---    0.05451   0.05461   0.05745   0.07151   0.07241
     Eigenvalues ---    0.07271   0.07370   0.07403   0.08978   0.08981
     Eigenvalues ---    0.11344   0.11446   0.21087   0.21257   0.26391
     Eigenvalues ---    0.26472   0.27700   0.28083   0.33137   0.33801
     Eigenvalues ---    0.33884   0.33940   0.34108   0.34141   0.34166
     Eigenvalues ---    0.34175   0.34217   0.35348   0.57825
 RFO step:  Lambda=-2.77371885D-04 EMin= 1.95762982D-03
 Quartic linear search produced a step of  0.66949.
 Iteration  1 RMS(Cart)=  0.05261002 RMS(Int)=  0.00161149
 Iteration  2 RMS(Cart)=  0.00178732 RMS(Int)=  0.00048341
 Iteration  3 RMS(Cart)=  0.00000054 RMS(Int)=  0.00048341
 Variable       Old X    -DE/DX   Delta X   Delta X   Delta X     New X
                                 (Linear)    (Quad)   (Total)
    R1        2.87740   0.00042  -0.00741   0.00703  -0.00074   2.87666
    R2        2.88197  -0.00027  -0.00502   0.00050  -0.00436   2.87761
    R3        2.11636  -0.00008  -0.00426   0.00300  -0.00126   2.11509
    R4        2.10689   0.00093  -0.00330   0.00726   0.00397   2.11085
    R5        2.87723   0.00045  -0.00759   0.00730  -0.00067   2.87656
    R6        2.11631   0.00006  -0.00357   0.00327  -0.00030   2.11601
    R7        2.10530   0.00121  -0.00352   0.00852   0.00500   2.11030
    R8        2.88473  -0.00056  -0.00528  -0.00234  -0.00717   2.87756
    R9        2.11102   0.00028  -0.00323   0.00441   0.00118   2.11221
   R10        2.11479  -0.00015  -0.00403   0.00276  -0.00127   2.11352
   R11        2.88161  -0.00022  -0.00510   0.00100  -0.00398   2.87762
   R12        2.10669   0.00097  -0.00331   0.00741   0.00410   2.11079
   R13        2.11636  -0.00006  -0.00420   0.00304  -0.00116   2.11520
   R14        2.11070   0.00033  -0.00320   0.00461   0.00141   2.11211
   R15        2.11497  -0.00016  -0.00409   0.00273  -0.00136   2.11361
    A1        1.85616  -0.00013   0.00855   0.00268   0.00937   1.86553
    A2        1.91508   0.00027   0.00339   0.00564   0.00932   1.92440
    A3        1.94562   0.00006  -0.00804  -0.00074  -0.00815   1.93747
    A4        1.91831   0.00001   0.00473  -0.00016   0.00480   1.92311
    A5        1.95031  -0.00014  -0.00501  -0.00622  -0.01057   1.93974
    A6        1.87865  -0.00006  -0.00315  -0.00097  -0.00436   1.87429
    A7        1.84508  -0.00017   0.01167   0.00412   0.01337   1.85845
    A8        1.91605   0.00017   0.00360   0.00335   0.00728   1.92333
    A9        1.95281  -0.00004  -0.00779  -0.00429  -0.01122   1.94159
   A10        1.91591   0.00018   0.00357   0.00357   0.00747   1.92338
   A11        1.95266  -0.00003  -0.00795  -0.00405  -0.01114   1.94152
   A12        1.88142  -0.00009  -0.00250  -0.00234  -0.00517   1.87625
   A13        1.87096   0.00021   0.00291   0.00377   0.00571   1.87667
   A14        1.93179   0.00003  -0.00180   0.00005  -0.00144   1.93035
   A15        1.92525  -0.00001   0.00155   0.00092   0.00270   1.92795
   A16        1.94030  -0.00023  -0.00241  -0.00448  -0.00656   1.93375
   A17        1.92256  -0.00005   0.00401  -0.00126   0.00295   1.92551
   A18        1.87362   0.00005  -0.00414   0.00095  -0.00334   1.87028
[...]
 ! A27   A(3,5,15)             110.2992         -DE/DX =    0.0                 !
 ! A28   A(4,5,14)             110.5666         -DE/DX =    0.0                 !
 ! A29   A(4,5,15)             110.3981         -DE/DX =    0.0                 !
 ! A30   A(14,5,15)            107.178          -DE/DX =    0.0                 !
 ! D1    D(3,1,2,4)            -15.9757         -DE/DX =    0.0                 !
 ! D2    D(3,1,2,8)            103.9073         -DE/DX =    0.0                 !
 ! D3    D(3,1,2,9)           -137.3357         -DE/DX =    0.0                 !
 ! D4    D(6,1,2,4)            104.0902         -DE/DX =    0.0                 !
 ! D5    D(6,1,2,8)           -136.0268         -DE/DX =    0.0                 !
 ! D6    D(6,1,2,9)            -17.2698         -DE/DX =    0.0                 !
 ! D7    D(7,1,2,4)           -137.3029         -DE/DX =    0.0                 !
 ! D8    D(7,1,2,8)            -17.4199         -DE/DX =    0.0                 !
 ! D9    D(7,1,2,9)            101.3371         -DE/DX =    0.0                 !
 ! D10   D(2,1,3,5)              9.6583         -DE/DX =    0.0                 !
 ! D11   D(2,1,3,10)           130.7242         -DE/DX =    0.0                 !
 ! D12   D(2,1,3,11)          -110.8532         -DE/DX =    0.0                 !
 ! D13   D(6,1,3,5)           -110.4176         -DE/DX =    0.0                 !
 ! D14   D(6,1,3,10)            10.6483         -DE/DX =    0.0                 !
 ! D15   D(6,1,3,11)           129.0709         -DE/DX =    0.0                 !
 ! D16   D(7,1,3,5)            130.9294         -DE/DX =    0.0                 !
 ! D17   D(7,1,3,10)          -108.0047         -DE/DX =    0.0                 !
 ! D18   D(7,1,3,11)            10.4179         -DE/DX =    0.0                 !
 ! D19   D(1,2,4,5)             16.193          -DE/DX =    0.0                 !
 ! D20   D(1,2,4,12)           137.5274         -DE/DX =    0.0                 !
 ! D21   D(1,2,4,13)          -103.8512         -DE/DX =    0.0                 !
 ! D22   D(8,2,4,5)           -103.6902         -DE/DX =    0.0                 !
 ! D23   D(8,2,4,12)            17.6442         -DE/DX =    0.0                 !
 ! D24   D(8,2,4,13)           136.2656         -DE/DX =    0.0                 !
 ! D25   D(9,2,4,5)            137.5546         -DE/DX =    0.0                 !
 ! D26   D(9,2,4,12)          -101.111          -DE/DX =    0.0                 !
 ! D27   D(9,2,4,13)            17.5104         -DE/DX =    0.0                 !
 ! D28   D(1,3,5,4)              0.3518         -DE/DX =    0.0                 !
 ! D29   D(1,3,5,14)           121.3482         -DE/DX =    0.0                 !
 ! D30   D(1,3,5,15)          -120.1881         -DE/DX =    0.0                 !
 ! D31   D(10,3,5,4)          -120.6168         -DE/DX =    0.0                 !
 ! D32   D(10,3,5,14)            0.3796         -DE/DX =    0.0                 !
 ! D33   D(10,3,5,15)          118.8433         -DE/DX =    0.0                 !
 ! D34   D(11,3,5,4)           120.9298         -DE/DX =    0.0                 !
 ! D35   D(11,3,5,14)         -118.0738         -DE/DX =    0.0                 !
 ! D36   D(11,3,5,15)            0.3899         -DE/DX =    0.0                 !
 ! D37   D(2,4,5,3)            -10.2273         -DE/DX =    0.0                 !
 ! D38   D(2,4,5,14)          -131.3203         -DE/DX =    0.0                 !
 ! D39   D(2,4,5,15)           110.2503         -DE/DX =    0.0                 !
 ! D40   D(12,4,5,3)          -131.5096         -DE/DX =    0.0                 !
 ! D41   D(12,4,5,14)          107.3974         -DE/DX =    0.0                 !
 ! D42   D(12,4,5,15)          -11.0319         -DE/DX =    0.0                 !
 ! D43   D(13,4,5,3)           109.8246         -DE/DX =    0.0                 !
 ! D44   D(13,4,5,14)          -11.2684         -DE/DX =    0.0                 !
 ! D45   D(13,4,5,15)         -129.6978         -DE/DX =    0.0                 !
 --------------------------------------------------------------------------------
 GradGradGradGradGradGradGradGradGradGradGradGradGradGradGradGradGradGrad

 1\1\GINC-GTX1080DELTA\Freq\RAM1\ZDO\C5H10\MVEROT\16-Apr-2022\0\\#N Geo
 m=AllCheck Guess=TCheck SCRF=Check GenChk RAM1/ZDO Freq\\Optimisation 
 de geometrie\\0,1\C,1.1926400134,2.9525464791,0.9247672759\C,2.7007609
 065,3.0975767199,1.0717056031\C,0.8496360317,1.4900600531,1.1751207015
 \C,3.2039850033,1.8524779559,1.7882699672\C,2.1018818591,0.8047273165,
 1.7069041099\H,0.6670775667,3.6053836241,1.6667343972\H,0.8594768205,3
 .2724165485,-0.0933617713\H,3.1804994634,3.1836685765,0.0639552193\H,2
 .9605374637,4.0218358101,1.6441765874\H,0.0098822158,1.4038621358,1.90
 8874604\H,0.5117553403,1.0005750717,0.2272772236\H,4.147351501,1.47747
 16122,1.3199987402\H,3.4347764209,2.0884719991,2.8578479084\H,1.910553
 3722,0.3567338754,2.7136918151\H,2.4064860215,-0.0297077781,1.02633761
 85\\Version=AM64L-G09RevD.01\State=1-A\HF=-0.046053\RMSD=1.974e-10\RMS
 F=2.714e-06\ZeroPoint=0.1421659\Thermal=0.147481\Dipole=0.0005777,0.00
 08638,-0.000122\DipoleDeriv=-0.0195575,0.0348085,0.0075509,0.0309717,-
 0.0229333,-0.0085372,-0.0179986,0.0198169,-0.0452147,-0.0090966,-0.019
 2402,0.025765,-0.0358357,-0.0443351,0.0111627,0.0047791,-0.0273889,-0.
 0337559,-0.0476151,-0.0232705,0.0009214,-0.0197785,-0.0074196,-0.02086
 3,0.0136425,-0.0149382,-0.0334838,-0.0539089,0.0107729,-0.0235829,0.02
 21236,0.0053709,-0.0036264,0.0124118,-0.0150324,-0.0391103,0.008336,0.
 0031114,0.00985,0.0085504,-0.0542021,-0.0012981,0.0074955,0.014006,-0.
 0426157,0.0086541,-0.0080961,0.0075864,-0.0080408,0.0093334,-0.0043101
 ,-0.00051,0.0027602,0.020655,0.0127138,0.0005674,-0.0028238,-0.001748,
 0.014161,0.0027055,0.0004882,0.0002994,0.0229075,0.0056163,0.0096782,-
 0.0007273,0.0054535,0.018028,0.0101534,-0.006112,0.0002252,0.0145284,0
 .014297,-0.0016715,-0.0014261,-0.0004452,0.0159893,0.0027326,0.0002664
 ,0.0058091,0.0214278,0.0150659,0.0038789,0.0005293,-0.0013269,0.009193
 2,0.003388,-0.0032105,0.0031217,0.0209934,0.0152112,0.0025973,-0.00685
 69,0.0079156,0.0072096,0.0006881,-0.0016286,0.0041221,0.0186152,0.0154
 729,-0.0016122,-0.0012103,-0.000326,0.013947,0.002918,-0.0056129,0.003
 2338,0.0205927,0.0194193,-0.0072129,-0.0058786,-0.005594,0.004185,0.00
 64721,0.0043221,0.0029903,0.0149646,0.0101407,-0.0040339,-0.0035756,-0
 .0014449,0.0151414,0.0042937,-0.0032587,-0.0014447,0.0203012,0.0052589
 ,-0.000277,-0.006121,-0.0004745,0.016339,-0.0058802,-0.0050737,0.00241
 88,0.0192004\Polar=38.3366303,-0.0546609,38.366526,-0.1569533,0.212556
 9,38.934977\HyperPolar=3.4245788,-3.9791162,3.5222083,5.0106152,-1.405
 1727,5.7087336,3.4171751,-6.8187392,-0.8360577,-2.033611\PG=C01 [X(C5H
 10)]\NImag=0\\0.56233559,-0.03503731,0.56731578,0.01713804,-0.01846797
 ,0.54364777,-0.24288919,-0.01327599,-0.01698150,0.55234290,-0.01995505
 ,-0.06648009,-0.00435326,0.03549261,0.58723905,-0.01477947,-0.00215142
 ,-0.07084427,-0.00765869,-0.00948006,0.53548224,-0.07404932,-0.0418370
 1,0.00886208,-0.03042032,-0.04148205,0.00347324,0.59218291,-0.03529604
 ,-0.23097438,0.02739818,-0.03102520,-0.02033602,0.00136153,0.02928022,
 0.54443529,0.00651698,0.02606369,-0.07435919,0.00208856,0.00104289,0.0
 0610311,0.00593026,0.00487228,0.53388702,-0.03875007,0.03207240,-0.023
 94755,-0.08441357,0.05292172,-0.02800794,-0.05532807,-0.01476542,-0.01
 495450,0.59966417,0.02323004,-0.00490768,0.00916121,0.04591644,-0.1861
 2977,0.06773269,-0.00496097,0.00961816,-0.00201769,-0.01330477,0.53243
 432,-0.01816345,0.00980234,-0.00178796,-0.02621262,0.06921312,-0.10970
 167,-0.01672760,-0.00527018,0.00219002,0.02251577,-0.00333217,0.541394
 89,0.00105333,0.01874247,-0.00617746,0.00601080,-0.01181332,0.00462261
 ,-0.18598336,0.06321198,-0.04906982,-0.15912693,-0.08589198,-0.0069904
 3,0.52989353,0.02859034,-0.04391995,0.02057292,-0.02027681,-0.05349001
 ,0.01376140,0.06963308,-0.10143562,0.02763564,-0.09234768,-0.15047419,
 -0.00909695,-0.00419347,0.59992059,-0.00797984,0.01748496,-0.00060095,
 0.00849461,0.01874442,0.00274041,-0.05082926,0.02583095,-0.09140698,-0
 .00449738,-0.00752453,-0.06984572,0.00070703,-0.02121160,0.54081845,-0
 .09109621,0.06613427,0.07511083,-0.02980125,0.01541336,0.01965045,0.00
 523588,-0.00081578,-0.00130048,-0.00085132,-0.00021489,-0.00018109,-0.
 00031489,-0.00050694,-0.00005873,0.11473689,0.06617118,-0.11995690,-0.
 09373098,0.00456881,0.00309547,-0.00153492,0.00927771,-0.03323545,-0.0
 1803885,-0.00038121,-0.00013792,0.00011631,-0.00045159,-0.00106581,0.0
 0031202,-0.07705905,0.14909266,0.07607400,-0.09489122,-0.14934295,0.00
 550085,-0.00126033,0.00297127,-0.00008896,-0.00346334,0.00430745,-0.00
 009696,0.00002307,-0.00019738,-0.00000490,0.00023225,-0.00024840,-0.09
 125458,0.11239432,0.17207626,-0.05949411,0.02000895,-0.06471346,-0.021
 74472,0.00609676,-0.02874117,0.00507979,-0.00169666,0.00353338,-0.0026
 9002,-0.00019323,-0.00014676,-0.00045485,-0.00079458,0.00014125,0.0056
 6760,-0.00043352,0.01023197,0.07588367,0.01989320,-0.05771679,0.061523
 75,0.00124832,0.00443101,-0.00023674,0.00394654,-0.01998382,0.02891929
 ,-0.00055241,-0.00033022,0.00001404,-0.00040684,-0.00216460,0.00030578
 ,-0.00119702,0.00516697,-0.01401397,-0.02313689,0.07315681,-0.06607398
 ,0.06306786,-0.24527559,-0.01147212,0.00212045,-0.00576307,-0.00132696
 ,0.01252259,-0.00812259,-0.00002123,-0.00018842,0.00012615,0.00022767,
 0.00011159,0.00004618,-0.00151012,-0.00056250,-0.03088707,0.08011453,-
 0.07727714,0.28855906,-0.02821517,-0.00305046,0.02594180,-0.08218109,-
 0.00793325,0.09324797,-0.00090918,0.00001661,-0.00026727,0.00576487,0.
 00169739,-0.00548794,-0.00034191,0.00033495,-0.00034232,-0.00275640,-0
 .00042884,-0.00045723,-0.00107333,0.00018258,0.00013869,0.10472165,-0.
 00353217,0.00408926,0.00313067,-0.00742796,-0.04063008,0.01371628,0.00
 013442,-0.00022202,-0.00013669,-0.00479255,-0.00798058,0.02776516,0.00
 031688,-0.00065996,0.00011432,-0.00025901,-0.00001808,-0.00008231,0.00
 031730,0.00036523,-0.00000226,0.00753925,0.04880847,0.00828749,0.00094
 602,0.00034478,0.09389369,0.01489366,-0.23753392,-0.00026287,-0.000011
 99,-0.00009651,0.00328068,0.01370244,-0.02156741,-0.00021303,0.0002295
 5,-0.00021080,-0.00053027,0.00016396,0.00017994,-0.00033131,0.00003690
 ,0.00061388,-0.11089957,-0.02285950,0.28218620,-0.01903161,-0.02508780
 ,-0.01698539,-0.05136667,-0.04531850,-0.02845703,-0.00269773,-0.000260
 82,-0.00016715,0.00482441,0.00816475,0.00260791,-0.00064221,0.00090802
 ,-0.00060273,-0.00097019,-0.00059782,0.00000126,-0.00141474,-0.0000622
 2,0.00000565,0.00515680,0.00667084,0.00742929,0.06584167,-0.01029778,-
 0.00415494,-0.00548555,-0.04606333,-0.20534303,-0.10489660,0.00016685,
 -0.00004371,0.00011415,-0.00006183,-0.03508403,-0.00620369,0.00065923,
 -0.00157244,0.00105034,-0.00020494,0.00036782,0.00010069,-0.00007362,-
 0.00014533,0.00008334,0.00037616,-0.00145983,-0.00872162,0.05556414,0.
 24905938,-0.00657027,-0.00618628,0.00020725,-0.02940445,-0.10663061,-0
 .10615441,-0.00030421,0.00031243,-0.00011346,0.00055338,0.00979418,0.0
 0727879,-0.00023721,0.00126362,-0.00065051,0.00025958,0.00018274,0.000
 51610,0.00001101,0.00004576,0.00001236,-0.00058907,-0.02338610,-0.0237
 2015,0.03634805,0.12284051,0.12288733,-0.00709767,-0.01045600,0.009939
 44,-0.00014853,-0.00020812,-0.00009322,-0.17457723,-0.01351138,0.12032
 360,-0.00099987,0.00053284,-0.00053235,-0.03241912,0.00704108,0.012539
 00,0.00028990,-0.00035219,-0.00002963,-0.00022853,-0.00032637,-0.00007
 431,0.00000700,0.00002244,0.00000084,-0.00003723,-0.00003153,-0.000004
 36,0.21299491,-0.02313578,-0.01275466,0.02070782,-0.00043186,-0.002355
 67,0.00028627,-0.01293066,-0.03961326,0.01096292,0.00080986,-0.0007151
 9,0.00031481,0.01353936,0.00209007,-0.00540178,-0.00076279,-0.00101785
 ,0.00030430,-0.00031515,-0.00161682,0.00012984,-0.00012171,0.00003325,
 -0.00004205,-0.00033615,0.00002163,-0.00002317,0.01566624,0.05272455,0
 .00913251,0.00800868,-0.00343447,-0.00021683,0.00039029,-0.00015862,0.
 12197894,0.01171799,-0.14741071,-0.00070362,0.00020925,-0.00035081,-0.
 00321501,0.00009052,0.00710638,-0.00010430,-0.00002848,0.00058495,0.00
 000978,0.00011226,0.00006807,0.00000530,-0.00002634,-0.00000843,0.0000
 3464,0.00000457,0.00002803,-0.14333423,-0.01684937,0.17135917,0.000623
 44,-0.00985345,-0.00682478,-0.00019753,0.00007335,0.00014556,-0.059895
 18,-0.03123090,-0.05955320,-0.00126331,0.00069005,-0.00029693,-0.01564
 799,-0.00337034,-0.02714104,-0.00020897,-0.00051102,0.00019229,0.00039
 412,0.00000552,-0.00000076,-0.00002904,-0.00003307,-0.00000174,0.00000
 654,0.00001679,0.00001972,0.00438934,0.00644996,0.01802704,0.07429206,
 -0.01216395,-0.02701564,-0.02238362,-0.00017215,-0.00120440,0.00028732
 ,-0.03175616,-0.08443049,-0.09041409,0.00079415,-0.00069354,0.00041877
 ,0.00522264,0.00628968,0.00845075,-0.00064847,-0.00229515,0.00059528,-
 0.00020866,-0.00110171,-0.00000469,-0.00005275,-0.00001958,-0.00002541
 ,-0.00019684,0.00001069,-0.00000777,0.00075398,0.00346979,-0.00429294,
 0.03676352,0.10720644,-0.00188521,-0.00538104,0.00288589,0.00016094,0.
 00037896,-0.00013139,-0.06106483,-0.09099461,-0.21647359,-0.00032494,0
 .00045466,-0.00025360,-0.01508180,-0.00147687,-0.01414986,-0.00001575,
 0.00067772,0.00007794,0.00007534,0.00043312,0.00060668,0.00003491,0.00
 000599,0.00003529,0.00005687,-0.00001200,-0.00001145,0.00242175,-0.010
 92934,-0.02795846,0.07657907,0.10647462,0.25494320,-0.00023132,0.00035
 572,-0.00034309,-0.01299426,0.01524856,0.00107078,-0.00102384,-0.00099
 376,-0.00017419,-0.21139697,0.06918392,0.08759184,-0.03080157,-0.00356
 480,0.01061285,-0.00001367,-0.00002454,0.00001714,-0.00008018,0.000007
 65,-0.00002398,0.00008993,0.00034250,-0.00035809,-0.00026135,0.0002547
 5,-0.00027797,-0.00010590,0.00010090,-0.00005548,-0.00013258,0.0000571
 8,-0.00004091,0.25680255,0.00055398,-0.00197430,0.00117571,0.02578016,
 -0.01654431,-0.00393095,-0.00137178,-0.00139492,-0.00007330,0.06973066
 ,-0.06662477,-0.03550224,-0.01885529,0.00413632,0.00674594,0.00010384,
 0.00006253,-0.00000532,0.00031817,0.00007235,0.00000864,0.00056853,-0.
 00020345,0.00048914,0.00026537,-0.00084670,0.00061326,-0.00014519,0.00
 011659,-0.00008805,-0.00014551,0.00012120,-0.00003371,-0.08206235,0.08
 367933,-0.00068598,0.00098782,-0.00069414,-0.00903180,0.00676880,0.006
 47229,-0.00025005,0.00015432,-0.00018060,0.08951390,-0.03603309,-0.084
 50972,0.00321102,0.00074489,0.00364602,-0.00008448,-0.00002846,-0.0000
 2338,-0.00019359,-0.00003152,0.00002290,-0.00070950,0.00074201,0.00002
 126,-0.00024456,0.00062850,-0.00043182,-0.00000972,0.00000022,-0.00002
 408,-0.00003400,0.00001090,0.00001520,-0.10313466,0.03954476,0.0971410
 5,-0.00020652,0.00011205,0.00014455,0.00025443,0.00330276,-0.01410621,
 -0.00068042,-0.00046661,0.00018867,-0.04896172,-0.00941348,-0.04483771
 ,-0.00911540,-0.01432006,-0.02150976,-0.00003156,0.00001644,-0.0000209
 4,0.00000581,-0.00000242,0.00003423,-0.00033983,0.00081031,-0.00033671
 ,0.00039385,0.00000923,-0.00003869,-0.00009023,0.00002315,-0.00006647,
 -0.00003833,0.00005991,0.00000058,0.00143593,0.00700315,0.02228818,0.0
 5899865,0.00020377,-0.00082553,0.00033748,0.00707279,-0.00069152,0.025
 12816,-0.00053750,-0.00089342,0.00003803,-0.00980159,-0.04924047,-0.05
 042876,-0.01306057,-0.00923709,-0.02010895,0.00003850,0.00001730,0.000
 03346,0.00013755,0.00002514,-0.00001859,0.00081983,-0.00201053,0.00116
 270,0.00017282,-0.00058313,0.00100027,-0.00004550,0.00004608,-0.000043
 90,-0.00008188,0.00007388,-0.00004201,0.00239651,0.00043341,-0.0132137
 2,0.01486150,0.06468115,-0.00002821,0.00027350,-0.00014443,-0.00886168
 ,0.00851153,-0.02330600,0.00011015,0.00008627,-0.00002022,-0.04624866,
 -0.05010252,-0.26218393,-0.00829967,-0.00828956,-0.00534869,-0.0000015
 9,0.00001340,0.00000452,-0.00004879,-0.00000978,-0.00000461,-0.0006168
 0,0.00103195,-0.00024948,-0.00006919,0.00055335,0.00010369,0.00000289,
 -0.00001938,0.00003333,0.00002685,-0.00001082,-0.00000606,0.00559240,-
 0.00881091,-0.02191862,0.05850725,0.05642173,0.31220216,-0.00147808,0.
 00071649,-0.00058309,-0.00155017,-0.00114556,-0.00027207,-0.00168056,0
 .01280095,-0.02301969,-0.00856681,-0.01660956,0.01843415,-0.04582264,-
 0.01663961,0.03898536,0.00004713,0.00010273,-0.00005378,0.00007975,0.0
 0022496,-0.00001188,0.00007206,-0.00005903,0.00004501,0.00012706,-0.00
 018711,0.00013342,-0.00060299,0.00072643,-0.00073899,-0.00154945,0.000
 75309,-0.00055596,-0.00082121,-0.00075775,-0.00021048,-0.00016091,-0.0
 0083262,0.00007161,0.06002390,0.00038528,-0.00044253,0.00005589,-0.000
 94824,-0.00117666,-0.00016500,0.00599020,-0.00618733,0.01801347,-0.014
 52276,-0.01394506,0.01924036,-0.01611587,-0.07621142,0.08534529,0.0000
 0986,-0.00006734,0.00003753,-0.00002842,-0.00007170,-0.00000984,0.0000
 5960,-0.00004057,0.00002719,0.00007531,-0.00017037,0.00011778,0.000443
 14,0.00007545,0.00028323,0.00077324,-0.00056083,0.00022461,-0.00075122
 ,-0.00093379,-0.00013542,-0.00074024,-0.00062823,0.00013386,0.02117255
 ,0.09430900,-0.00047342,0.00004391,-0.00018382,-0.00018956,-0.00035789
 ,0.00004005,-0.00754815,0.01209586,-0.01533703,0.00555941,0.00687274,-
 0.00075909,0.03873597,0.08717854,-0.23963153,-0.00000704,0.00001838,0.
 00001010,0.00002990,0.00006533,-0.00002228,0.00000884,-0.00004861,0.00
 000033,0.00003261,-0.00002216,0.00005608,-0.00033549,0.00017991,0.0004
 1986,-0.00046555,0.00036904,0.00000210,-0.00026676,-0.00007622,-0.0000
 0160,-0.00025350,-0.00027545,0.00064987,-0.04330041,-0.10627393,0.2827
 8825,-0.00147318,0.00045570,-0.00058061,-0.00090078,-0.00069345,-0.000
 09490,-0.01525332,0.02475279,0.00992477,0.00209519,-0.01882645,-0.0115
 7289,-0.05628684,0.04950671,0.04148085,0.00006709,0.00010295,-0.000010
 49,0.00006975,0.00017543,-0.00000538,0.00003366,-0.00005014,-0.0000033
 7,0.00007137,-0.00012699,0.00010113,-0.00137384,0.00071818,-0.00075327
 ,-0.00074316,0.00079452,-0.00035996,-0.00046556,-0.00098598,-0.0004242
 7,-0.00146377,-0.00134357,-0.00013646,0.00188296,0.00419759,0.00847321
 ,0.07374048,0.00039040,-0.00028155,0.00035791,-0.00045774,-0.00038405,
 0.00012209,0.01644706,-0.01530310,-0.00698157,-0.00579850,-0.02578903,
 -0.01705080,0.04909625,-0.17220552,-0.11013778,-0.00003093,-0.00000821
 ,-0.00000443,0.00000203,-0.00008653,0.00001905,-0.00000787,-0.00005155
 ,0.00000889,0.00003891,-0.00005603,0.00006335,0.00061655,-0.00050394,0
 .00051218,0.00045373,0.00014972,0.00021985,-0.00055099,-0.00009951,-0.
 00014008,-0.00125568,-0.00116701,0.00021732,-0.00026591,0.00605135,0.0
 0023045,-0.05867727,0.20973499,-0.00050930,0.00039930,-0.00041755,-0.0
 0010944,0.00001817,-0.00021563,-0.00195184,0.00338779,0.00703374,-0.00
 262051,-0.00875159,0.00016780,0.04178483,-0.11174586,-0.13226363,0.000
 02762,0.00004529,-0.00002956,0.00002796,0.00011287,0.00001974,-0.00000
 775,0.00003534,0.00000482,0.00000979,-0.00003389,-0.00000800,-0.000814
 16,0.00037892,-0.00025440,-0.00067247,0.00053261,0.00041794,-0.0002098
 4,-0.00005682,0.00046506,0.00000659,0.00000945,0.00018829,0.01107687,-
 0.01689508,-0.02803148,-0.04603829,0.13256352,0.15292264\\-0.00000046,
 -0.00000437,-0.00000384,-0.00000388,-0.00000225,0.00000412,-0.00000637
 ,0.00000578,-0.00000061,-0.00000150,-0.00000524,-0.00000376,0.00000724
 ,-0.00000108,0.00000540,-0.00000195,0.00000056,0.00000112,-0.00000184,
 0.00000023,0.00000123,0.00000162,0.00000180,-0.00000196,0.00000169,0.0
 0000196,-0.00000190,0.00000107,0.00000171,-0.00000123,0.00000054,0.000
 00106,-0.00000106,0.00000028,-0.00000107,0.00000218,0.00000056,-0.0000
 0101,0.00000225,0.00000164,0.00000135,-0.00000108,0.00000135,0.0000005
 7,-0.00000085\\\@


 MARY HAD A LITTLE LAMB
      HIS FEET WERE BLACK AS SOOT,
           AND EVERYWHERE THAT MARY WENT
                HIS SOOTY FOOT HE PUT.

                    -- NONAME
 Job cpu time:       0 days  0 hours  0 minutes  1.0 seconds.
 File lengths (MBytes):  RWF=    147 Int=      0 D2E=      0 Chk=      3 Scr=      2
 Normal termination of Gaussian 09 at Sat Apr 16 12:29:49 2022.
