 Entering Gaussian System, Link 0=g09
 Input=/scratch/mverot/cyclopropane-opt/cyclopropane-opt.com
 Output=/scratch/mverot/cyclopropane-opt/cyclopropane-opt.log
 Initial command:
 /opt/g09/l1.exe "/scratch/mverot/cyclopropane-opt/Gau-760344.inp" -scrdir="/scratch/mverot/cyclopropane-opt/"
 Entering Link 1 = /opt/g09/l1.exe PID=    760346.
  
 Copyright (c) 1988,1990,1992,1993,1995,1998,2003,2009,2013,
            Gaussian, Inc.  All Rights Reserved.
  
 This is part of the Gaussian(R) 09 program.  It is based on
 the Gaussian(R) 03 system (copyright 2003, Gaussian, Inc.),
 the Gaussian(R) 98 system (copyright 1998, Gaussian, Inc.),
 the Gaussian(R) 94 system (copyright 1995, Gaussian, Inc.),
 the Gaussian 92(TM) system (copyright 1992, Gaussian, Inc.),
 the Gaussian 90(TM) system (copyright 1990, Gaussian, Inc.),
 the Gaussian 88(TM) system (copyright 1988, Gaussian, Inc.),
 the Gaussian 86(TM) system (copyright 1986, Carnegie Mellon
 University), and the Gaussian 82(TM) system (copyright 1983,
 Carnegie Mellon University). Gaussian is a federally registered
 trademark of Gaussian, Inc.
  
 This software contains proprietary and confidential information,
 including trade secrets, belonging to Gaussian, Inc.
  
 This software is provided under written license and may be
 used, copied, transmitted, or stored only in accord with that
 written license.
  
 The following legend is applicable only to US Government
 contracts under FAR:
  
                    RESTRICTED RIGHTS LEGEND
  
 Use, reproduction and disclosure by the US Government is
 subject to restrictions as set forth in subparagraphs (a)
 and (c) of the Commercial Computer Software - Restricted
 Rights clause in FAR 52.227-19.
  
 Gaussian, Inc.
 340 Quinnipiac St., Bldg. 40, Wallingford CT 06492
  
  
 ---------------------------------------------------------------
 Warning -- This program may not be used in any manner that
 competes with the business of Gaussian, Inc. or will provide
 assistance to any competitor of Gaussian, Inc.  The licensee
 of this program is prohibited from giving any competitor of
 Gaussian, Inc. access to this program.  By using this program,
 the user acknowledges that Gaussian, Inc. is engaged in the
 business of creating and licensing software in the field of
 computational chemistry and represents and warrants to the
 licensee that it is not a competitor of Gaussian, Inc. and that
 it will not use this program in any manner prohibited above.
 ---------------------------------------------------------------
  

 Cite this work as:
 Gaussian 09, Revision D.01,
 M. J. Frisch, G. W. Trucks, H. B. Schlegel, G. E. Scuseria, 
 M. A. Robb, J. R. Cheeseman, G. Scalmani, V. Barone, B. Mennucci, 
 G. A. Petersson, H. Nakatsuji, M. Caricato, X. Li, H. P. Hratchian, 
 A. F. Izmaylov, J. Bloino, G. Zheng, J. L. Sonnenberg, M. Hada, 
 M. Ehara, K. Toyota, R. Fukuda, J. Hasegawa, M. Ishida, T. Nakajima, 
 Y. Honda, O. Kitao, H. Nakai, T. Vreven, J. A. Montgomery, Jr., 
 J. E. Peralta, F. Ogliaro, M. Bearpark, J. J. Heyd, E. Brothers, 
 K. N. Kudin, V. N. Staroverov, T. Keith, R. Kobayashi, J. Normand, 
 K. Raghavachari, A. Rendell, J. C. Burant, S. S. Iyengar, J. Tomasi, 
 M. Cossi, N. Rega, J. M. Millam, M. Klene, J. E. Knox, J. B. Cross, 
 V. Bakken, C. Adamo, J. Jaramillo, R. Gomperts, R. E. Stratmann, 
 O. Yazyev, A. J. Austin, R. Cammi, C. Pomelli, J. W. Ochterski, 
 R. L. Martin, K. Morokuma, V. G. Zakrzewski, G. A. Voth, 
 P. Salvador, J. J. Dannenberg, S. Dapprich, A. D. Daniels, 
 O. Farkas, J. B. Foresman, J. V. Ortiz, J. Cioslowski, 
 and D. J. Fox, Gaussian, Inc., Wallingford CT, 2013.
 
 ******************************************
 Gaussian 09:  AM64L-G09RevD.01 24-Apr-2013
                16-Apr-2022 
 ******************************************
 %chk=cyclopropane-opt
 ---------------
 #n AM1 Opt freq
 ---------------
 1/14=-1,18=20,19=15,26=1,38=1/1,3;
 2/9=110,12=2,17=6,18=5,40=1/2;
 3/5=2,16=1,25=1,41=700000,71=1/1,2,3;
 4/35=1/1;
 5/5=2,35=1,38=5/2;
 6/7=2,8=2,9=2,10=2,28=1/1;
 7//1,2,3,16;
 1/14=-1,18=20,19=15,26=1/3(2);
 2/9=110/2;
 99//99;
 2/9=110/2;
 3/5=2,16=1,25=1,41=700000,71=1,135=20/1,2,3;
 4/5=5,16=3,35=1/1;
 5/5=2,35=1,38=5/2;
 7//1,2,3,16;
 1/14=-1,18=20,19=15,26=1/3(-5);
 2/9=110/2;
 6/7=2,8=2,9=2,10=2,19=2,28=1/1;
 99/9=1/99;
 -------------------------
 Optimisation de geometrie
 -------------------------
 Symbolic Z-matrix:
 Charge =  0 Multiplicity = 1
 C                     0.999     2.0084    1.0289 
 C                     1.9893    2.0908    2.163 
 C                     1.3795    0.7632    1.7894 
 H                     0.0058    2.421     1.1837 
 H                     1.3699    2.1235    0.0141 
 H                     3.0345    2.262     1.9203 
 H                     1.6703    2.5594    3.09 
 H                     2.0094    0.0306    1.2925 
 H                     0.6453    0.3282    2.462 
 

 GradGradGradGradGradGradGradGradGradGradGradGradGradGradGradGradGradGrad
 Berny optimization.
 Initialization pass.
                           ----------------------------
                           !    Initial Parameters    !
                           ! (Angstroms and Degrees)  !
 --------------------------                            --------------------------
 ! Name  Definition              Value          Derivative Info.                !
 --------------------------------------------------------------------------------
 ! R1    R(1,2)                  1.5079         estimate D2E/DX2                !
 ! R2    R(1,3)                  1.5079         estimate D2E/DX2                !
 ! R3    R(1,4)                  1.0866         estimate D2E/DX2                !
 ! R4    R(1,5)                  1.0866         estimate D2E/DX2                !
 ! R5    R(2,3)                  1.508          estimate D2E/DX2                !
 ! R6    R(2,6)                  1.0866         estimate D2E/DX2                !
 ! R7    R(2,7)                  1.0866         estimate D2E/DX2                !
 ! R8    R(3,8)                  1.0865         estimate D2E/DX2                !
 ! R9    R(3,9)                  1.0866         estimate D2E/DX2                !
 ! A1    A(2,1,4)              118.1911         estimate D2E/DX2                !
 ! A2    A(2,1,5)              118.1948         estimate D2E/DX2                !
 ! A3    A(3,1,4)              118.189          estimate D2E/DX2                !
 ! A4    A(3,1,5)              118.189          estimate D2E/DX2                !
 ! A5    A(4,1,5)              113.8815         estimate D2E/DX2                !
 ! A6    A(1,2,6)              118.1875         estimate D2E/DX2                !
 ! A7    A(1,2,7)              118.1911         estimate D2E/DX2                !
 ! A8    A(3,2,6)              118.1877         estimate D2E/DX2                !
 ! A9    A(3,2,7)              118.185          estimate D2E/DX2                !
 ! A10   A(6,2,7)              113.8915         estimate D2E/DX2                !
 ! A11   A(1,3,8)              118.1949         estimate D2E/DX2                !
 ! A12   A(1,3,9)              118.183          estimate D2E/DX2                !
 ! A13   A(2,3,8)              118.1973         estimate D2E/DX2                !
 ! A14   A(2,3,9)              118.1861         estimate D2E/DX2                !
 ! A15   A(8,3,9)              113.8855         estimate D2E/DX2                !
 ! D1    D(4,1,2,6)           -143.9513         estimate D2E/DX2                !
 ! D2    D(4,1,2,7)              0.0072         estimate D2E/DX2                !
 ! D3    D(5,1,2,6)             -0.0008         estimate D2E/DX2                !
 ! D4    D(5,1,2,7)            143.9578         estimate D2E/DX2                !
 ! D5    D(4,1,3,8)            143.9394         estimate D2E/DX2                !
 ! D6    D(4,1,3,9)             -0.0058         estimate D2E/DX2                !
 ! D7    D(5,1,3,8)              0.0019         estimate D2E/DX2                !
 ! D8    D(5,1,3,9)           -143.9433         estimate D2E/DX2                !
 ! D9    D(6,2,3,8)              0.0048         estimate D2E/DX2                !
 ! D10   D(6,2,3,9)            143.959          estimate D2E/DX2                !
 ! D11   D(7,2,3,8)           -143.9441         estimate D2E/DX2                !
 ! D12   D(7,2,3,9)              0.0102         estimate D2E/DX2                !
 --------------------------------------------------------------------------------
 Trust Radius=3.00D-01 FncErr=1.00D-07 GrdErr=1.00D-07
 Number of steps in this run=     46 maximum allowed number of steps=    100.
 GradGradGradGradGradGradGradGradGradGradGradGradGradGradGradGradGradGrad

                          Input orientation:                          
 ---------------------------------------------------------------------
 Center     Atomic      Atomic             Coordinates (Angstroms)
 Number     Number       Type             X           Y           Z
 ---------------------------------------------------------------------
      1          6           0        0.999000    2.008400    1.028900
      2          6           0        1.989300    2.090800    2.163000
      3          6           0        1.379500    0.763200    1.789400
      4          1           0        0.005800    2.421000    1.183700
      5          1           0        1.369900    2.123500    0.014100
      6          1           0        3.034500    2.262000    1.920300
      7          1           0        1.670300    2.559400    3.090000
      8          1           0        2.009400    0.030600    1.292500
      9          1           0        0.645300    0.328200    2.462000
 ---------------------------------------------------------------------
                    Distance matrix (angstroms):
                    1          2          3          4          5
     1  C    0.000000
     2  C    1.507868   0.000000
     3  C    1.507867   1.507964   0.000000
     4  H    1.086576   2.236590   2.236565   0.000000
     5  H    1.086570   2.236626   2.236559   1.821329   0.000000
     6  H    2.236553   1.086580   2.236641   3.121039   2.534497
     7  H    2.236600   1.086589   2.236618   2.534501   3.121123
     8  H    2.236534   2.236649   1.086456   3.120939   2.534462
     9  H    2.236504   2.236626   1.086584   2.534329   3.120955
                    6          7          8          9
     6  H    0.000000
     7  H    1.821452   0.000000
     8  H    2.534583   3.121029   0.000000
     9  H    3.121105   2.534416   1.821281   0.000000
 Stoichiometry    C3H6
 Framework group  C1[X(C3H6)]
 Deg. of freedom    21
 Full point group                 C1      NOp   1
 Largest Abelian subgroup         C1      NOp   1
 Largest concise Abelian subgroup C1      NOp   1
                         Standard orientation:                         
 ---------------------------------------------------------------------
 Center     Atomic      Atomic             Coordinates (Angstroms)
 Number     Number       Type             X           Y           Z
 ---------------------------------------------------------------------
      1          6           0       -0.167534    0.854270    0.000008
      2          6           0        0.823671   -0.282031   -0.000005
      3          6           0       -0.656102   -0.572253   -0.000038
      4          1           0       -0.281658    1.435874    0.910699
      5          1           0       -0.281695    1.435941   -0.910630
      6          1           0        1.384378   -0.474001   -0.910725
      7          1           0        1.384325   -0.474150    0.910727
      8          1           0       -1.102818   -0.961820   -0.910570
      9          1           0       -1.102741   -0.961759    0.910711
 ---------------------------------------------------------------------
 Rotational constants (GHZ):     20.1106618     20.1084653     12.5614029
 Standard basis: VSTO-6G (5D, 7F)
 There are    18 symmetry adapted cartesian basis functions of A   symmetry.
 There are    18 symmetry adapted basis functions of A   symmetry.
    18 basis functions,   108 primitive gaussians,    18 cartesian basis functions
     9 alpha electrons        9 beta electrons
       nuclear repulsion energy        52.9096352530 Hartrees.
 Integral buffers will be    131072 words long.
 Regular integral format.
 Two-electron integral symmetry is turned off.
 Do NDO integrals.
 One-electron integrals computed using PRISM.
 NBasis=    18 RedAO= F EigKep=  0.00D+00  NBF=    18
 NBsUse=    18 1.00D-04 EigRej=  0.00D+00 NBFU=    18
 Simple Huckel Guess.
 Overlap will be assumed to be unity.
 Keep J ints in memory in canonical form, NReq=886606.
 Requested convergence on RMS density matrix=1.00D-08 within 128 cycles.
 Requested convergence on MAX density matrix=1.00D-06.
 Requested convergence on             energy=1.00D-06.
 No special actions if energy rises.
 SCF Done:  E(RAM1) =  0.297405619274E-01 A.U. after   11 cycles
            NFock= 10  Conv=0.36D-08     -V/T= 1.0027

 **********************************************************************

            Population analysis using the SCF density.

 **********************************************************************

 Orbital symmetries:
       Occupied  (A) (A) (A) (A) (A) (A) (A) (A) (A)
       Virtual   (A) (A) (A) (A) (A) (A) (A) (A) (A)
 The electronic state is 1-A.
 Alpha  occ. eigenvalues --   -1.39600  -0.85488  -0.85485  -0.62003  -0.56702
 Alpha  occ. eigenvalues --   -0.45526  -0.45524  -0.42100  -0.42097
 Alpha virt. eigenvalues --    0.11288   0.14245   0.15396   0.15397   0.17628
 Alpha virt. eigenvalues --    0.17629   0.18966   0.19087   0.19088
          Condensed to atoms (all electrons):
               1          2          3          4          5          6
     1  C    4.215423   0.000000   0.000000   0.000000   0.000000   0.000000
     2  C    0.000000   4.215416   0.000000   0.000000   0.000000   0.000000
     3  C    0.000000   0.000000   4.215450   0.000000   0.000000   0.000000
     4  H    0.000000   0.000000   0.000000   0.892292   0.000000   0.000000
     5  H    0.000000   0.000000   0.000000   0.000000   0.892288   0.000000
     6  H    0.000000   0.000000   0.000000   0.000000   0.000000   0.892279
     7  H    0.000000   0.000000   0.000000   0.000000   0.000000   0.000000
     8  H    0.000000   0.000000   0.000000   0.000000   0.000000   0.000000
     9  H    0.000000   0.000000   0.000000   0.000000   0.000000   0.000000
               7          8          9
     1  C    0.000000   0.000000   0.000000
     2  C    0.000000   0.000000   0.000000
     3  C    0.000000   0.000000   0.000000
     4  H    0.000000   0.000000   0.000000
     5  H    0.000000   0.000000   0.000000
     6  H    0.000000   0.000000   0.000000
     7  H    0.892276   0.000000   0.000000
     8  H    0.000000   0.892279   0.000000
     9  H    0.000000   0.000000   0.892297
 Mulliken charges:
               1
     1  C   -0.215423
     2  C   -0.215416
     3  C   -0.215450
     4  H    0.107708
     5  H    0.107712
     6  H    0.107721
     7  H    0.107724
     8  H    0.107721
     9  H    0.107703
 Sum of Mulliken charges =   0.00000
 Mulliken charges with hydrogens summed into heavy atoms:
               1
     1  C   -0.000003
     2  C    0.000029
     3  C   -0.000025
 Charge=              0.0000 electrons
 Dipole moment (field-independent basis, Debye):
    X=             -0.0001    Y=              0.0001    Z=              0.0000  Tot=              0.0001
 N-N= 5.290963525302D+01 E-N=-8.266980807779D+01  KE=-1.099951720306D+01
 Calling FoFJK, ICntrl=      2127 FMM=F ISym2X=0 I1Cent= 0 IOpClX= 0 NMat=1 NMatS=1 NMatT=0.
 ***** Axes restored to original set *****
 -------------------------------------------------------------------
 Center     Atomic                   Forces (Hartrees/Bohr)
 Number     Number              X              Y              Z
 -------------------------------------------------------------------
      1        6           0.009812894   -0.008330039    0.013571051
      2        6          -0.011484281   -0.010154990   -0.010816461
      3        6           0.001606000    0.018527436   -0.002718208
      4        1          -0.011278776    0.005342721   -0.000565610
      5        1           0.002142883    0.002420279   -0.012070069
      6        1           0.012036240    0.003240258   -0.000714685
      7        1          -0.001362549    0.006162316    0.010764140
      8        1           0.005993616   -0.010090512   -0.004494470
      9        1          -0.007466026   -0.007117467    0.007044312
 -------------------------------------------------------------------
 Cartesian Forces:  Max     0.018527436 RMS     0.008591237

 GradGradGradGradGradGradGradGradGradGradGradGradGradGradGradGradGradGrad
 Berny optimization.
 FormGI is forming the generalized inverse of G from B-inverse, IUseBI=4.
 Internal  Forces:  Max     0.012334592 RMS     0.005093401
 Search for a local minimum.
 Step number   1 out of a maximum of   46
 All quantities printed in internal units (Hartrees-Bohrs-Radians)
 Mixed Optimization -- RFO/linear search
 Second derivative matrix not updated -- first step.
 ITU=  0
     Eigenvalues ---    0.01956   0.03048   0.03048   0.03049   0.03427
     Eigenvalues ---    0.03428   0.10463   0.10464   0.10930   0.16000
     Eigenvalues ---    0.16000   0.16000   0.27837   0.27843   0.31562
     Eigenvalues ---    0.35210   0.35210   0.35211   0.35211   0.35212
     Eigenvalues ---    0.35225
 RFO step:  Lambda=-2.81145901D-03 EMin= 1.95573509D-02
 Linear search not attempted -- first point.
 Iteration  1 RMS(Cart)=  0.01544451 RMS(Int)=  0.00013059
 Iteration  2 RMS(Cart)=  0.00012111 RMS(Int)=  0.00001657
 Iteration  3 RMS(Cart)=  0.00000001 RMS(Int)=  0.00001657
 Variable       Old X    -DE/DX   Delta X   Delta X   Delta X     New X
                                 (Linear)    (Quad)   (Total)
    R1        2.84946  -0.00075   0.00000  -0.00236  -0.00236   2.84710
    R2        2.84946  -0.00074   0.00000  -0.00231  -0.00231   2.84715
    R3        2.05333   0.01226   0.00000   0.03454   0.03454   2.08787
    R4        2.05332   0.01226   0.00000   0.03454   0.03454   2.08786
    R5        2.84964  -0.00080   0.00000  -0.00253  -0.00253   2.84711
    R6        2.05334   0.01225   0.00000   0.03451   0.03451   2.08785
    R7        2.05336   0.01224   0.00000   0.03449   0.03449   2.08785
    R8        2.05310   0.01233   0.00000   0.03474   0.03474   2.08784
    R9        2.05335   0.01225   0.00000   0.03453   0.03453   2.08787
    A1        2.06282   0.00082   0.00000   0.00725   0.00724   2.07006
    A2        2.06289   0.00081   0.00000   0.00718   0.00717   2.07006
    A3        2.06279   0.00082   0.00000   0.00730   0.00729   2.07008
    A4        2.06279   0.00082   0.00000   0.00732   0.00731   2.07009
    A5        1.98761  -0.00198   0.00000  -0.01761  -0.01759   1.97001
    A6        2.06276   0.00081   0.00000   0.00729   0.00728   2.07004
    A7        2.06282   0.00081   0.00000   0.00724   0.00723   2.07005
    A8        2.06276   0.00081   0.00000   0.00728   0.00726   2.07003
    A9        2.06272   0.00081   0.00000   0.00731   0.00729   2.07001
   A10        1.98778  -0.00198   0.00000  -0.01770  -0.01768   1.97010
   A11        2.06289   0.00081   0.00000   0.00727   0.00726   2.07015
   A12        2.06268   0.00082   0.00000   0.00735   0.00733   2.07002
   A13        2.06293   0.00080   0.00000   0.00717   0.00715   2.07008
   A14        2.06274   0.00082   0.00000   0.00724   0.00722   2.06996
   A15        1.98768  -0.00198   0.00000  -0.01763  -0.01761   1.97006
    D1       -2.51242   0.00127   0.00000   0.01140   0.01143  -2.50099
    D2        0.00013  -0.00001   0.00000  -0.00006  -0.00006   0.00007
    D3       -0.00001   0.00001   0.00000  -0.00005  -0.00005  -0.00007
    D4        2.51254  -0.00128   0.00000  -0.01151  -0.01155   2.50099
    D5        2.51222  -0.00126   0.00000  -0.01118  -0.01121   2.50101
    D6       -0.00010   0.00001   0.00000   0.00001   0.00001  -0.00009
    D7        0.00003  -0.00001   0.00000  -0.00004  -0.00004  -0.00001
    D8       -2.51229   0.00126   0.00000   0.01115   0.01118  -2.50111
    D9        0.00008  -0.00000   0.00000   0.00002   0.00001   0.00010
   D10        2.51256  -0.00128   0.00000  -0.01152  -0.01156   2.50100
   D11       -2.51230   0.00128   0.00000   0.01139   0.01143  -2.50087
   D12        0.00018  -0.00000   0.00000  -0.00014  -0.00014   0.00003
         Item               Value     Threshold  Converged?
 Maximum Force            0.012335     0.000450     NO 
 RMS     Force            0.005093     0.000300     NO 
 Maximum Displacement     0.035930     0.001800     NO 
 RMS     Displacement     0.015468     0.001200     NO 
 Predicted change in Energy=-1.419459D-03
 GradGradGradGradGradGradGradGradGradGradGradGradGradGradGradGradGradGrad

                          Input orientation:                          
 ---------------------------------------------------------------------
 Center     Atomic      Atomic             Coordinates (Angstroms)
 Number     Number       Type             X           Y           Z
 ---------------------------------------------------------------------
      1          6           0        0.999327    2.008090    1.029389
      2          6           0        1.988812    2.090342    2.162554
      3          6           0        1.379535    0.763924    1.789308
      4          1           0       -0.010813    2.430447    1.177477
      5          1           0        1.368268    2.129717   -0.004914
      6          1           0        3.052571    2.269661    1.923940
      7          1           0        1.673470    2.570396    3.106365
      8          1           0        2.015460    0.011819    1.288702
      9          1           0        0.636369    0.312705    2.471079
 ---------------------------------------------------------------------
                    Distance matrix (angstroms):
                    1          2          3          4          5
     1  C    0.000000
     2  C    1.506622   0.000000
     3  C    1.506647   1.506623   0.000000
     4  H    1.104852   2.254895   2.254929   0.000000
     5  H    1.104850   2.254893   2.254939   1.841290   0.000000
     6  H    2.254873   1.104841   2.254866   3.157116   2.564554
     7  H    2.254880   1.104840   2.254856   2.564567   3.157119
     8  H    2.254965   2.254902   1.104839   3.157200   2.564720
     9  H    2.254892   2.254836   1.104856   2.564582   3.157174
                    6          7          8          9
     6  H    0.000000
     7  H    1.841328   0.000000
     8  H    2.564563   3.157083   0.000000
     9  H    3.157067   2.564437   1.841315   0.000000
 Stoichiometry    C3H6
 Framework group  C1[X(C3H6)]
 Deg. of freedom    21
 Full point group                 C1      NOp   1
 Largest Abelian subgroup         C1      NOp   1
 Largest concise Abelian subgroup C1      NOp   1
                         Standard orientation:                         
 ---------------------------------------------------------------------
 Center     Atomic      Atomic             Coordinates (Angstroms)
 Number     Number       Type             X           Y           Z
 ---------------------------------------------------------------------
      1          6           0        0.808996    0.319661   -0.000002
      2          6           0       -0.127652   -0.860423   -0.000000
      3          6           0       -0.681338    0.540772   -0.000012
      4          1           0        1.377078    0.544121    0.920649
      5          1           0        1.377103    0.544096   -0.920641
      6          1           0       -0.217295   -1.464594   -0.920661
      7          1           0       -0.217331   -1.464577    0.920667
      8          1           0       -1.159849    0.920480   -0.920620
      9          1           0       -1.159747    0.920415    0.920695
 ---------------------------------------------------------------------
 Rotational constants (GHZ):     19.9181348     19.9169912     12.4796639
 Standard basis: VSTO-6G (5D, 7F)
 There are    18 symmetry adapted cartesian basis functions of A   symmetry.
 There are    18 symmetry adapted basis functions of A   symmetry.
    18 basis functions,   108 primitive gaussians,    18 cartesian basis functions
     9 alpha electrons        9 beta electrons
       nuclear repulsion energy        52.7139819935 Hartrees.
 Integral buffers will be    131072 words long.
 Regular integral format.
 Two-electron integral symmetry is turned off.
 Do NDO integrals.
 One-electron integrals computed using PRISM.
 NBasis=    18 RedAO= F EigKep=  0.00D+00  NBF=    18
 NBsUse=    18 1.00D-04 EigRej=  0.00D+00 NBFU=    18
 Initial guess from the checkpoint file:  "cyclopropane-opt.chk"
 B after Tr=     0.000000    0.000000   -0.000000
         Rot=    0.768646    0.000008   -0.000005    0.639674 Ang=  79.54 deg.
 Overlap will be assumed to be unity.
 Keep J ints in memory in canonical form, NReq=886606.
 Requested convergence on RMS density matrix=1.00D-08 within 128 cycles.
 Requested convergence on MAX density matrix=1.00D-06.
 Requested convergence on             energy=1.00D-06.
 No special actions if energy rises.
 SCF Done:  E(RAM1) =  0.283752910659E-01 A.U. after    9 cycles
            NFock=  8  Conv=0.56D-08     -V/T= 1.0026
 Calling FoFJK, ICntrl=      2127 FMM=F ISym2X=0 I1Cent= 0 IOpClX= 0 NMat=1 NMatS=1 NMatT=0.
 ***** Axes restored to original set *****
 -------------------------------------------------------------------
 Center     Atomic                   Forces (Hartrees/Bohr)
 Number     Number              X              Y              Z
 -------------------------------------------------------------------
      1        6           0.003534872   -0.003005710    0.004884780
      2        6          -0.004122785   -0.003637866   -0.003889175
      3        6           0.000579031    0.006643857   -0.000991725
      4        1           0.000890759   -0.000029330   -0.001360691
      5        1          -0.001423830    0.000475279    0.000623456
      6        1          -0.000839545    0.000532612    0.001288713
      7        1           0.001472020    0.000029461   -0.000693295
      8        1          -0.001202753   -0.000249304    0.001060826
      9        1           0.001112232   -0.000759000   -0.000922889
 -------------------------------------------------------------------
 Cartesian Forces:  Max     0.006643857 RMS     0.002373400

 GradGradGradGradGradGradGradGradGradGradGradGradGradGradGradGradGradGrad
 Berny optimization.
 Using GEDIIS/GDIIS optimizer.
 FormGI is forming the generalized inverse of G from B-inverse, IUseBI=4.
 Internal  Forces:  Max     0.003315964 RMS     0.001145363
 Search for a local minimum.
 Step number   2 out of a maximum of   46
 All quantities printed in internal units (Hartrees-Bohrs-Radians)
 Mixed Optimization -- RFO/linear search
 Update second derivatives using D2CorX and points    1    2
 DE= -1.37D-03 DEPred=-1.42D-03 R= 9.62D-01
 TightC=F SS=  1.41D+00  RLast= 9.76D-02 DXNew= 5.0454D-01 2.9279D-01
 Trust test= 9.62D-01 RLast= 9.76D-02 DXMaxT set to 3.00D-01
 ITU=  1  0
 Use linear search instead of GDIIS.
     Eigenvalues ---    0.01960   0.03056   0.03056   0.03056   0.03414
     Eigenvalues ---    0.03415   0.09771   0.10390   0.10390   0.16000
     Eigenvalues ---    0.16000   0.16000   0.27755   0.27760   0.28846
     Eigenvalues ---    0.35210   0.35211   0.35211   0.35212   0.35223
     Eigenvalues ---    0.43967
 RFO step:  Lambda=-1.91661989D-04 EMin= 1.96017781D-02
 Quartic linear search produced a step of -0.01577.
 Iteration  1 RMS(Cart)=  0.00344726 RMS(Int)=  0.00001400
 Iteration  2 RMS(Cart)=  0.00001351 RMS(Int)=  0.00000601
 Iteration  3 RMS(Cart)=  0.00000000 RMS(Int)=  0.00000601
 Variable       Old X    -DE/DX   Delta X   Delta X   Delta X     New X
                                 (Linear)    (Quad)   (Total)
    R1        2.84710  -0.00329   0.00004  -0.01045  -0.01042   2.83668
    R2        2.84715  -0.00332   0.00004  -0.01053  -0.01049   2.83666
    R3        2.08787  -0.00101  -0.00054   0.00003  -0.00051   2.08736
    R4        2.08786  -0.00101  -0.00054   0.00004  -0.00051   2.08735
    R5        2.84711  -0.00329   0.00004  -0.01046  -0.01042   2.83669
    R6        2.08785  -0.00100  -0.00054   0.00005  -0.00049   2.08736
    R7        2.08785  -0.00100  -0.00054   0.00005  -0.00049   2.08735
    R8        2.08784  -0.00100  -0.00055   0.00006  -0.00048   2.08736
    R9        2.08787  -0.00101  -0.00054   0.00003  -0.00051   2.08736
    A1        2.07006   0.00044  -0.00011   0.00455   0.00443   2.07449
    A2        2.07006   0.00043  -0.00011   0.00454   0.00442   2.07448
    A3        2.07008   0.00043  -0.00011   0.00450   0.00438   2.07446
    A4        2.07009   0.00043  -0.00012   0.00450   0.00438   2.07447
    A5        1.97001  -0.00106   0.00028  -0.01100  -0.01072   1.95929
    A6        2.07004   0.00044  -0.00011   0.00453   0.00441   2.07445
    A7        2.07005   0.00044  -0.00011   0.00453   0.00441   2.07446
    A8        2.07003   0.00044  -0.00011   0.00457   0.00445   2.07447
    A9        2.07001   0.00044  -0.00012   0.00458   0.00446   2.07447
   A10        1.97010  -0.00107   0.00028  -0.01106  -0.01078   1.95932
   A11        2.07015   0.00043  -0.00011   0.00445   0.00433   2.07448
   A12        2.07002   0.00044  -0.00012   0.00452   0.00440   2.07442
   A13        2.07008   0.00043  -0.00011   0.00454   0.00443   2.07451
   A14        2.06996   0.00044  -0.00011   0.00461   0.00449   2.07445
   A15        1.97006  -0.00106   0.00028  -0.01103  -0.01075   1.95931
    D1       -2.50099   0.00069  -0.00018   0.00714   0.00697  -2.49402
    D2        0.00007  -0.00000   0.00000  -0.00008  -0.00008  -0.00002
    D3       -0.00007   0.00000   0.00000   0.00007   0.00007   0.00001
    D4        2.50099  -0.00069   0.00018  -0.00716  -0.00699   2.49400
    D5        2.50101  -0.00069   0.00018  -0.00725  -0.00708   2.49392
    D6       -0.00009   0.00000  -0.00000   0.00006   0.00006  -0.00003
    D7       -0.00001  -0.00000   0.00000  -0.00003  -0.00003  -0.00004
    D8       -2.50111   0.00069  -0.00018   0.00728   0.00712  -2.49399
    D9        0.00010  -0.00000  -0.00000  -0.00007  -0.00008   0.00002
   D10        2.50100  -0.00069   0.00018  -0.00709  -0.00692   2.49408
   D11       -2.50087   0.00068  -0.00018   0.00702   0.00685  -2.49402
   D12        0.00003  -0.00000   0.00000   0.00000   0.00001   0.00004
         Item               Value     Threshold  Converged?
 Maximum Force            0.003316     0.000450     NO 
 RMS     Force            0.001145     0.000300     NO 
 Maximum Displacement     0.006888     0.001800     NO 
 RMS     Displacement     0.003452     0.001200     NO 
 Predicted change in Energy=-9.663137D-05
 GradGradGradGradGradGradGradGradGradGradGradGradGradGradGradGradGradGrad

                          Input orientation:                          
 ---------------------------------------------------------------------
 Center     Atomic      Atomic             Coordinates (Angstroms)
 Number     Number       Type             X           Y           Z
 ---------------------------------------------------------------------
      1          6           0        1.001013    2.006658    1.031726
      2          6           0        1.986881    2.088632    2.160740
      3          6           0        1.379811    0.767080    1.788854
      4          1           0       -0.009020    2.430532    1.174074
      5          1           0        1.364804    2.130931   -0.003799
      6          1           0        3.050941    2.271138    1.927143
      7          1           0        1.677115    2.570754    3.105039
      8          1           0        2.012639    0.010842    1.291123
      9          1           0        0.638815    0.310533    2.469000
 ---------------------------------------------------------------------
                    Distance matrix (angstroms):
                    1          2          3          4          5
     1  C    0.000000
     2  C    1.501109   0.000000
     3  C    1.501095   1.501111   0.000000
     4  H    1.104581   2.252560   2.252528   0.000000
     5  H    1.104581   2.252553   2.252536   1.834268   0.000000
     6  H    2.252537   1.104581   2.252551   3.155294   2.567343
     7  H    2.252542   1.104580   2.252548   2.567361   3.155290
     8  H    2.252544   2.252578   1.104583   3.155266   2.567350
     9  H    2.252506   2.252541   1.104585   2.567279   3.155256
                    6          7          8          9
     6  H    0.000000
     7  H    1.834286   0.000000
     8  H    2.567397   3.155315   0.000000
     9  H    3.155302   2.567335   1.834285   0.000000
 Stoichiometry    C3H6
 Framework group  C1[X(C3H6)]
 Deg. of freedom    21
 Full point group                 C1      NOp   1
 Largest Abelian subgroup         C1      NOp   1
 Largest concise Abelian subgroup C1      NOp   1
                         Standard orientation:                         
 ---------------------------------------------------------------------
 Center     Atomic      Atomic             Coordinates (Angstroms)
 Number     Number       Type             X           Y           Z
 ---------------------------------------------------------------------
      1          6           0        0.351093   -0.792355   -0.000001
      2          6           0       -0.861763    0.092127    0.000001
      3          6           0        0.510657    0.700236   -0.000006
      4          1           0        0.600512   -1.355162    0.917135
      5          1           0        0.600485   -1.355179   -0.917133
      6          1           0       -1.473866    0.157540   -0.917141
      7          1           0       -1.473860    0.157558    0.917145
      8          1           0        0.873421    1.197622   -0.917127
      9          1           0        0.873389    1.197573    0.917158
 ---------------------------------------------------------------------
 Rotational constants (GHZ):     20.0159965     20.0154677     12.5325078
 Standard basis: VSTO-6G (5D, 7F)
 There are    18 symmetry adapted cartesian basis functions of A   symmetry.
 There are    18 symmetry adapted basis functions of A   symmetry.
    18 basis functions,   108 primitive gaussians,    18 cartesian basis functions
     9 alpha electrons        9 beta electrons
       nuclear repulsion energy        52.7640401284 Hartrees.
 Integral buffers will be    131072 words long.
 Regular integral format.
 Two-electron integral symmetry is turned off.
 Do NDO integrals.
 One-electron integrals computed using PRISM.
 NBasis=    18 RedAO= F EigKep=  0.00D+00  NBF=    18
 NBsUse=    18 1.00D-04 EigRej=  0.00D+00 NBFU=    18
 Initial guess from the checkpoint file:  "cyclopropane-opt.chk"
 B after Tr=    -0.000000   -0.000000    0.000000
         Rot=    0.721380    0.000002    0.000000    0.692540 Ang=  87.66 deg.
 Overlap will be assumed to be unity.
 Keep J ints in memory in canonical form, NReq=886606.
 Requested convergence on RMS density matrix=1.00D-08 within 128 cycles.
 Requested convergence on MAX density matrix=1.00D-06.
 Requested convergence on             energy=1.00D-06.
 No special actions if energy rises.
 SCF Done:  E(RAM1) =  0.282616813397E-01 A.U. after    8 cycles
            NFock=  7  Conv=0.74D-08     -V/T= 1.0026
 Calling FoFJK, ICntrl=      2127 FMM=F ISym2X=0 I1Cent= 0 IOpClX= 0 NMat=1 NMatS=1 NMatT=0.
 ***** Axes restored to original set *****
 -------------------------------------------------------------------
 Center     Atomic                   Forces (Hartrees/Bohr)
 Number     Number              X              Y              Z
 -------------------------------------------------------------------
      1        6          -0.000073147    0.000065039   -0.000103843
      2        6           0.000080226    0.000070340    0.000073007
      3        6          -0.000014576   -0.000138357    0.000024181
      4        1           0.000332441    0.000063725   -0.000759856
      5        1          -0.000756053    0.000300231    0.000172838
      6        1          -0.000296349    0.000337085    0.000702459
      7        1           0.000794079    0.000099614   -0.000232415
      8        1          -0.000579277   -0.000277543    0.000529756
      9        1           0.000512656   -0.000520134   -0.000406126
 -------------------------------------------------------------------
 Cartesian Forces:  Max     0.000794079 RMS     0.000395415

 GradGradGradGradGradGradGradGradGradGradGradGradGradGradGradGradGradGrad
 Berny optimization.
 Using GEDIIS/GDIIS optimizer.
 FormGI is forming the generalized inverse of G from B-inverse, IUseBI=4.
 Internal  Forces:  Max     0.000614476 RMS     0.000357922
 Search for a local minimum.
 Step number   3 out of a maximum of   46
 All quantities printed in internal units (Hartrees-Bohrs-Radians)
 Mixed Optimization -- En-DIIS/RFO-DIIS
 Update second derivatives using D2CorX and points    1    2    3
 DE= -1.14D-04 DEPred=-9.66D-05 R= 1.18D+00
 TightC=F SS=  1.41D+00  RLast= 3.47D-02 DXNew= 5.0454D-01 1.0403D-01
 Trust test= 1.18D+00 RLast= 3.47D-02 DXMaxT set to 3.00D-01
 ITU=  1  1  0
 Use linear search instead of GDIIS.
     Eigenvalues ---    0.01963   0.03061   0.03061   0.03061   0.03406
     Eigenvalues ---    0.03407   0.05945   0.10341   0.10341   0.16000
     Eigenvalues ---    0.16000   0.16000   0.27685   0.27690   0.35210
     Eigenvalues ---    0.35211   0.35211   0.35212   0.35223   0.38118
     Eigenvalues ---    0.45298
 RFO step:  Lambda=-3.73575312D-05 EMin= 1.96295304D-02
 Quartic linear search produced a step of  0.21031.
 Iteration  1 RMS(Cart)=  0.00398560 RMS(Int)=  0.00001125
 Iteration  2 RMS(Cart)=  0.00000945 RMS(Int)=  0.00000611
 Iteration  3 RMS(Cart)=  0.00000000 RMS(Int)=  0.00000611
 Variable       Old X    -DE/DX   Delta X   Delta X   Delta X     New X
                                 (Linear)    (Quad)   (Total)
    R1        2.83668   0.00054  -0.00219   0.00221   0.00002   2.83670
    R2        2.83666   0.00056  -0.00221   0.00226   0.00005   2.83671
    R3        2.08736  -0.00038  -0.00011  -0.00046  -0.00057   2.08679
    R4        2.08735  -0.00038  -0.00011  -0.00046  -0.00057   2.08679
    R5        2.83669   0.00054  -0.00219   0.00219   0.00000   2.83669
    R6        2.08736  -0.00038  -0.00010  -0.00046  -0.00057   2.08679
    R7        2.08735  -0.00038  -0.00010  -0.00046  -0.00057   2.08679
    R8        2.08736  -0.00038  -0.00010  -0.00047  -0.00057   2.08679
    R9        2.08736  -0.00038  -0.00011  -0.00047  -0.00057   2.08679
    A1        2.07449   0.00025   0.00093   0.00288   0.00380   2.07829
    A2        2.07448   0.00025   0.00093   0.00288   0.00381   2.07828
    A3        2.07446   0.00025   0.00092   0.00293   0.00385   2.07830
    A4        2.07447   0.00025   0.00092   0.00292   0.00383   2.07831
    A5        1.95929  -0.00061  -0.00225  -0.00706  -0.00931   1.94998
    A6        2.07445   0.00025   0.00093   0.00292   0.00384   2.07829
    A7        2.07446   0.00025   0.00093   0.00292   0.00384   2.07830
    A8        2.07447   0.00025   0.00094   0.00289   0.00382   2.07829
    A9        2.07447   0.00025   0.00094   0.00289   0.00383   2.07829
   A10        1.95932  -0.00061  -0.00227  -0.00708  -0.00934   1.94998
   A11        2.07448   0.00025   0.00091   0.00292   0.00383   2.07831
   A12        2.07442   0.00026   0.00093   0.00296   0.00388   2.07830
   A13        2.07451   0.00025   0.00093   0.00285   0.00378   2.07829
   A14        2.07445   0.00025   0.00094   0.00289   0.00383   2.07828
   A15        1.95931  -0.00061  -0.00226  -0.00708  -0.00933   1.94998
    D1       -2.49402   0.00040   0.00147   0.00463   0.00611  -2.48790
    D2       -0.00002  -0.00000  -0.00002   0.00005   0.00003   0.00001
    D3        0.00001   0.00000   0.00001  -0.00004  -0.00002  -0.00001
    D4        2.49400  -0.00040  -0.00147  -0.00462  -0.00611   2.48790
    D5        2.49392  -0.00040  -0.00149  -0.00449  -0.00599   2.48793
    D6       -0.00003   0.00000   0.00001   0.00001   0.00002  -0.00001
    D7       -0.00004   0.00000  -0.00001   0.00003   0.00003  -0.00001
    D8       -2.49399   0.00040   0.00150   0.00453   0.00604  -2.48795
    D9        0.00002  -0.00000  -0.00002   0.00001  -0.00001   0.00002
   D10        2.49408  -0.00040  -0.00146  -0.00471  -0.00618   2.48790
   D11       -2.49402   0.00040   0.00144   0.00468   0.00613  -2.48789
   D12        0.00004  -0.00000   0.00000  -0.00004  -0.00004  -0.00000
         Item               Value     Threshold  Converged?
 Maximum Force            0.000614     0.000450     NO 
 RMS     Force            0.000358     0.000300     NO 
 Maximum Displacement     0.009436     0.001800     NO 
 RMS     Displacement     0.003986     0.001200     NO 
 Predicted change in Energy=-2.256160D-05
 GradGradGradGradGradGradGradGradGradGradGradGradGradGradGradGradGradGrad

                          Input orientation:                          
 ---------------------------------------------------------------------
 Center     Atomic      Atomic             Coordinates (Angstroms)
 Number     Number       Type             X           Y           Z
 ---------------------------------------------------------------------
      1          6           0        1.000993    2.006666    1.031704
      2          6           0        1.986866    2.088625    2.160727
      3          6           0        1.379794    0.767068    1.788855
      4          1           0       -0.008830    2.431897    1.169081
      5          1           0        1.360310    2.133290   -0.004778
      6          1           0        3.051102    2.273837    1.931524
      7          1           0        1.681971    2.572449    3.105391
      8          1           0        2.009964    0.007322    1.293767
      9          1           0        0.640829    0.305947    2.467631
 ---------------------------------------------------------------------
                    Distance matrix (angstroms):
                    1          2          3          4          5
     1  C    0.000000
     2  C    1.501118   0.000000
     3  C    1.501123   1.501112   0.000000
     4  H    1.104281   2.254773   2.254784   0.000000
     5  H    1.104281   2.254768   2.254786   1.828020   0.000000
     6  H    2.254774   1.104281   2.254768   3.157449   2.574451
     7  H    2.254777   1.104281   2.254768   2.574463   3.157448
     8  H    2.254789   2.254767   1.104283   3.157474   2.574492
     9  H    2.254784   2.254761   1.104282   2.574481   3.157474
                    6          7          8          9
     6  H    0.000000
     7  H    1.828018   0.000000
     8  H    2.574450   3.157442   0.000000
     9  H    3.157439   2.574442   1.828022   0.000000
 Stoichiometry    C3H6
 Framework group  C1[X(C3H6)]
 Deg. of freedom    21
 Full point group                 C1      NOp   1
 Largest Abelian subgroup         C1      NOp   1
 Largest concise Abelian subgroup C1      NOp   1
                         Standard orientation:                         
 ---------------------------------------------------------------------
 Center     Atomic      Atomic             Coordinates (Angstroms)
 Number     Number       Type             X           Y           Z
 ---------------------------------------------------------------------
      1          6           0        0.817649    0.287362    0.000000
      2          6           0       -0.159962   -0.851775    0.000001
      3          6           0       -0.657685    0.564420   -0.000001
      4          1           0        1.402294    0.492824    0.914010
      5          1           0        1.402296    0.492812   -0.914010
      6          1           0       -0.274339   -1.460823   -0.914009
      7          1           0       -0.274346   -1.460824    0.914009
      8          1           0       -1.127964    0.967986   -0.914010
      9          1           0       -1.127959    0.967981    0.914012
 ---------------------------------------------------------------------
 Rotational constants (GHZ):     20.0139590     20.0135820     12.5094712
 Standard basis: VSTO-6G (5D, 7F)
 There are    18 symmetry adapted cartesian basis functions of A   symmetry.
 There are    18 symmetry adapted basis functions of A   symmetry.
    18 basis functions,   108 primitive gaussians,    18 cartesian basis functions
     9 alpha electrons        9 beta electrons
       nuclear repulsion energy        52.7563116310 Hartrees.
 Integral buffers will be    131072 words long.
 Regular integral format.
 Two-electron integral symmetry is turned off.
 Do NDO integrals.
 One-electron integrals computed using PRISM.
 NBasis=    18 RedAO= F EigKep=  0.00D+00  NBF=    18
 NBsUse=    18 1.00D-04 EigRej=  0.00D+00 NBFU=    18
 Initial guess from the checkpoint file:  "cyclopropane-opt.chk"
 B after Tr=    -0.000000   -0.000000    0.000000
         Rot=    0.734525    0.000001    0.000001   -0.678582 Ang=  85.47 deg.
 Overlap will be assumed to be unity.
 Keep J ints in memory in canonical form, NReq=886606.
 Requested convergence on RMS density matrix=1.00D-08 within 128 cycles.
 Requested convergence on MAX density matrix=1.00D-06.
 Requested convergence on             energy=1.00D-06.
 No special actions if energy rises.
 SCF Done:  E(RAM1) =  0.282392073559E-01 A.U. after    8 cycles
            NFock=  7  Conv=0.48D-08     -V/T= 1.0026
 Calling FoFJK, ICntrl=      2127 FMM=F ISym2X=0 I1Cent= 0 IOpClX= 0 NMat=1 NMatS=1 NMatT=0.
 ***** Axes restored to original set *****
 -------------------------------------------------------------------
 Center     Atomic                   Forces (Hartrees/Bohr)
 Number     Number              X              Y              Z
 -------------------------------------------------------------------
      1        6          -0.000049033    0.000041988   -0.000068485
      2        6           0.000061862    0.000055949    0.000057507
      3        6          -0.000009646   -0.000097101    0.000013416
      4        1           0.000087496   -0.000038570   -0.000010569
      5        1          -0.000030639   -0.000013223    0.000090422
      6        1          -0.000092179   -0.000016332    0.000018684
      7        1           0.000024988   -0.000041901   -0.000082053
      8        1          -0.000055801    0.000068027    0.000041467
      9        1           0.000062951    0.000041164   -0.000060391
 -------------------------------------------------------------------
 Cartesian Forces:  Max     0.000097101 RMS     0.000055896

 GradGradGradGradGradGradGradGradGradGradGradGradGradGradGradGradGradGrad
 Berny optimization.
 Using GEDIIS/GDIIS optimizer.
 FormGI is forming the generalized inverse of G from B-inverse, IUseBI=4.
 Internal  Forces:  Max     0.000097237 RMS     0.000039350
 Search for a local minimum.
 Step number   4 out of a maximum of   46
 All quantities printed in internal units (Hartrees-Bohrs-Radians)
 Mixed Optimization -- En-DIIS/RFO-DIIS
 Swapping is turned off.
 Update second derivatives using D2CorX and points    1    2    3    4
 DE= -2.25D-05 DEPred=-2.26D-05 R= 9.96D-01
 TightC=F SS=  1.41D+00  RLast= 2.57D-02 DXNew= 5.0454D-01 7.7164D-02
 Trust test= 9.96D-01 RLast= 2.57D-02 DXMaxT set to 3.00D-01
 ITU=  1  1  1  0
     Eigenvalues ---    0.01965   0.03065   0.03065   0.03065   0.03399
     Eigenvalues ---    0.03400   0.06098   0.10301   0.10302   0.16000
     Eigenvalues ---    0.16000   0.16000   0.27645   0.27650   0.35210
     Eigenvalues ---    0.35211   0.35211   0.35212   0.35223   0.36063
     Eigenvalues ---    0.46526
 En-DIIS/RFO-DIIS IScMMF=        0 using points:     4    3
 RFO step:  Lambda=-8.93834097D-08.
 DidBck=F Rises=F RFO-DIIS coefs:    1.00545   -0.00545
 Iteration  1 RMS(Cart)=  0.00010141 RMS(Int)=  0.00000003
 Iteration  2 RMS(Cart)=  0.00000000 RMS(Int)=  0.00000003
 Variable       Old X    -DE/DX   Delta X   Delta X   Delta X     New X
                                 (Linear)    (Quad)   (Total)
    R1        2.83670  -0.00001   0.00000   0.00003   0.00003   2.83673
    R2        2.83671  -0.00001   0.00000   0.00001   0.00001   2.83672
    R3        2.08679  -0.00010  -0.00000  -0.00025  -0.00025   2.08654
    R4        2.08679  -0.00010  -0.00000  -0.00025  -0.00025   2.08654
    R5        2.83669  -0.00000   0.00000   0.00005   0.00005   2.83674
    R6        2.08679  -0.00010  -0.00000  -0.00024  -0.00025   2.08654
    R7        2.08679  -0.00010  -0.00000  -0.00024  -0.00025   2.08654
    R8        2.08679  -0.00010  -0.00000  -0.00025  -0.00025   2.08654
    R9        2.08679  -0.00010  -0.00000  -0.00025  -0.00025   2.08654
    A1        2.07829  -0.00000   0.00002  -0.00003  -0.00001   2.07828
    A2        2.07828  -0.00000   0.00002  -0.00003  -0.00001   2.07828
    A3        2.07830  -0.00000   0.00002  -0.00005  -0.00003   2.07827
    A4        2.07831  -0.00000   0.00002  -0.00006  -0.00004   2.07827
    A5        1.94998   0.00000  -0.00005   0.00010   0.00005   1.95003
    A6        2.07829   0.00000   0.00002  -0.00004  -0.00002   2.07827
    A7        2.07830   0.00000   0.00002  -0.00004  -0.00002   2.07827
    A8        2.07829   0.00000   0.00002  -0.00004  -0.00001   2.07828
    A9        2.07829   0.00000   0.00002  -0.00004  -0.00001   2.07828
   A10        1.94998   0.00000  -0.00005   0.00010   0.00005   1.95003
   A11        2.07831  -0.00000   0.00002  -0.00006  -0.00004   2.07827
   A12        2.07830  -0.00000   0.00002  -0.00006  -0.00003   2.07827
   A13        2.07829  -0.00000   0.00002  -0.00003  -0.00001   2.07828
   A14        2.07828   0.00000   0.00002  -0.00002  -0.00000   2.07828
   A15        1.94998   0.00000  -0.00005   0.00010   0.00005   1.95003
    D1       -2.48790  -0.00000   0.00003  -0.00008  -0.00005  -2.48795
    D2        0.00001   0.00000   0.00000  -0.00002  -0.00002  -0.00001
    D3       -0.00001  -0.00000  -0.00000   0.00002   0.00002   0.00001
    D4        2.48790   0.00000  -0.00003   0.00008   0.00005   2.48795
    D5        2.48793  -0.00000  -0.00003   0.00002  -0.00001   2.48792
    D6       -0.00001  -0.00000   0.00000   0.00001   0.00001  -0.00000
    D7       -0.00001   0.00000   0.00000   0.00000   0.00000  -0.00001
    D8       -2.48795   0.00000   0.00003  -0.00001   0.00002  -2.48793
    D9        0.00002  -0.00000  -0.00000  -0.00002  -0.00002  -0.00000
   D10        2.48790   0.00000  -0.00003   0.00010   0.00007   2.48796
   D11       -2.48789  -0.00000   0.00003  -0.00010  -0.00007  -2.48796
   D12       -0.00000  -0.00000  -0.00000   0.00001   0.00001   0.00001
         Item               Value     Threshold  Converged?
 Maximum Force            0.000097     0.000450     YES
 RMS     Force            0.000039     0.000300     YES
 Maximum Displacement     0.000241     0.001800     YES
 RMS     Displacement     0.000101     0.001200     YES
 Predicted change in Energy=-7.229537D-08
 Optimization completed.
    -- Stationary point found.
                           ----------------------------
                           !   Optimized Parameters   !
                           ! (Angstroms and Degrees)  !
 --------------------------                            --------------------------
 ! Name  Definition              Value          Derivative Info.                !
 --------------------------------------------------------------------------------
 ! R1    R(1,2)                  1.5011         -DE/DX =    0.0                 !
 ! R2    R(1,3)                  1.5011         -DE/DX =    0.0                 !
 ! R3    R(1,4)                  1.1043         -DE/DX =   -0.0001              !
 ! R4    R(1,5)                  1.1043         -DE/DX =   -0.0001              !
 ! R5    R(2,3)                  1.5011         -DE/DX =    0.0                 !
 ! R6    R(2,6)                  1.1043         -DE/DX =   -0.0001              !
 ! R7    R(2,7)                  1.1043         -DE/DX =   -0.0001              !
 ! R8    R(3,8)                  1.1043         -DE/DX =   -0.0001              !
 ! R9    R(3,9)                  1.1043         -DE/DX =   -0.0001              !
 ! A1    A(2,1,4)              119.0773         -DE/DX =    0.0                 !
 ! A2    A(2,1,5)              119.0769         -DE/DX =    0.0                 !
 ! A3    A(3,1,4)              119.078          -DE/DX =    0.0                 !
 ! A4    A(3,1,5)              119.0781         -DE/DX =    0.0                 !
 ! A5    A(4,1,5)              111.7257         -DE/DX =    0.0                 !
 ! A6    A(1,2,6)              119.0774         -DE/DX =    0.0                 !
 ! A7    A(1,2,7)              119.0777         -DE/DX =    0.0                 !
 ! A8    A(3,2,6)              119.0774         -DE/DX =    0.0                 !
 ! A9    A(3,2,7)              119.0774         -DE/DX =    0.0                 !
 ! A10   A(6,2,7)              111.7257         -DE/DX =    0.0                 !
 ! A11   A(1,3,8)              119.0783         -DE/DX =    0.0                 !
 ! A12   A(1,3,9)              119.0778         -DE/DX =    0.0                 !
 ! A13   A(2,3,8)              119.0772         -DE/DX =    0.0                 !
 ! A14   A(2,3,9)              119.0767         -DE/DX =    0.0                 !
 ! A15   A(8,3,9)              111.7257         -DE/DX =    0.0                 !
 ! D1    D(4,1,2,6)           -142.5464         -DE/DX =    0.0                 !
 ! D2    D(4,1,2,7)              0.0006         -DE/DX =    0.0                 !
 ! D3    D(5,1,2,6)             -0.0009         -DE/DX =    0.0                 !
 ! D4    D(5,1,2,7)            142.5461         -DE/DX =    0.0                 !
 ! D5    D(4,1,3,8)            142.5481         -DE/DX =    0.0                 !
 ! D6    D(4,1,3,9)             -0.0005         -DE/DX =    0.0                 !
 ! D7    D(5,1,3,8)             -0.0005         -DE/DX =    0.0                 !
 ! D8    D(5,1,3,9)           -142.5491         -DE/DX =    0.0                 !
 ! D9    D(6,2,3,8)              0.001          -DE/DX =    0.0                 !
 ! D10   D(6,2,3,9)            142.546          -DE/DX =    0.0                 !
 ! D11   D(7,2,3,8)           -142.5453         -DE/DX =    0.0                 !
 ! D12   D(7,2,3,9)             -0.0003         -DE/DX =    0.0                 !
 --------------------------------------------------------------------------------
 GradGradGradGradGradGradGradGradGradGradGradGradGradGradGradGradGradGrad

                          Input orientation:                          
 ---------------------------------------------------------------------
 Center     Atomic      Atomic             Coordinates (Angstroms)
 Number     Number       Type             X           Y           Z
 ---------------------------------------------------------------------
      1          6           0        1.000993    2.006666    1.031704
      2          6           0        1.986866    2.088625    2.160727
      3          6           0        1.379794    0.767068    1.788855
      4          1           0       -0.008830    2.431897    1.169081
      5          1           0        1.360310    2.133290   -0.004778
      6          1           0        3.051102    2.273837    1.931524
      7          1           0        1.681971    2.572449    3.105391
      8          1           0        2.009964    0.007322    1.293767
      9          1           0        0.640829    0.305947    2.467631
 ---------------------------------------------------------------------
                    Distance matrix (angstroms):
                    1          2          3          4          5
     1  C    0.000000
     2  C    1.501118   0.000000
     3  C    1.501123   1.501112   0.000000
     4  H    1.104281   2.254773   2.254784   0.000000
     5  H    1.104281   2.254768   2.254786   1.828020   0.000000
     6  H    2.254774   1.104281   2.254768   3.157449   2.574451
     7  H    2.254777   1.104281   2.254768   2.574463   3.157448
     8  H    2.254789   2.254767   1.104283   3.157474   2.574492
     9  H    2.254784   2.254761   1.104282   2.574481   3.157474
                    6          7          8          9
     6  H    0.000000
     7  H    1.828018   0.000000
     8  H    2.574450   3.157442   0.000000
     9  H    3.157439   2.574442   1.828022   0.000000
 Stoichiometry    C3H6
 Framework group  C1[X(C3H6)]
 Deg. of freedom    21
 Full point group                 C1      NOp   1
 Largest Abelian subgroup         C1      NOp   1
 Largest concise Abelian subgroup C1      NOp   1
                         Standard orientation:                         
 ---------------------------------------------------------------------
 Center     Atomic      Atomic             Coordinates (Angstroms)
 Number     Number       Type             X           Y           Z
 ---------------------------------------------------------------------
      1          6           0        0.817649    0.287362    0.000000
      2          6           0       -0.159962   -0.851775    0.000001
      3          6           0       -0.657685    0.564420   -0.000001
      4          1           0        1.402294    0.492824    0.914010
      5          1           0        1.402296    0.492812   -0.914010
      6          1           0       -0.274339   -1.460823   -0.914009
      7          1           0       -0.274346   -1.460824    0.914009
      8          1           0       -1.127964    0.967986   -0.914010
      9          1           0       -1.127959    0.967981    0.914012
 ---------------------------------------------------------------------
 Rotational constants (GHZ):     20.0139590     20.0135820     12.5094712

 **********************************************************************

            Population analysis using the SCF density.

 **********************************************************************

 Orbital symmetries:
       Occupied  (A) (A) (A) (A) (A) (A) (A) (A) (A)
       Virtual   (A) (A) (A) (A) (A) (A) (A) (A) (A)
 The electronic state is 1-A.
 Alpha  occ. eigenvalues --   -1.39211  -0.84937  -0.84937  -0.61343  -0.56827
 Alpha  occ. eigenvalues --   -0.44906  -0.44905  -0.42174  -0.42174
 Alpha virt. eigenvalues --    0.11545   0.13699   0.15521   0.15521   0.17447
 Alpha virt. eigenvalues --    0.17447   0.18730   0.18743   0.18743
          Condensed to atoms (all electrons):
               1          2          3          4          5          6
     1  C    4.215196   0.000000   0.000000   0.000000   0.000000   0.000000
     2  C    0.000000   4.215202   0.000000   0.000000   0.000000   0.000000
     3  C    0.000000   0.000000   4.215196   0.000000   0.000000   0.000000
     4  H    0.000000   0.000000   0.000000   0.892400   0.000000   0.000000
     5  H    0.000000   0.000000   0.000000   0.000000   0.892401   0.000000
     6  H    0.000000   0.000000   0.000000   0.000000   0.000000   0.892402
     7  H    0.000000   0.000000   0.000000   0.000000   0.000000   0.000000
     8  H    0.000000   0.000000   0.000000   0.000000   0.000000   0.000000
     9  H    0.000000   0.000000   0.000000   0.000000   0.000000   0.000000
               7          8          9
     1  C    0.000000   0.000000   0.000000
     2  C    0.000000   0.000000   0.000000
     3  C    0.000000   0.000000   0.000000
     4  H    0.000000   0.000000   0.000000
     5  H    0.000000   0.000000   0.000000
     6  H    0.000000   0.000000   0.000000
     7  H    0.892402   0.000000   0.000000
     8  H    0.000000   0.892400   0.000000
     9  H    0.000000   0.000000   0.892401
 Mulliken charges:
               1
     1  C   -0.215196
     2  C   -0.215202
     3  C   -0.215196
     4  H    0.107600
     5  H    0.107599
     6  H    0.107598
     7  H    0.107598
     8  H    0.107600
     9  H    0.107599
 Sum of Mulliken charges =   0.00000
 Mulliken charges with hydrogens summed into heavy atoms:
               1
     1  C    0.000003
     2  C   -0.000005
     3  C    0.000002
 Charge=              0.0000 electrons
 Dipole moment (field-independent basis, Debye):
    X=             -0.0000    Y=             -0.0000    Z=             -0.0000  Tot=              0.0000
 N-N= 5.275631163095D+01 E-N=-8.246039394482D+01  KE=-1.096746481264D+01
 1\1\GINC-GTX1080DELTA\FOpt\RAM1\ZDO\C3H6\MVEROT\16-Apr-2022\0\\#n AM1 
 Opt freq\\Optimisation de geometrie\\0,1\C,1.0009928532,2.0066656511,1
 .0317036519\C,1.9868658515,2.0886250639,2.1607270423\C,1.3797942796,0.
 7670678902,1.7888549462\H,-0.0088300119,2.4318969273,1.1690808122\H,1.
 3603103505,2.1332896598,-0.0047782202\H,3.0511020988,2.2738368246,1.93
 15238559\H,1.6819713732,2.5724492526,3.1053906001\H,2.0099642314,0.007
 322092,1.2937667242\H,0.6408289737,0.3059466385,2.4676305874\\Version=
 AM64L-G09RevD.01\State=1-A\HF=0.0282392\RMSD=4.792e-09\RMSF=5.590e-05\
 Dipole=0.000006,0.0000021,0.0000062\PG=C01 [X(C3H6)]\\@


 WE HAVE LEARNED THAT NOTHING IS SIMPLE AND
 RATIONAL EXCEPT WHAT WE OURSELVES HAVE INVENTED;
 THAT GOD THINKS IN TERMS NEITHER OF EUCLID OR RIEMANN; THAT SCIENCE HAS "EXPLAINED" NOTHING;
 THAT THE MORE WE KNOW THE MORE FANTASTIC THE WORLD BECOMES
 AND THE PROFOUNDER THE SURROUNDING DARKNESS.
   --  ALDOUS HUXLEY
 Job cpu time:       0 days  0 hours  0 minutes  2.4 seconds.
 File lengths (MBytes):  RWF=     72 Int=      0 D2E=      0 Chk=      3 Scr=      2
 Normal termination of Gaussian 09 at Sat Apr 16 12:29:54 2022.
 Link1:  Proceeding to internal job step number  2.
 -------------------------------------------------------------
 #N Geom=AllCheck Guess=TCheck SCRF=Check GenChk RAM1/ZDO Freq
 -------------------------------------------------------------
 1/10=4,29=7,30=1,38=1,40=1/1,3;
 2/12=2,40=1/2;
 3/5=2,14=-4,16=1,25=1,41=700000,70=2,71=2,116=1,135=40,140=1/1,2,3;
 4/5=101,35=1/1;
 5/5=2,35=1,98=1/2;
 8/6=4,10=90,11=11/1;
 11/6=1,8=1,9=11,15=111,16=1/1,2,10;
 10/6=1/2;
 6/7=2,8=2,9=2,10=2,18=1,28=1/1;
 7/8=1,10=1,25=1/1,2,3,16;
 1/10=4,30=1/3;
 99//99;
 Structure from the checkpoint file:  "cyclopropane-opt.chk"
 -------------------------
 Optimisation de geometrie
 -------------------------
 Charge =  0 Multiplicity = 1
 Redundant internal coordinates found in file.
 C,0,1.0009928532,2.0066656511,1.0317036519
 C,0,1.9868658515,2.0886250639,2.1607270423
 C,0,1.3797942796,0.7670678902,1.7888549462
 H,0,-0.0088300119,2.4318969273,1.1690808122
 H,0,1.3603103505,2.1332896598,-0.0047782202
 H,0,3.0511020988,2.2738368246,1.9315238559
 H,0,1.6819713732,2.5724492526,3.1053906001
 H,0,2.0099642314,0.007322092,1.2937667242
 H,0,0.6408289737,0.3059466385,2.4676305874
 Recover connectivity data from disk.

 GradGradGradGradGradGradGradGradGradGradGradGradGradGradGradGradGradGrad
 Berny optimization.
 Initialization pass.
                           ----------------------------
                           !    Initial Parameters    !
                           ! (Angstroms and Degrees)  !
 --------------------------                            --------------------------
 ! Name  Definition              Value          Derivative Info.                !
 --------------------------------------------------------------------------------
 ! R1    R(1,2)                  1.5011         calculate D2E/DX2 analytically  !
 ! R2    R(1,3)                  1.5011         calculate D2E/DX2 analytically  !
 ! R3    R(1,4)                  1.1043         calculate D2E/DX2 analytically  !
 ! R4    R(1,5)                  1.1043         calculate D2E/DX2 analytically  !
 ! R5    R(2,3)                  1.5011         calculate D2E/DX2 analytically  !
 ! R6    R(2,6)                  1.1043         calculate D2E/DX2 analytically  !
 ! R7    R(2,7)                  1.1043         calculate D2E/DX2 analytically  !
 ! R8    R(3,8)                  1.1043         calculate D2E/DX2 analytically  !
 ! R9    R(3,9)                  1.1043         calculate D2E/DX2 analytically  !
 ! A1    A(2,1,4)              119.0773         calculate D2E/DX2 analytically  !
 ! A2    A(2,1,5)              119.0769         calculate D2E/DX2 analytically  !
 ! A3    A(3,1,4)              119.078          calculate D2E/DX2 analytically  !
 ! A4    A(3,1,5)              119.0781         calculate D2E/DX2 analytically  !
 ! A5    A(4,1,5)              111.7257         calculate D2E/DX2 analytically  !
 ! A6    A(1,2,6)              119.0774         calculate D2E/DX2 analytically  !
 ! A7    A(1,2,7)              119.0777         calculate D2E/DX2 analytically  !
 ! A8    A(3,2,6)              119.0774         calculate D2E/DX2 analytically  !
 ! A9    A(3,2,7)              119.0774         calculate D2E/DX2 analytically  !
 ! A10   A(6,2,7)              111.7257         calculate D2E/DX2 analytically  !
 ! A11   A(1,3,8)              119.0783         calculate D2E/DX2 analytically  !
 ! A12   A(1,3,9)              119.0778         calculate D2E/DX2 analytically  !
 ! A13   A(2,3,8)              119.0772         calculate D2E/DX2 analytically  !
 ! A14   A(2,3,9)              119.0767         calculate D2E/DX2 analytically  !
 ! A15   A(8,3,9)              111.7257         calculate D2E/DX2 analytically  !
 ! D1    D(4,1,2,6)           -142.5464         calculate D2E/DX2 analytically  !
 ! D2    D(4,1,2,7)              0.0006         calculate D2E/DX2 analytically  !
 ! D3    D(5,1,2,6)             -0.0009         calculate D2E/DX2 analytically  !
 ! D4    D(5,1,2,7)            142.5461         calculate D2E/DX2 analytically  !
 ! D5    D(4,1,3,8)            142.5481         calculate D2E/DX2 analytically  !
 ! D6    D(4,1,3,9)             -0.0005         calculate D2E/DX2 analytically  !
 ! D7    D(5,1,3,8)             -0.0005         calculate D2E/DX2 analytically  !
 ! D8    D(5,1,3,9)           -142.5491         calculate D2E/DX2 analytically  !
 ! D9    D(6,2,3,8)              0.001          calculate D2E/DX2 analytically  !
 ! D10   D(6,2,3,9)            142.546          calculate D2E/DX2 analytically  !
 ! D11   D(7,2,3,8)           -142.5453         calculate D2E/DX2 analytically  !
 ! D12   D(7,2,3,9)             -0.0003         calculate D2E/DX2 analytically  !
 --------------------------------------------------------------------------------
 Trust Radius=3.00D-01 FncErr=1.00D-07 GrdErr=1.00D-07
 Number of steps in this run=      2 maximum allowed number of steps=      2.
 GradGradGradGradGradGradGradGradGradGradGradGradGradGradGradGradGradGrad

                          Input orientation:                          
 ---------------------------------------------------------------------
 Center     Atomic      Atomic             Coordinates (Angstroms)
 Number     Number       Type             X           Y           Z
 ---------------------------------------------------------------------
      1          6           0        1.000993    2.006666    1.031704
      2          6           0        1.986866    2.088625    2.160727
      3          6           0        1.379794    0.767068    1.788855
      4          1           0       -0.008830    2.431897    1.169081
      5          1           0        1.360310    2.133290   -0.004778
      6          1           0        3.051102    2.273837    1.931524
      7          1           0        1.681971    2.572449    3.105391
      8          1           0        2.009964    0.007322    1.293767
      9          1           0        0.640829    0.305947    2.467631
 ---------------------------------------------------------------------
                    Distance matrix (angstroms):
                    1          2          3          4          5
     1  C    0.000000
     2  C    1.501118   0.000000
     3  C    1.501123   1.501112   0.000000
     4  H    1.104281   2.254773   2.254784   0.000000
     5  H    1.104281   2.254768   2.254786   1.828020   0.000000
     6  H    2.254774   1.104281   2.254768   3.157449   2.574451
     7  H    2.254777   1.104281   2.254768   2.574463   3.157448
     8  H    2.254789   2.254767   1.104283   3.157474   2.574492
     9  H    2.254784   2.254761   1.104282   2.574481   3.157474
                    6          7          8          9
     6  H    0.000000
     7  H    1.828018   0.000000
     8  H    2.574450   3.157442   0.000000
     9  H    3.157439   2.574442   1.828022   0.000000
 Stoichiometry    C3H6
 Framework group  C1[X(C3H6)]
 Deg. of freedom    21
 Full point group                 C1      NOp   1
 Largest Abelian subgroup         C1      NOp   1
 Largest concise Abelian subgroup C1      NOp   1
                         Standard orientation:                         
 ---------------------------------------------------------------------
 Center     Atomic      Atomic             Coordinates (Angstroms)
 Number     Number       Type             X           Y           Z
 ---------------------------------------------------------------------
      1          6           0        0.817649    0.287362    0.000000
      2          6           0       -0.159962   -0.851775    0.000001
      3          6           0       -0.657685    0.564420   -0.000001
      4          1           0        1.402294    0.492824    0.914010
      5          1           0        1.402296    0.492812   -0.914010
      6          1           0       -0.274339   -1.460823   -0.914009
      7          1           0       -0.274346   -1.460824    0.914009
      8          1           0       -1.127964    0.967986   -0.914010
      9          1           0       -1.127959    0.967981    0.914012
 ---------------------------------------------------------------------
 Rotational constants (GHZ):     20.0139590     20.0135820     12.5094712
 Standard basis: VSTO-6G (5D, 7F)
 There are    18 symmetry adapted cartesian basis functions of A   symmetry.
 There are    18 symmetry adapted basis functions of A   symmetry.
    18 basis functions,   108 primitive gaussians,    18 cartesian basis functions
     9 alpha electrons        9 beta electrons
       nuclear repulsion energy        52.7563116310 Hartrees.
 Integral buffers will be    131072 words long.
 Regular integral format.
 Two-electron integral symmetry is turned off.
 Do NDO integrals.
 One-electron integrals computed using PRISM.
 NBasis=    18 RedAO= F EigKep=  0.00D+00  NBF=    18
 NBsUse=    18 1.00D-04 EigRej=  0.00D+00 NBFU=    18
 Initial guess from the checkpoint file:  "cyclopropane-opt.chk"
 B after Tr=     0.000000    0.000000   -0.000000
         Rot=    1.000000    0.000000   -0.000000   -0.000000 Ang=   0.00 deg.
 Overlap will be assumed to be unity.
 Keep J ints in memory in canonical form, NReq=886606.
 Requested convergence on RMS density matrix=1.00D-08 within 128 cycles.
 Requested convergence on MAX density matrix=1.00D-06.
 Requested convergence on             energy=1.00D-06.
 No special actions if energy rises.
 SCF Done:  E(RAM1) =  0.282392073556E-01 A.U. after    2 cycles
            NFock=  1  Conv=0.34D-09     -V/T= 1.0026
 Range of M.O.s used for correlation:     1    18
 NBasis=    18 NAE=     9 NBE=     9 NFC=     0 NFV=     0
 NROrb=     18 NOA=     9 NOB=     9 NVA=     9 NVB=     9
 Symmetrizing basis deriv contribution to polar:
 IMax=3 JMax=2 DiffMx= 0.00D+00
 G2DrvN: will do    10 centers at a time, making    1 passes.
 Calling FoFCou, ICntrl=  3107 FMM=F I1Cent=   0 AccDes= 0.00D+00.
 End of G2Drv F.D. properties file   721 does not exist.
 End of G2Drv F.D. properties file   722 does not exist.
 End of G2Drv F.D. properties file   788 does not exist.
          IDoAtm=111111111
          Differentiating once with respect to electric field.
                with respect to dipole field.
          Differentiating once with respect to nuclear coordinates.
          Electric field/nuclear overlap derivatives assumed to be zero.
 Keep J ints in memory in canonical form, NReq=870429.
          There are    30 degrees of freedom in the 1st order CPHF.  IDoFFX=5 NUNeed=    30.
 LinEq1:  Iter=  0 NonCon=    30 RMS=2.82D-01 Max=1.44D+00 NDo=    30
 AX will form    30 AO Fock derivatives at one time.
 LinEq1:  Iter=  1 NonCon=    30 RMS=2.64D-02 Max=1.31D-01 NDo=    30
 LinEq1:  Iter=  2 NonCon=    30 RMS=2.44D-03 Max=9.12D-03 NDo=    30
 LinEq1:  Iter=  3 NonCon=    30 RMS=2.47D-04 Max=8.71D-04 NDo=    30
 LinEq1:  Iter=  4 NonCon=    30 RMS=3.02D-05 Max=1.31D-04 NDo=    30
 LinEq1:  Iter=  5 NonCon=    30 RMS=2.75D-06 Max=1.19D-05 NDo=    30
 LinEq1:  Iter=  6 NonCon=    24 RMS=2.48D-07 Max=1.17D-06 NDo=    30
 LinEq1:  Iter=  7 NonCon=     2 RMS=2.78D-08 Max=7.95D-08 NDo=    30
 LinEq1:  Iter=  8 NonCon=     0 RMS=1.47D-09 Max=5.88D-09 NDo=    30
 Linear equations converged to 1.000D-08 1.000D-07 after     8 iterations.
 Isotropic polarizability for W=    0.000000       23.68 Bohr**3.
 End of Minotr F.D. properties file   721 does not exist.
 End of Minotr F.D. properties file   722 does not exist.
 End of Minotr F.D. properties file   788 does not exist.

 **********************************************************************

            Population analysis using the SCF density.

 **********************************************************************

 Orbital symmetries:
       Occupied  (A) (A) (A) (A) (A) (A) (A) (A) (A)
       Virtual   (A) (A) (A) (A) (A) (A) (A) (A) (A)
 The electronic state is 1-A.
 Alpha  occ. eigenvalues --   -1.39211  -0.84937  -0.84937  -0.61343  -0.56827
 Alpha  occ. eigenvalues --   -0.44906  -0.44905  -0.42174  -0.42174
 Alpha virt. eigenvalues --    0.11545   0.13699   0.15521   0.15521   0.17447
 Alpha virt. eigenvalues --    0.17447   0.18730   0.18743   0.18743
          Condensed to atoms (all electrons):
               1          2          3          4          5          6
     1  C    4.215196   0.000000   0.000000   0.000000   0.000000   0.000000
     2  C    0.000000   4.215202   0.000000   0.000000   0.000000   0.000000
     3  C    0.000000   0.000000   4.215196   0.000000   0.000000   0.000000
     4  H    0.000000   0.000000   0.000000   0.892400   0.000000   0.000000
     5  H    0.000000   0.000000   0.000000   0.000000   0.892401   0.000000
     6  H    0.000000   0.000000   0.000000   0.000000   0.000000   0.892402
     7  H    0.000000   0.000000   0.000000   0.000000   0.000000   0.000000
     8  H    0.000000   0.000000   0.000000   0.000000   0.000000   0.000000
     9  H    0.000000   0.000000   0.000000   0.000000   0.000000   0.000000
               7          8          9
     1  C    0.000000   0.000000   0.000000
     2  C    0.000000   0.000000   0.000000
     3  C    0.000000   0.000000   0.000000
     4  H    0.000000   0.000000   0.000000
     5  H    0.000000   0.000000   0.000000
     6  H    0.000000   0.000000   0.000000
     7  H    0.892402   0.000000   0.000000
     8  H    0.000000   0.892400   0.000000
     9  H    0.000000   0.000000   0.892401
 Mulliken charges:
               1
     1  C   -0.215196
     2  C   -0.215202
     3  C   -0.215196
     4  H    0.107600
     5  H    0.107599
     6  H    0.107598
     7  H    0.107598
     8  H    0.107600
     9  H    0.107599
 Sum of Mulliken charges =  -0.00000
 Mulliken charges with hydrogens summed into heavy atoms:
               1
     1  C    0.000003
     2  C   -0.000005
     3  C    0.000002
 APT charges:
               1
     1  C   -0.102777
     2  C   -0.102782
     3  C   -0.102776
     4  H    0.051390
     5  H    0.051390
     6  H    0.051389
     7  H    0.051389
     8  H    0.051390
     9  H    0.051389
 Sum of APT charges =  -0.00000
 APT charges with hydrogens summed into heavy atoms:
               1
     1  C    0.000002
     2  C   -0.000005
     3  C    0.000003
 Charge=              0.0000 electrons
 Dipole moment (field-independent basis, Debye):
    X=             -0.0000    Y=             -0.0000    Z=             -0.0000  Tot=              0.0000
 N-N= 5.275631163095D+01 E-N=-8.246039394388D+01  KE=-1.096746481275D+01
  Exact polarizability:  24.217   0.000  24.216  -0.000   0.000  22.606
 Approx polarizability:  15.028   0.000  15.027  -0.000   0.000  13.731
 Calling FoFJK, ICntrl=    100127 FMM=F ISym2X=0 I1Cent= 0 IOpClX= 0 NMat=1 NMatS=1 NMatT=0.
 Full mass-weighted force constant matrix:
 Low frequencies ---   -0.0122   -0.0013   -0.0004    9.0416   17.3723   17.6498
 Low frequencies ---  785.6636  785.6703  860.8139
 Diagonal vibrational polarizability:
        0.3145385       0.3145937       0.0741430
 Harmonic frequencies (cm**-1), IR intensities (KM/Mole), Raman scattering
 activities (A**4/AMU), depolarization ratios for plane and unpolarized
 incident light, reduced masses (AMU), force constants (mDyne/A),
 and normal coordinates:
                      1                      2                      3
                      A                      A                      A
 Frequencies --    785.6636               785.6703               860.8139
 Red. masses --      1.0088                 1.0088                 1.0540
 Frc consts  --      0.3669                 0.3669                 0.4602
 IR Inten    --      0.0000                 0.0000                 0.2442
  Atom  AN      X      Y      Z        X      Y      Z        X      Y      Z
     1   6     0.00   0.00  -0.00     0.00  -0.00  -0.01    -0.00   0.00   0.04
     2   6    -0.00   0.00   0.01     0.00   0.00   0.00    -0.00  -0.00   0.04
     3   6    -0.00  -0.00  -0.01    -0.00  -0.00   0.01     0.00  -0.00   0.04
     4   1    -0.21   0.44   0.04    -0.19  -0.17   0.18     0.32   0.11  -0.22
     5   1     0.21  -0.44   0.04     0.19   0.17   0.18    -0.32  -0.11  -0.22
     6   1     0.19   0.20  -0.17    -0.44   0.16  -0.06     0.06   0.34  -0.22
     7   1    -0.19  -0.20  -0.17     0.44  -0.16  -0.06    -0.06  -0.34  -0.22
     8   1    -0.35  -0.13   0.13    -0.12  -0.38  -0.12     0.26  -0.22  -0.22
     9   1     0.35   0.13   0.13     0.12   0.38  -0.12    -0.26   0.22  -0.22
                      4                      5                      6
                      A                      A                      A
 Frequencies --    969.0187              1024.7139              1024.7350
 Red. masses --      1.0078                 1.9214                 1.9211
 Frc consts  --      0.5576                 1.1887                 1.1885
 IR Inten    --      0.0000                 8.2391                 8.2385
  Atom  AN      X      Y      Z        X      Y      Z        X      Y      Z
     1   6    -0.00   0.00   0.00    -0.09   0.11  -0.00     0.16   0.09   0.00
     2   6     0.00  -0.00   0.00    -0.07  -0.18  -0.00    -0.12   0.07  -0.00
     3   6    -0.00   0.00  -0.00     0.17  -0.02   0.00     0.04  -0.16   0.00
     4   1     0.14  -0.39   0.00    -0.21   0.46   0.00     0.12   0.18  -0.00
     5   1    -0.14   0.39  -0.00    -0.21   0.46  -0.00     0.12   0.18   0.00
     6   1     0.40  -0.08  -0.00    -0.17  -0.15   0.00    -0.49   0.14  -0.00
     7   1    -0.40   0.08  -0.00    -0.17  -0.15  -0.00    -0.49   0.14   0.00
     8   1    -0.27  -0.31   0.00     0.34   0.19  -0.00    -0.14  -0.37  -0.00
     9   1     0.27   0.31   0.00     0.34   0.19   0.00    -0.14  -0.37   0.00
                      7                      8                      9
                      A                      A                      A
 Frequencies --   1154.1929              1154.1951              1156.9468
 Red. masses --      1.5401                 1.5401                 1.8212
 Frc consts  --      1.2088                 1.2088                 1.4363
 IR Inten    --      0.0000                 0.0000                 1.8882
  Atom  AN      X      Y      Z        X      Y      Z        X      Y      Z
[...]
                     19                     20                     21
                      A                      A                      A
 Frequencies --   3193.8797              3206.5587              3206.5658
 Red. masses --      1.0498                 1.0498                 1.0498
 Frc consts  --      6.3097                 6.3594                 6.3595
 IR Inten    --      0.0000                13.5156                13.5151
  Atom  AN      X      Y      Z        X      Y      Z        X      Y      Z
     1   6     0.03   0.01   0.00    -0.03  -0.01  -0.00    -0.04  -0.01  -0.00
     2   6    -0.01  -0.04   0.00     0.00   0.02   0.00    -0.01  -0.05   0.00
     3   6    -0.03   0.02   0.00    -0.04   0.03   0.00     0.00  -0.01  -0.00
     4   1    -0.21  -0.07  -0.34     0.19   0.07   0.31     0.23   0.08   0.37
     5   1    -0.21  -0.07   0.34     0.19   0.07  -0.31     0.23   0.08  -0.37
     6   1     0.04   0.22   0.34    -0.02  -0.11  -0.17     0.06   0.29   0.45
     7   1     0.04   0.22  -0.34    -0.02  -0.11   0.17     0.06   0.29  -0.45
     8   1     0.17  -0.14   0.34     0.24  -0.20   0.47    -0.04   0.04  -0.08
     9   1     0.17  -0.14  -0.34     0.24  -0.20  -0.47    -0.04   0.04   0.08

 -------------------
 - Thermochemistry -
 -------------------
 Temperature   298.150 Kelvin.  Pressure   1.00000 Atm.
 Atom     1 has atomic number  6 and mass  12.00000
 Atom     2 has atomic number  6 and mass  12.00000
 Atom     3 has atomic number  6 and mass  12.00000
 Atom     4 has atomic number  1 and mass   1.00783
 Atom     5 has atomic number  1 and mass   1.00783
 Atom     6 has atomic number  1 and mass   1.00783
 Atom     7 has atomic number  1 and mass   1.00783
 Atom     8 has atomic number  1 and mass   1.00783
 Atom     9 has atomic number  1 and mass   1.00783
 Molecular mass:    42.04695 amu.
 Principal axes and moments of inertia in atomic units:
                           1         2         3
     Eigenvalues --    90.17412  90.17582 144.26998
           X            0.99964  -0.02668  -0.00000
           Y            0.02668   0.99964   0.00000
           Z            0.00000  -0.00000   1.00000
 This molecule is an asymmetric top.
 Rotational symmetry number  1.
 Rotational temperatures (Kelvin)      0.96052     0.96050     0.60036
 Rotational constants (GHZ):          20.01396    20.01358    12.50947
 Zero-point vibrational energy     216684.4 (Joules/Mol)
                                   51.78881 (Kcal/Mol)
 Vibrational temperatures:   1130.39  1130.40  1238.52  1394.20  1474.33
          (Kelvin)           1474.36  1660.62  1660.63  1664.59  1664.60
                             1746.34  2018.89  2064.86  2064.87  2324.46
                             4515.04  4515.05  4557.75  4595.27  4613.52
                             4613.53
 
 Zero-point correction=                           0.082531 (Hartree/Particle)
 Thermal correction to Energy=                    0.085819
 Thermal correction to Enthalpy=                  0.086763
 Thermal correction to Gibbs Free Energy=         0.058257
 Sum of electronic and zero-point Energies=              0.110770
 Sum of electronic and thermal Energies=                 0.114058
 Sum of electronic and thermal Enthalpies=               0.115002
 Sum of electronic and thermal Free Energies=            0.086497
 
                     E (Thermal)             CV                S
                      KCal/Mol        Cal/Mol-Kelvin    Cal/Mol-Kelvin
 Total                   53.852             10.463             59.995
 Electronic               0.000              0.000              0.000
 Translational            0.889              2.981             37.136
 Rotational               0.889              2.981             21.689
 Vibrational             52.075              4.501              1.171
                       Q            Log10(Q)             Ln(Q)
 Total Bot       0.159770D-26        -26.796505        -61.701233
 Total V=0       0.146187D+12         11.164908         25.708152
 Vib (Bot)       0.121596D-37        -37.915082        -87.302703
 Vib (V=0)       0.111258D+01          0.046331          0.106681
 Electronic      0.100000D+01          0.000000          0.000000
 Translational   0.107166D+08          7.030057         16.187304
 Rotational      0.122608D+05          4.088520          9.414166
 ***** Axes restored to original set *****
 -------------------------------------------------------------------
 Center     Atomic                   Forces (Hartrees/Bohr)
 Number     Number              X              Y              Z
 -------------------------------------------------------------------
      1        6          -0.000049032    0.000041988   -0.000068486
      2        6           0.000061862    0.000055949    0.000057507
      3        6          -0.000009647   -0.000097101    0.000013417
      4        1           0.000087497   -0.000038570   -0.000010568
      5        1          -0.000030639   -0.000013223    0.000090422
      6        1          -0.000092179   -0.000016332    0.000018684
      7        1           0.000024988   -0.000041901   -0.000082053
      8        1          -0.000055801    0.000068027    0.000041467
      9        1           0.000062951    0.000041164   -0.000060391
 -------------------------------------------------------------------
 Cartesian Forces:  Max     0.000097101 RMS     0.000055896
 FormGI is forming the generalized inverse of G from B-inverse, IUseBI=4.

 GradGradGradGradGradGradGradGradGradGradGradGradGradGradGradGradGradGrad
 Berny optimization.
 Internal  Forces:  Max     0.000097237 RMS     0.000039350
 Search for a local minimum.
 Step number   1 out of a maximum of    2
 All quantities printed in internal units (Hartrees-Bohrs-Radians)
 Second derivative matrix not updated -- analytic derivatives used.
 ITU=  0
     Eigenvalues ---    0.01906   0.01906   0.02023   0.03917   0.04077
     Eigenvalues ---    0.04078   0.05866   0.05866   0.06085   0.08554
     Eigenvalues ---    0.13876   0.13876   0.33153   0.33154   0.34869
     Eigenvalues ---    0.34869   0.34983   0.35065   0.39680   0.39680
     Eigenvalues ---    0.46534
 Angle between quadratic step and forces=  15.70 degrees.
 Linear search not attempted -- first point.
 Iteration  1 RMS(Cart)=  0.00010402 RMS(Int)=  0.00000000
 Iteration  2 RMS(Cart)=  0.00000000 RMS(Int)=  0.00000000
 Variable       Old X    -DE/DX   Delta X   Delta X   Delta X     New X
                                 (Linear)    (Quad)   (Total)
    R1        2.83670  -0.00001   0.00000   0.00003   0.00003   2.83673
    R2        2.83671  -0.00001   0.00000   0.00002   0.00002   2.83673
    R3        2.08679  -0.00010   0.00000  -0.00026  -0.00026   2.08653
    R4        2.08679  -0.00010   0.00000  -0.00026  -0.00026   2.08653
    R5        2.83669  -0.00000   0.00000   0.00004   0.00004   2.83673
    R6        2.08679  -0.00010   0.00000  -0.00026  -0.00026   2.08653
    R7        2.08679  -0.00010   0.00000  -0.00026  -0.00026   2.08653
    R8        2.08679  -0.00010   0.00000  -0.00026  -0.00026   2.08653
    R9        2.08679  -0.00010   0.00000  -0.00026  -0.00026   2.08653
    A1        2.07829  -0.00000   0.00000  -0.00002  -0.00002   2.07827
    A2        2.07828  -0.00000   0.00000  -0.00001  -0.00001   2.07827
    A3        2.07830  -0.00000   0.00000  -0.00003  -0.00003   2.07827
    A4        2.07831  -0.00000   0.00000  -0.00003  -0.00003   2.07827
    A5        1.94998   0.00000   0.00000   0.00005   0.00005   1.95004
    A6        2.07829   0.00000   0.00000  -0.00002  -0.00002   2.07827
    A7        2.07830   0.00000   0.00000  -0.00003  -0.00003   2.07827
    A8        2.07829   0.00000   0.00000  -0.00002  -0.00002   2.07827
    A9        2.07829   0.00000   0.00000  -0.00002  -0.00002   2.07827
   A10        1.94998   0.00000   0.00000   0.00006   0.00006   1.95004
   A11        2.07831  -0.00000   0.00000  -0.00004  -0.00004   2.07827
   A12        2.07830  -0.00000   0.00000  -0.00003  -0.00003   2.07827
   A13        2.07829  -0.00000   0.00000  -0.00002  -0.00002   2.07827
   A14        2.07828   0.00000   0.00000  -0.00001  -0.00001   2.07827
   A15        1.94998   0.00000   0.00000   0.00005   0.00005   1.95004
    D1       -2.48790  -0.00000   0.00000  -0.00004  -0.00004  -2.48795
    D2        0.00001   0.00000   0.00000  -0.00001  -0.00001   0.00000
    D3       -0.00001  -0.00000   0.00000   0.00001   0.00001   0.00000
    D4        2.48790   0.00000   0.00000   0.00005   0.00005   2.48795
    D5        2.48793  -0.00000   0.00000   0.00001   0.00001   2.48795
    D6       -0.00001  -0.00000   0.00000   0.00001   0.00001  -0.00000
    D7       -0.00001   0.00000   0.00000   0.00001   0.00001  -0.00000
    D8       -2.48795   0.00000   0.00000   0.00000   0.00000  -2.48795
    D9        0.00002  -0.00000   0.00000  -0.00002  -0.00002   0.00000
   D10        2.48790   0.00000   0.00000   0.00005   0.00005   2.48795
   D11       -2.48789  -0.00000   0.00000  -0.00006  -0.00006  -2.48795
   D12       -0.00000  -0.00000   0.00000   0.00000   0.00000   0.00000
         Item               Value     Threshold  Converged?
 Maximum Force            0.000097     0.000450     YES
 RMS     Force            0.000039     0.000300     YES
 Maximum Displacement     0.000245     0.001800     YES
 RMS     Displacement     0.000104     0.001200     YES
 Predicted change in Energy=-7.504270D-08
 Optimization completed.
    -- Stationary point found.
                           ----------------------------
                           !   Optimized Parameters   !
                           ! (Angstroms and Degrees)  !
 --------------------------                            --------------------------
 ! Name  Definition              Value          Derivative Info.                !
 --------------------------------------------------------------------------------
 ! R1    R(1,2)                  1.5011         -DE/DX =    0.0                 !
 ! R2    R(1,3)                  1.5011         -DE/DX =    0.0                 !
 ! R3    R(1,4)                  1.1043         -DE/DX =   -0.0001              !
 ! R4    R(1,5)                  1.1043         -DE/DX =   -0.0001              !
 ! R5    R(2,3)                  1.5011         -DE/DX =    0.0                 !
 ! R6    R(2,6)                  1.1043         -DE/DX =   -0.0001              !
 ! R7    R(2,7)                  1.1043         -DE/DX =   -0.0001              !
 ! R8    R(3,8)                  1.1043         -DE/DX =   -0.0001              !
 ! R9    R(3,9)                  1.1043         -DE/DX =   -0.0001              !
 ! A1    A(2,1,4)              119.0773         -DE/DX =    0.0                 !
 ! A2    A(2,1,5)              119.0769         -DE/DX =    0.0                 !
 ! A3    A(3,1,4)              119.078          -DE/DX =    0.0                 !
 ! A4    A(3,1,5)              119.0781         -DE/DX =    0.0                 !
 ! A5    A(4,1,5)              111.7257         -DE/DX =    0.0                 !
 ! A6    A(1,2,6)              119.0774         -DE/DX =    0.0                 !
 ! A7    A(1,2,7)              119.0777         -DE/DX =    0.0                 !
 ! A8    A(3,2,6)              119.0774         -DE/DX =    0.0                 !
 ! A9    A(3,2,7)              119.0774         -DE/DX =    0.0                 !
 ! A10   A(6,2,7)              111.7257         -DE/DX =    0.0                 !
 ! A11   A(1,3,8)              119.0783         -DE/DX =    0.0                 !
 ! A12   A(1,3,9)              119.0778         -DE/DX =    0.0                 !
 ! A13   A(2,3,8)              119.0772         -DE/DX =    0.0                 !
 ! A14   A(2,3,9)              119.0767         -DE/DX =    0.0                 !
 ! A15   A(8,3,9)              111.7257         -DE/DX =    0.0                 !
 ! D1    D(4,1,2,6)           -142.5464         -DE/DX =    0.0                 !
 ! D2    D(4,1,2,7)              0.0006         -DE/DX =    0.0                 !
 ! D3    D(5,1,2,6)             -0.0009         -DE/DX =    0.0                 !
 ! D4    D(5,1,2,7)            142.5461         -DE/DX =    0.0                 !
 ! D5    D(4,1,3,8)            142.5481         -DE/DX =    0.0                 !
 ! D6    D(4,1,3,9)             -0.0005         -DE/DX =    0.0                 !
 ! D7    D(5,1,3,8)             -0.0005         -DE/DX =    0.0                 !
 ! D8    D(5,1,3,9)           -142.5491         -DE/DX =    0.0                 !
 ! D9    D(6,2,3,8)              0.001          -DE/DX =    0.0                 !
 ! D10   D(6,2,3,9)            142.546          -DE/DX =    0.0                 !
 ! D11   D(7,2,3,8)           -142.5453         -DE/DX =    0.0                 !
 ! D12   D(7,2,3,9)             -0.0003         -DE/DX =    0.0                 !
 --------------------------------------------------------------------------------
 GradGradGradGradGradGradGradGradGradGradGradGradGradGradGradGradGradGrad

 1\1\GINC-GTX1080DELTA\Freq\RAM1\ZDO\C3H6\MVEROT\16-Apr-2022\0\\#N Geom
 =AllCheck Guess=TCheck SCRF=Check GenChk RAM1/ZDO Freq\\Optimisation d
 e geometrie\\0,1\C,1.0009928532,2.0066656511,1.0317036519\C,1.98686585
 15,2.0886250639,2.1607270423\C,1.3797942796,0.7670678902,1.7888549462\
 H,-0.0088300119,2.4318969273,1.1690808122\H,1.3603103505,2.1332896598,
 -0.0047782202\H,3.0511020988,2.2738368246,1.9315238559\H,1.6819713732,
 2.5724492526,3.1053906001\H,2.0099642314,0.007322092,1.2937667242\H,0.
 6408289737,0.3059466385,2.4676305874\\Version=AM64L-G09RevD.01\State=1
 -A\HF=0.0282392\RMSD=3.390e-10\RMSF=5.590e-05\ZeroPoint=0.0825307\Ther
 mal=0.0858187\Dipole=0.000006,0.0000021,0.0000062\DipoleDeriv=-0.11758
 3,0.0746999,-0.0338899,0.0746993,-0.0291365,0.0678714,-0.0338893,0.067
 8723,-0.1616128,-0.1427596,-0.0675706,-0.027064,-0.0675729,-0.0526301,
 -0.0920903,-0.0270638,-0.0920874,-0.1129569,-0.0500839,-0.0060103,0.06
 53687,-0.0060071,-0.2237528,0.0232495,0.065368,0.0232461,-0.0344902,0.
 0795877,-0.014831,0.0092673,-0.0130142,0.0573269,0.0057982,0.002821,0.
 0087587,0.0172545,0.0234195,0.0169339,-0.0119165,0.0151199,0.0469349,-
 0.0031996,-0.005471,-0.006164,0.0838143,0.0838621,0.011392,0.0032013,0
 .0077007,0.0454414,-0.0161948,-0.0028445,-0.0180427,0.0248621,0.018301
 5,-0.0140322,-0.0056254,-0.0103395,0.0580397,0.0134577,0.0004202,0.015
 3035,0.0778248,0.0479312,-0.0288849,0.0065078,-0.0233808,0.0603839,0.0
 198792,0.0061059,0.0246908,0.0458535,0.0573245,0.028303,-0.0058507,0.0
 227943,0.0373916,-0.0187711,-0.0054477,-0.0235772,0.0594503\Polar=23.3
 132408,0.1968083,24.173506,0.7743728,-0.1691583,23.552605\HyperPolar=2
 .3053044,8.6455658,-0.2912379,-19.3295848,0.4887708,10.1578008,4.57681
 63,-2.0137682,10.6837102,-5.0652931\PG=C01 [X(C3H6)]\NImag=0\\0.577402
 81,-0.14768889,0.39545349,0.05724372,-0.13026502,0.66043590,-0.1688137
 9,0.01979143,-0.13945095,0.62642663,-0.03214333,-0.01588153,-0.0470774
 1,0.12936017,0.44119799,-0.12623975,0.01349666,-0.20424135,0.04394987,
 0.18123512,0.56569054,-0.05574003,0.04297224,-0.01346250,-0.08645743,-
 0.07868712,-0.01834429,0.44596267,0.09490687,-0.22468417,0.15422357,-0
 .13062208,-0.25335412,-0.10152815,0.00947398,0.77444249,-0.02667386,0.
 09364948,-0.10850428,-0.00513285,-0.04095396,-0.04913601,-0.13603573,-
 0.04336534,0.41289645,-0.26267472,0.09284835,0.03201143,-0.02548117,0.
 00851552,-0.00596503,-0.00513685,0.00865539,-0.00538457,0.30706681,0.0
 9200537,-0.07921913,-0.01419004,-0.00624551,0.00474695,0.00507526,0.02
 814024,-0.01650005,0.00027364,-0.11616906,0.08592069,0.03500745,-0.015
 56632,-0.04277723,-0.02074676,0.00551381,-0.00078757,-0.00739000,0.007
 54659,0.00011569,-0.03110755,0.00912975,0.05346262,-0.06860669,-0.0114
 7569,0.08592986,0.00473397,0.00038631,-0.01860407,0.00128382,0.0019743
 2,0.00007999,-0.01433937,0.00201204,0.02582439,0.07770205,-0.01063260,
 -0.04331236,0.02576008,0.00565299,0.00248764,-0.00801971,-0.00801634,-
 0.00746245,0.02888071,0.00615778,0.00524138,-0.00785267,0.00613212,0.0
 4348340,0.08293388,0.02713627,-0.27275145,-0.00140720,0.00261552,-0.02
 874373,-0.00032974,0.01053414,-0.01534236,0.01109176,-0.00108503,-0.00
 839019,-0.09129128,-0.03971213,0.32526425,-0.02567845,-0.00497975,-0.0
 0486309,-0.28666896,-0.04157603,0.05486528,-0.01210306,-0.01069699,-0.
 00199592,-0.00053623,-0.00096042,-0.00087623,0.00046929,0.00057735,0.0
 0015447,0.33817278,0.00480655,0.00218128,-0.00495147,-0.03985957,-0.04
 673639,0.01046326,-0.03010094,-0.01025971,0.00469199,0.00083706,0.0006
 4409,0.00106293,-0.00046962,-0.00001181,-0.00059845,0.05671900,0.05009
 385,-0.02315261,-0.00244221,0.00197555,0.05767533,0.01132198,-0.051265
 47,0.00054767,-0.00262893,0.00084083,-0.00138147,-0.00157203,-0.001684
 27,-0.00000342,0.00058743,0.00049473,-0.05875345,-0.00386944,0.0581841
 5,0.00312718,-0.00580837,-0.01680139,-0.06013345,0.03523375,0.06728399
 ,0.00185626,-0.00530979,-0.00398960,0.00044052,0.00035744,-0.00021741,
 -0.00137917,-0.00116754,-0.00097839,-0.01415474,0.00934770,0.02531759,
 0.07043529,-0.00610038,0.00337055,0.00161713,0.03351732,-0.09026878,-0
 .09751903,0.00459980,-0.01966709,-0.02723523,-0.00056661,0.00005869,-0
 .00042878,0.00115796,0.00065937,0.00096771,0.00090709,0.00541342,-0.00
 118545,-0.03203242,0.10154399,-0.00092703,-0.01196574,-0.02801914,0.06
 447388,-0.09837780,-0.23426897,-0.00411797,-0.00884060,-0.00371115,0.0
 0044185,0.00068425,0.00045307,-0.00152194,-0.00120618,-0.00085661,0.01
 149862,-0.00540829,-0.00874695,-0.07010979,0.12476755,0.27447166,-0.00
 763609,0.01392803,0.00501921,0.00938952,-0.00761792,-0.00717468,-0.128
 60372,0.10637398,0.06881642,0.00030707,0.00135896,-0.00040431,0.000152
 81,-0.00080509,0.00012586,0.00039419,0.00044659,-0.00031713,-0.0004139
 9,-0.00232204,0.00044013,0.14124379,0.01382360,-0.02252775,-0.00197390
 ,0.00682806,-0.02502018,-0.01262146,0.10381442,-0.16097761,-0.08193348
 ,-0.00052549,-0.00126911,0.00013099,0.00041983,0.00041509,0.00030613,-
 0.00023802,0.00046272,-0.00050706,-0.00017362,-0.00154102,0.00067284,-
 0.12233207,0.20379061,-0.01109846,0.01132213,0.00864296,0.00790166,-0.
 01339448,-0.00589146,0.06900220,-0.08416840,-0.09508798,0.00041001,0.0
 0262405,-0.00061424,-0.00034871,-0.00058924,0.00038443,0.00011824,0.00
 086010,0.00009535,-0.00039330,-0.00158961,0.00037860,-0.08377918,0.094
 57276,0.10141389,0.00861999,0.00041254,-0.00562644,-0.01299510,-0.0134
 7135,0.01022850,-0.16106142,-0.07475571,0.11031599,0.00035381,-0.00049
 904,-0.00008950,-0.00001683,0.00210134,-0.00029927,0.00010506,-0.00172
 674,0.00006757,0.00022198,0.00083932,-0.00017766,-0.01483371,-0.001616
 68,0.01818761,0.17960609,-0.00897719,-0.01538032,0.01685714,-0.0184228
 9,-0.01717151,0.00941806,-0.07219632,-0.08153720,0.06599219,0.00024707
 ,0.00037644,0.00046367,-0.00013726,-0.00150032,-0.00016420,0.00024780,
 -0.00178749,0.00029572,-0.00044712,0.00043083,-0.00032604,0.01096956,0
 .00666724,-0.00963730,0.08871636,0.10990231,0.01290649,0.01463470,-0.0
 1476079,-0.00726314,-0.00088269,0.00864419,0.11013024,0.06822717,-0.14
 207099,-0.00011632,-0.00093989,0.00022203,-0.00006476,0.00215169,-0.00
 005915,-0.00014783,-0.00225062,0.00010599,-0.00011163,0.00060571,0.000
 29941,0.01727376,0.00135315,-0.00932166,-0.13260676,-0.08289925,0.1569
 4085\\0.00004903,-0.00004199,0.00006849,-0.00006186,-0.00005595,-0.000
 05751,0.00000965,0.00009710,-0.00001342,-0.00008750,0.00003857,0.00001
 057,0.00003064,0.00001322,-0.00009042,0.00009218,0.00001633,-0.0000186
 8,-0.00002499,0.00004190,0.00008205,0.00005580,-0.00006803,-0.00004147
 ,-0.00006295,-0.00004116,0.00006039\\\@


 BE CAREFUL NOT TO BECOME TOO GOOD OF A SONGBIRD OR 
 THEY'LL THROW YOU INTO A CAGE.

                                    -- SNOOPY TO WOODSTOCK
 Job cpu time:       0 days  0 hours  0 minutes  1.0 seconds.
 File lengths (MBytes):  RWF=     82 Int=      0 D2E=      0 Chk=      3 Scr=      2
 Normal termination of Gaussian 09 at Sat Apr 16 12:29:55 2022.
