 Entering Gaussian System, Link 0=g09
 Input=/scratch/mverot/2-methyl-1-Propene-opt/2-methyl-1-Propene-opt.com
 Output=/scratch/mverot/2-methyl-1-Propene-opt/2-methyl-1-Propene-opt.log
 Initial command:
 /opt/g09/l1.exe "/scratch/mverot/2-methyl-1-Propene-opt/Gau-747723.inp" -scrdir="/scratch/mverot/2-methyl-1-Propene-opt/"
 Entering Link 1 = /opt/g09/l1.exe PID=    747725.
  
 Copyright (c) 1988,1990,1992,1993,1995,1998,2003,2009,2013,
            Gaussian, Inc.  All Rights Reserved.
  
 This is part of the Gaussian(R) 09 program.  It is based on
 the Gaussian(R) 03 system (copyright 2003, Gaussian, Inc.),
 the Gaussian(R) 98 system (copyright 1998, Gaussian, Inc.),
 the Gaussian(R) 94 system (copyright 1995, Gaussian, Inc.),
 the Gaussian 92(TM) system (copyright 1992, Gaussian, Inc.),
 the Gaussian 90(TM) system (copyright 1990, Gaussian, Inc.),
 the Gaussian 88(TM) system (copyright 1988, Gaussian, Inc.),
 the Gaussian 86(TM) system (copyright 1986, Carnegie Mellon
 University), and the Gaussian 82(TM) system (copyright 1983,
 Carnegie Mellon University). Gaussian is a federally registered
 trademark of Gaussian, Inc.
  
 This software contains proprietary and confidential information,
 including trade secrets, belonging to Gaussian, Inc.
  
 This software is provided under written license and may be
 used, copied, transmitted, or stored only in accord with that
 written license.
  
 The following legend is applicable only to US Government
 contracts under FAR:
  
                    RESTRICTED RIGHTS LEGEND
  
 Use, reproduction and disclosure by the US Government is
 subject to restrictions as set forth in subparagraphs (a)
 and (c) of the Commercial Computer Software - Restricted
 Rights clause in FAR 52.227-19.
  
 Gaussian, Inc.
 340 Quinnipiac St., Bldg. 40, Wallingford CT 06492
  
  
 ---------------------------------------------------------------
 Warning -- This program may not be used in any manner that
 competes with the business of Gaussian, Inc. or will provide
 assistance to any competitor of Gaussian, Inc.  The licensee
 of this program is prohibited from giving any competitor of
 Gaussian, Inc. access to this program.  By using this program,
 the user acknowledges that Gaussian, Inc. is engaged in the
 business of creating and licensing software in the field of
 computational chemistry and represents and warrants to the
 licensee that it is not a competitor of Gaussian, Inc. and that
 it will not use this program in any manner prohibited above.
 ---------------------------------------------------------------
  

 Cite this work as:
 Gaussian 09, Revision D.01,
 M. J. Frisch, G. W. Trucks, H. B. Schlegel, G. E. Scuseria, 
 M. A. Robb, J. R. Cheeseman, G. Scalmani, V. Barone, B. Mennucci, 
 G. A. Petersson, H. Nakatsuji, M. Caricato, X. Li, H. P. Hratchian, 
 A. F. Izmaylov, J. Bloino, G. Zheng, J. L. Sonnenberg, M. Hada, 
 M. Ehara, K. Toyota, R. Fukuda, J. Hasegawa, M. Ishida, T. Nakajima, 
 Y. Honda, O. Kitao, H. Nakai, T. Vreven, J. A. Montgomery, Jr., 
 J. E. Peralta, F. Ogliaro, M. Bearpark, J. J. Heyd, E. Brothers, 
 K. N. Kudin, V. N. Staroverov, T. Keith, R. Kobayashi, J. Normand, 
 K. Raghavachari, A. Rendell, J. C. Burant, S. S. Iyengar, J. Tomasi, 
 M. Cossi, N. Rega, J. M. Millam, M. Klene, J. E. Knox, J. B. Cross, 
 V. Bakken, C. Adamo, J. Jaramillo, R. Gomperts, R. E. Stratmann, 
 O. Yazyev, A. J. Austin, R. Cammi, C. Pomelli, J. W. Ochterski, 
 R. L. Martin, K. Morokuma, V. G. Zakrzewski, G. A. Voth, 
 P. Salvador, J. J. Dannenberg, S. Dapprich, A. D. Daniels, 
 O. Farkas, J. B. Foresman, J. V. Ortiz, J. Cioslowski, 
 and D. J. Fox, Gaussian, Inc., Wallingford CT, 2013.
 
 ******************************************
 Gaussian 09:  AM64L-G09RevD.01 24-Apr-2013
                16-Apr-2022 
 ******************************************
 %chk=2-methyl-1-Propene-opt
 --------------------
 # hf/6-31G* opt freq
 --------------------
 1/18=20,19=15,38=1/1,3;
 2/9=110,12=2,17=6,18=5,40=1/2;
 3/5=1,6=6,7=1,11=9,16=1,25=1,30=1,71=1/1,2,3;
 4//1;
 5/5=2,38=5/2;
 6/7=2,8=2,9=2,10=2,28=1/1;
 7//1,2,3,16;
 1/18=20,19=15/3(2);
 2/9=110/2;
 99//99;
 2/9=110/2;
 3/5=1,6=6,7=1,11=9,16=1,25=1,30=1,71=1/1,2,3;
 4/5=5,16=3,69=1/1;
 5/5=2,38=5/2;
 7//1,2,3,16;
 1/18=20,19=15/3(-5);
 2/9=110/2;
 6/7=2,8=2,9=2,10=2,19=2,28=1/1;
 99/9=1/99;
 -------------------------
 Optimisation de geometrie
 -------------------------
 Symbolic Z-matrix:
 Charge =  0 Multiplicity = 1
 C                     0.9583    0.9922    1.3796 
 C                     2.0992    1.8923    0.9737 
 C                     3.4764    1.43      1.381 
 C                     1.9021    3.0272    0.2957 
 H                     1.0779   -0.0134    0.9527 
 H                     0.9255    0.8643    2.4706 
 H                    -0.0089    1.3873    1.0541 
 H                     3.5503    1.3237    2.4724 
 H                     3.7022    0.4417    0.9569 
 H                     4.2541    2.1267    1.0536 
 H                     2.7287    3.6714    0.0058 
 H                     0.9066    3.3542    0.0051 
 

 GradGradGradGradGradGradGradGradGradGradGradGradGradGradGradGradGradGrad
 Berny optimization.
 Initialization pass.
                           ----------------------------
                           !    Initial Parameters    !
                           ! (Angstroms and Degrees)  !
 --------------------------                            --------------------------
 ! Name  Definition              Value          Derivative Info.                !
 --------------------------------------------------------------------------------
 ! R1    R(1,2)                  1.5088         estimate D2E/DX2                !
 ! R2    R(1,5)                  1.099          estimate D2E/DX2                !
 ! R3    R(1,6)                  1.099          estimate D2E/DX2                !
 ! R4    R(1,7)                  1.0943         estimate D2E/DX2                !
 ! R5    R(2,3)                  1.5087         estimate D2E/DX2                !
 ! R6    R(2,4)                  1.3366         estimate D2E/DX2                !
 ! R7    R(3,8)                  1.0991         estimate D2E/DX2                !
 ! R8    R(3,9)                  1.0989         estimate D2E/DX2                !
 ! R9    R(3,10)                 1.0943         estimate D2E/DX2                !
 ! R10   R(4,11)                 1.0873         estimate D2E/DX2                !
 ! R11   R(4,12)                 1.0874         estimate D2E/DX2                !
 ! A1    A(2,1,5)              111.0432         estimate D2E/DX2                !
 ! A2    A(2,1,6)              111.0427         estimate D2E/DX2                !
 ! A3    A(2,1,7)              111.8952         estimate D2E/DX2                !
 ! A4    A(5,1,6)              106.4028         estimate D2E/DX2                !
 ! A5    A(5,1,7)              108.1201         estimate D2E/DX2                !
 ! A6    A(6,1,7)              108.1154         estimate D2E/DX2                !
 ! A7    A(1,2,3)              115.7729         estimate D2E/DX2                !
 ! A8    A(1,2,4)              122.1056         estimate D2E/DX2                !
 ! A9    A(3,2,4)              122.1215         estimate D2E/DX2                !
 ! A10   A(2,3,8)              111.0446         estimate D2E/DX2                !
 ! A11   A(2,3,9)              111.0359         estimate D2E/DX2                !
 ! A12   A(2,3,10)             111.8936         estimate D2E/DX2                !
 ! A13   A(8,3,9)              106.406          estimate D2E/DX2                !
 ! A14   A(8,3,10)             108.1139         estimate D2E/DX2                !
 ! A15   A(9,3,10)             108.1256         estimate D2E/DX2                !
 ! A16   A(2,4,11)             121.7481         estimate D2E/DX2                !
 ! A17   A(2,4,12)             121.7291         estimate D2E/DX2                !
 ! A18   A(11,4,12)            116.5227         estimate D2E/DX2                !
 ! D1    D(5,1,2,3)            -59.1508         estimate D2E/DX2                !
 ! D2    D(5,1,2,4)            120.8245         estimate D2E/DX2                !
 ! D3    D(6,1,2,3)             59.0263         estimate D2E/DX2                !
 ! D4    D(6,1,2,4)           -120.9984         estimate D2E/DX2                !
 ! D5    D(7,1,2,3)            179.9345         estimate D2E/DX2                !
 ! D6    D(7,1,2,4)             -0.0901         estimate D2E/DX2                !
 ! D7    D(1,2,3,8)            -59.2173         estimate D2E/DX2                !
 ! D8    D(1,2,3,9)             58.9604         estimate D2E/DX2                !
 ! D9    D(1,2,3,10)           179.876          estimate D2E/DX2                !
 ! D10   D(4,2,3,8)            120.8074         estimate D2E/DX2                !
 ! D11   D(4,2,3,9)           -121.015          estimate D2E/DX2                !
 ! D12   D(4,2,3,10)            -0.0994         estimate D2E/DX2                !
 ! D13   D(1,2,4,11)          -179.9776         estimate D2E/DX2                !
 ! D14   D(1,2,4,12)             0.0079         estimate D2E/DX2                !
 ! D15   D(3,2,4,11)            -0.0038         estimate D2E/DX2                !
 ! D16   D(3,2,4,12)           179.9817         estimate D2E/DX2                !
 --------------------------------------------------------------------------------
 Trust Radius=3.00D-01 FncErr=1.00D-07 GrdErr=1.00D-07
 Number of steps in this run=     55 maximum allowed number of steps=    100.
 GradGradGradGradGradGradGradGradGradGradGradGradGradGradGradGradGradGrad

                          Input orientation:                          
 ---------------------------------------------------------------------
 Center     Atomic      Atomic             Coordinates (Angstroms)
 Number     Number       Type             X           Y           Z
 ---------------------------------------------------------------------
      1          6           0        0.958300    0.992200    1.379600
      2          6           0        2.099200    1.892300    0.973700
      3          6           0        3.476400    1.430000    1.381000
      4          6           0        1.902100    3.027200    0.295700
      5          1           0        1.077900   -0.013400    0.952700
      6          1           0        0.925500    0.864300    2.470600
      7          1           0       -0.008900    1.387300    1.054100
      8          1           0        3.550300    1.323700    2.472400
      9          1           0        3.702200    0.441700    0.956900
     10          1           0        4.254100    2.126700    1.053600
     11          1           0        2.728700    3.671400    0.005800
     12          1           0        0.906600    3.354200    0.005100
 ---------------------------------------------------------------------
                    Distance matrix (angstroms):
                    1          2          3          4          5
     1  C    0.000000
     2  C    1.508837   0.000000
     3  C    2.555875   1.508739   0.000000
     4  C    2.491350   1.336612   2.491454   0.000000
     5  H    1.098990   2.162218   2.831898   3.218105   0.000000
     6  H    1.098961   2.162190   2.830960   3.219018   1.760001
     7  H    1.094317   2.169234   3.500857   2.629898   1.775775
     8  H    2.832414   2.162198   1.099052   3.218151   3.195323
     9  H    2.830320   2.161974   1.098901   3.219061   2.663472
    10  H    3.500809   2.169083   1.094257   2.630060   3.831247
    11  H    3.492815   2.120919   2.733881   1.087338   4.147229
    12  H    2.733307   2.120762   3.492781   1.087381   3.502573
                    6          7          8          9         10
     6  H    0.000000
     7  H    1.775698   0.000000
     8  H    2.664700   3.831909   0.000000
     9  H    3.190602   3.830910   1.760039   0.000000
    10  H    3.831595   4.326648   1.775707   1.775717   0.000000
    11  H    4.148081   3.716248   3.502976   3.504748   2.410566
    12  H    3.504090   2.409821   4.147246   4.147766   3.716432
                   11         12
    11  H    0.000000
    12  H    1.849504   0.000000
 Stoichiometry    C4H8
 Framework group  C1[X(C4H8)]
 Deg. of freedom    30
 Full point group                 C1      NOp   1
 Largest Abelian subgroup         C1      NOp   1
 Largest concise Abelian subgroup C1      NOp   1
                         Standard orientation:                         
 ---------------------------------------------------------------------
 Center     Atomic      Atomic             Coordinates (Angstroms)
 Number     Number       Type             X           Y           Z
 ---------------------------------------------------------------------
      1          6           0       -1.277666   -0.679446   -0.000025
      2          6           0        0.000046    0.123075    0.000167
      3          6           0        1.278209   -0.678543   -0.000051
      4          6           0       -0.000586    1.459687    0.000020
      5          1           0       -1.332096   -1.334502   -0.880774
      6          1           0       -1.331051   -1.336549    0.879225
      7          1           0       -2.163299   -0.036654    0.001308
      8          1           0        1.333647   -1.333191    0.881015
      9          1           0        1.331376   -1.335939   -0.879021
     10          1           0        2.163347   -0.035173   -0.002094
     11          1           0        0.923782    2.032266   -0.000203
     12          1           0       -0.925722    2.031108   -0.000118
 ---------------------------------------------------------------------
 Rotational constants (GHZ):      9.1202797      8.3359174      4.6029108
 Standard basis: 6-31G(d) (6D, 7F)
 There are    76 symmetry adapted cartesian basis functions of A   symmetry.
 There are    76 symmetry adapted basis functions of A   symmetry.
    76 basis functions,   144 primitive gaussians,    76 cartesian basis functions
    16 alpha electrons       16 beta electrons
       nuclear repulsion energy       119.3689314923 Hartrees.
 NAtoms=   12 NActive=   12 NUniq=   12 SFac= 1.00D+00 NAtFMM=   60 NAOKFM=F Big=F
 Integral buffers will be    131072 words long.
 Raffenetti 1 integral format.
 Two-electron integral symmetry is turned on.
 One-electron integrals computed using PRISM.
 NBasis=    76 RedAO= T EigKep=  4.21D-03  NBF=    76
 NBsUse=    76 1.00D-06 EigRej= -1.00D+00 NBFU=    76
 ExpMin= 1.61D-01 ExpMax= 3.05D+03 ExpMxC= 4.57D+02 IAcc=1 IRadAn=         1 AccDes= 0.00D+00
 Harris functional with IExCor=  205 and IRadAn=       1 diagonalized for initial guess.
 HarFok:  IExCor=  205 AccDes= 0.00D+00 IRadAn=         1 IDoV= 1 UseB2=F ITyADJ=14
 ICtDFT=  3500011 ScaDFX=  1.000000  1.000000  1.000000  1.000000
 FoFCou: FMM=F IPFlag=           0 FMFlag=      100000 FMFlg1=           0
         NFxFlg=           0 DoJE=T BraDBF=F KetDBF=T FulRan=T
         wScrn=  0.000000 ICntrl=     500 IOpCl=  0 I1Cent=   200000004 NGrid=           0
         NMat0=    1 NMatS0=      1 NMatT0=    0 NMatD0=    1 NMtDS0=    0 NMtDT0=    0
 Petite list used in FoFCou.
 Keep R1 ints in memory in canonical form, NReq=5182355.
 Requested convergence on RMS density matrix=1.00D-08 within 128 cycles.
 Requested convergence on MAX density matrix=1.00D-06.
 Requested convergence on             energy=1.00D-06.
 No special actions if energy rises.
 SCF Done:  E(RHF) =  -156.109656679     A.U. after   11 cycles
            NFock= 11  Conv=0.93D-08     -V/T= 2.0017

 **********************************************************************

            Population analysis using the SCF density.

 **********************************************************************

 Orbital symmetries:
       Occupied  (A) (A) (A) (A) (A) (A) (A) (A) (A) (A) (A) (A)
                 (A) (A) (A) (A)
       Virtual   (A) (A) (A) (A) (A) (A) (A) (A) (A) (A) (A) (A)
                 (A) (A) (A) (A) (A) (A) (A) (A) (A) (A) (A) (A)
                 (A) (A) (A) (A) (A) (A) (A) (A) (A) (A) (A) (A)
                 (A) (A) (A) (A) (A) (A) (A) (A) (A) (A) (A) (A)
                 (A) (A) (A) (A) (A) (A) (A) (A) (A) (A) (A) (A)
 The electronic state is 1-A.
 Alpha  occ. eigenvalues --  -11.23808 -11.22076 -11.22073 -11.21074  -1.08382
 Alpha  occ. eigenvalues --   -0.93787  -0.92219  -0.71611  -0.61489  -0.60614
 Alpha  occ. eigenvalues --   -0.58565  -0.53413  -0.51876  -0.51240  -0.47628
 Alpha  occ. eigenvalues --   -0.34206
 Alpha virt. eigenvalues --    0.18861   0.23369   0.28372   0.30114   0.30222
 Alpha virt. eigenvalues --    0.32621   0.32898   0.34008   0.37899   0.39593
 Alpha virt. eigenvalues --    0.48029   0.54536   0.71712   0.73615   0.74255
 Alpha virt. eigenvalues --    0.78677   0.79293   0.85252   0.91245   0.91414
 Alpha virt. eigenvalues --    0.98129   0.98692   1.03975   1.07779   1.13149
 Alpha virt. eigenvalues --    1.13595   1.16211   1.16961   1.20019   1.21764
 Alpha virt. eigenvalues --    1.24927   1.25252   1.39005   1.47058   1.49559
 Alpha virt. eigenvalues --    1.65778   1.71075   1.76432   1.98886   2.13077
 Alpha virt. eigenvalues --    2.14787   2.19114   2.22307   2.28361   2.37597
 Alpha virt. eigenvalues --    2.38426   2.51038   2.55936   2.60470   2.70488
 Alpha virt. eigenvalues --    2.74621   2.76579   2.78851   2.91548   3.21498
 Alpha virt. eigenvalues --    3.29676   4.53023   4.61562   4.71122   4.90305
          Condensed to atoms (all electrons):
               1          2          3          4          5          6
     1  C    5.103970   0.352952  -0.066834  -0.047256   0.386962   0.386999
     2  C    0.352952   4.823105   0.352943   0.679279  -0.040788  -0.040835
     3  C   -0.066834   0.352943   5.103933  -0.047248  -0.001317  -0.001315
     4  C   -0.047256   0.679279  -0.047248   5.070750  -0.000299  -0.000277
     5  H    0.386962  -0.040788  -0.001317  -0.000299   0.546713  -0.034759
     6  H    0.386999  -0.040835  -0.001315  -0.000277  -0.034759   0.546765
     7  H    0.393107  -0.037910   0.003592  -0.002169  -0.024685  -0.024706
     8  H   -0.001316  -0.040791   0.386959  -0.000298  -0.000382   0.002550
     9  H   -0.001322  -0.040845   0.387019  -0.000278   0.002554  -0.000387
    10  H    0.003593  -0.037914   0.393111  -0.002170  -0.000055  -0.000054
    11  H    0.003478  -0.040473  -0.004505   0.393978  -0.000117  -0.000117
    12  H   -0.004516  -0.040493   0.003478   0.393988   0.000108   0.000107
               7          8          9         10         11         12
     1  C    0.393107  -0.001316  -0.001322   0.003593   0.003478  -0.004516
     2  C   -0.037910  -0.040791  -0.040845  -0.037914  -0.040473  -0.040493
     3  C    0.003592   0.386959   0.387019   0.393111  -0.004505   0.003478
     4  C   -0.002169  -0.000298  -0.000278  -0.002170   0.393978   0.393988
     5  H   -0.024685  -0.000382   0.002554  -0.000055  -0.000117   0.000108
     6  H   -0.024706   0.002550  -0.000387  -0.000054  -0.000117   0.000107
     7  H    0.517614  -0.000055  -0.000053  -0.000093   0.000081   0.002348
     8  H   -0.000055   0.546729  -0.034752  -0.024695   0.000107  -0.000117
     9  H   -0.000053  -0.034752   0.546716  -0.024693   0.000107  -0.000117
    10  H   -0.000093  -0.024695  -0.024693   0.517595   0.002348   0.000081
    11  H    0.000081   0.000107   0.000107   0.002348   0.505144  -0.027936
    12  H    0.002348  -0.000117  -0.000117   0.000081  -0.027936   0.505188
 Mulliken charges:
               1
     1  C   -0.509819
     2  C    0.111770
     3  C   -0.509817
     4  C   -0.438001
     5  H    0.166065
     6  H    0.166029
     7  H    0.172929
     8  H    0.166061
     9  H    0.166051
    10  H    0.172945
    11  H    0.167906
    12  H    0.167882
 Sum of Mulliken charges =  -0.00000
 Mulliken charges with hydrogens summed into heavy atoms:
               1
     1  C   -0.004797
     2  C    0.111770
     3  C   -0.004760
     4  C   -0.102213
 Electronic spatial extent (au):  <R**2>=            326.3527
 Charge=             -0.0000 electrons
 Dipole moment (field-independent basis, Debye):
    X=              0.0004    Y=             -0.4541    Z=             -0.0004  Tot=              0.4541
 Quadrupole moment (field-independent basis, Debye-Ang):
   XX=            -25.8527   YY=            -26.1629   ZZ=            -28.3439
   XY=              0.0003   XZ=             -0.0001   YZ=             -0.0005
 Traceless Quadrupole moment (field-independent basis, Debye-Ang):
   XX=              0.9338   YY=              0.6236   ZZ=             -1.5574
   XY=              0.0003   XZ=             -0.0001   YZ=             -0.0005
 Octapole moment (field-independent basis, Debye-Ang**2):
  XXX=             -0.0024  YYY=              1.5692  ZZZ=             -0.0002  XYY=              0.0024
  XXY=              2.3654  XXZ=             -0.0005  XZZ=              0.0017  YZZ=             -3.2913
  YYZ=             -0.0025  XYZ=             -0.0030
 Hexadecapole moment (field-independent basis, Debye-Ang**3):
 XXXX=           -210.5598 YYYY=           -191.3797 ZZZZ=            -43.4564 XXXY=             -0.0023
 XXXZ=             -0.0099 YYYX=              0.0058 YYYZ=             -0.0012 ZZZX=              0.0087
 ZZZY=             -0.0011 XXYY=            -65.3629 XXZZ=            -43.8143 YYZZ=            -40.2250
 XXYZ=             -0.0027 YYXZ=             -0.0012 ZZXY=             -0.0001
 N-N= 1.193689314923D+02 E-N=-6.013191023659D+02  KE= 1.558431447953D+02
 Calling FoFJK, ICntrl=      2127 FMM=F ISym2X=0 I1Cent= 0 IOpClX= 0 NMat=1 NMatS=1 NMatT=0.
 ***** Axes restored to original set *****
 -------------------------------------------------------------------
 Center     Atomic                   Forces (Hartrees/Bohr)
 Number     Number              X              Y              Z
 -------------------------------------------------------------------
      1        6          -0.005618425   -0.005209525    0.002470804
      2        6          -0.002797448    0.015784137   -0.009480549
      3        6           0.007044859   -0.002994931    0.002548937
      4        6           0.001644599   -0.009681986    0.005766331
      5        1          -0.000521037    0.007411140    0.002429144
      6        1           0.000484385    0.001583586   -0.007617100
      7        1           0.006948663   -0.002666741    0.002229776
      8        1          -0.001001309    0.001302352   -0.007677022
      9        1          -0.001971177    0.007116515    0.002391357
     10        1          -0.005611086   -0.004818673    0.002237094
     11        1          -0.006371385   -0.005147620    0.002345218
     12        1           0.007769360   -0.002678254    0.002356010
 -------------------------------------------------------------------
 Cartesian Forces:  Max     0.015784137 RMS     0.005567636

 GradGradGradGradGradGradGradGradGradGradGradGradGradGradGradGradGradGrad
 Berny optimization.
 FormGI is forming the generalized inverse of G from B-inverse, IUseBI=4.
 Internal  Forces:  Max     0.020624068 RMS     0.004576891
 Search for a local minimum.
 Step number   1 out of a maximum of   55
 All quantities printed in internal units (Hartrees-Bohrs-Radians)
 Mixed Optimization -- RFO/linear search
 Second derivative matrix not updated -- first step.
 ITU=  0
     Eigenvalues ---    0.00649   0.00650   0.01273   0.02927   0.02927
     Eigenvalues ---    0.07002   0.07003   0.07203   0.07204   0.16000
     Eigenvalues ---    0.16000   0.16000   0.16000   0.16000   0.16000
     Eigenvalues ---    0.16000   0.16000   0.25000   0.25000   0.31468
     Eigenvalues ---    0.31477   0.33787   0.33794   0.33797   0.33804
     Eigenvalues ---    0.34318   0.34325   0.35117   0.35122   0.57971
 RFO step:  Lambda=-2.24589938D-03 EMin= 6.49057281D-03
 Linear search not attempted -- first point.
 Iteration  1 RMS(Cart)=  0.01571024 RMS(Int)=  0.00002166
 Iteration  2 RMS(Cart)=  0.00002706 RMS(Int)=  0.00000187
 Iteration  3 RMS(Cart)=  0.00000000 RMS(Int)=  0.00000187
 Variable       Old X    -DE/DX   Delta X   Delta X   Delta X     New X
                                 (Linear)    (Quad)   (Total)
    R1        2.85129  -0.00178   0.00000  -0.00561  -0.00561   2.84568
    R2        2.07679  -0.00778   0.00000  -0.02287  -0.02287   2.05392
    R3        2.07674  -0.00776   0.00000  -0.02281  -0.02281   2.05392
    R4        2.06796  -0.00777   0.00000  -0.02249  -0.02249   2.04547
    R5        2.85110  -0.00172   0.00000  -0.00544  -0.00544   2.84566
    R6        2.52583  -0.02062   0.00000  -0.03544  -0.03544   2.49039
    R7        2.07691  -0.00782   0.00000  -0.02298  -0.02298   2.05392
    R8        2.07662  -0.00773   0.00000  -0.02271  -0.02271   2.05391
    R9        2.06785  -0.00773   0.00000  -0.02236  -0.02236   2.04549
   R10        2.05477  -0.00852   0.00000  -0.02410  -0.02410   2.03067
   R11        2.05485  -0.00855   0.00000  -0.02419  -0.02419   2.03067
    A1        1.93807  -0.00067   0.00000  -0.00382  -0.00383   1.93424
    A2        1.93806  -0.00066   0.00000  -0.00370  -0.00370   1.93436
    A3        1.95294  -0.00006   0.00000  -0.00103  -0.00103   1.95190
    A4        1.85708   0.00090   0.00000   0.00681   0.00681   1.86389
    A5        1.88705   0.00029   0.00000   0.00113   0.00113   1.88818
    A6        1.88697   0.00029   0.00000   0.00121   0.00121   1.88818
    A7        2.02062  -0.00014   0.00000  -0.00054  -0.00054   2.02008
    A8        2.13114   0.00009   0.00000   0.00037   0.00037   2.13152
    A9        2.13142   0.00004   0.00000   0.00017   0.00017   2.13159
   A10        1.93809  -0.00067   0.00000  -0.00381  -0.00381   1.93428
   A11        1.93794  -0.00064   0.00000  -0.00363  -0.00363   1.93431
   A12        1.95291  -0.00006   0.00000  -0.00099  -0.00099   1.95192
   A13        1.85714   0.00089   0.00000   0.00675   0.00675   1.86388
   A14        1.88694   0.00029   0.00000   0.00120   0.00120   1.88814
   A15        1.88715   0.00027   0.00000   0.00107   0.00106   1.88821
   A16        2.12491  -0.00013   0.00000  -0.00078  -0.00078   2.12412
   A17        2.12457  -0.00008   0.00000  -0.00050  -0.00050   2.12408
   A18        2.03371   0.00021   0.00000   0.00128   0.00128   2.03499
    D1       -1.03238  -0.00014   0.00000  -0.00193  -0.00193  -1.03430
    D2        2.10879  -0.00013   0.00000  -0.00129  -0.00129   2.10750
    D3        1.03020   0.00013   0.00000   0.00175   0.00175   1.03196
    D4       -2.11182   0.00014   0.00000   0.00239   0.00239  -2.10943
    D5        3.14045   0.00000   0.00000   0.00001   0.00001   3.14046
    D6       -0.00157   0.00001   0.00000   0.00065   0.00065  -0.00093
    D7       -1.03354  -0.00012   0.00000  -0.00089  -0.00088  -1.03442
    D8        1.02905   0.00015   0.00000   0.00277   0.00277   1.03182
    D9        3.13943   0.00001   0.00000   0.00092   0.00092   3.14034
   D10        2.10849  -0.00013   0.00000  -0.00153  -0.00152   2.10696
   D11       -2.11211   0.00014   0.00000   0.00213   0.00213  -2.10998
   D12       -0.00173  -0.00000   0.00000   0.00028   0.00028  -0.00146
   D13       -3.14120  -0.00001   0.00000  -0.00046  -0.00046   3.14152
   D14        0.00014   0.00001   0.00000   0.00001   0.00001   0.00015
   D15       -0.00007   0.00000   0.00000   0.00022   0.00022   0.00015
   D16        3.14127   0.00002   0.00000   0.00069   0.00069  -3.14122
         Item               Value     Threshold  Converged?
 Maximum Force            0.020624     0.000450     NO 
 RMS     Force            0.004577     0.000300     NO 
 Maximum Displacement     0.040971     0.001800     NO 
 RMS     Displacement     0.015704     0.001200     NO 
 Predicted change in Energy=-1.129422D-03
 GradGradGradGradGradGradGradGradGradGradGradGradGradGradGradGradGradGrad

                          Input orientation:                          
 ---------------------------------------------------------------------
 Center     Atomic      Atomic             Coordinates (Angstroms)
 Number     Number       Type             X           Y           Z
 ---------------------------------------------------------------------
      1          6           0        0.960321    0.996102    1.377638
      2          6           0        2.098705    1.894522    0.971965
      3          6           0        3.473120    1.432963    1.378859
      4          6           0        1.904427    3.013584    0.303606
      5          1           0        1.081327    0.003169    0.952476
      6          1           0        0.930205    0.873905    2.457217
      7          1           0        0.004015    1.387405    1.055165
      8          1           0        3.542360    1.330332    2.458674
      9          1           0        3.693824    0.456416    0.955823
     10          1           0        4.241779    2.122914    1.055168
     11          1           0        2.721900    3.649719    0.017594
     12          1           0        0.920418    3.336569    0.017016
 ---------------------------------------------------------------------
                    Distance matrix (angstroms):
                    1          2          3          4          5
     1  C    0.000000
     2  C    1.505870   0.000000
     3  C    2.550491   1.505860   0.000000
     4  C    2.472876   1.317858   2.472919   0.000000
     5  H    1.086885   2.147708   2.819005   3.187652   0.000000
     6  H    1.086890   2.147795   2.818123   3.188319   1.745068
     7  H    1.082418   2.156807   3.484471   2.611678   1.757058
     8  H    2.819091   2.147733   1.086890   3.187552   3.175953
     9  H    2.818018   2.147746   1.086883   3.188485   2.651525
    10  H    3.484488   2.156815   1.082425   2.611772   3.806878
    11  H    3.463316   2.092824   2.707652   1.074584   4.106435
    12  H    2.707521   2.092795   3.463325   1.074582   3.465910
                    6          7          8          9         10
     6  H    0.000000
     7  H    1.757059   0.000000
     8  H    2.651732   3.806965   0.000000
     9  H    3.172707   3.806744   1.745059   0.000000
    10  H    3.806874   4.301118   1.757044   1.757083   0.000000
    11  H    4.106955   3.685310   3.465774   3.467289   2.391177
    12  H    3.466899   2.390981   4.106247   4.107119   3.685398
                   11         12
    11  H    0.000000
    12  H    1.828496   0.000000
 Stoichiometry    C4H8
 Framework group  C1[X(C4H8)]
 Deg. of freedom    30
 Full point group                 C1      NOp   1
 Largest Abelian subgroup         C1      NOp   1
 Largest concise Abelian subgroup C1      NOp   1
                         Standard orientation:                         
 ---------------------------------------------------------------------
 Center     Atomic      Atomic             Coordinates (Angstroms)
 Number     Number       Type             X           Y           Z
 ---------------------------------------------------------------------
      1          6           0       -1.275145   -0.674338    0.000012
      2          6           0        0.000001    0.126692   -0.000086
      3          6           0        1.275346   -0.674000    0.000015
      4          6           0       -0.000222    1.444550   -0.000018
      5          1           0       -1.326120   -1.319668   -0.873069
      6          1           0       -1.325145   -1.321231    0.871997
      7          1           0       -2.150532   -0.037687    0.001072
      8          1           0        1.326585   -1.319029    0.873308
      9          1           0        1.325405   -1.321175   -0.871749
     10          1           0        2.150585   -0.037132   -0.001317
     11          1           0        0.913918    2.009421   -0.000026
     12          1           0       -0.914578    2.009067    0.000251
 ---------------------------------------------------------------------
 Rotational constants (GHZ):      9.2992397      8.3960844      4.6621531
 Standard basis: 6-31G(d) (6D, 7F)
 There are    76 symmetry adapted cartesian basis functions of A   symmetry.
 There are    76 symmetry adapted basis functions of A   symmetry.
    76 basis functions,   144 primitive gaussians,    76 cartesian basis functions
    16 alpha electrons       16 beta electrons
       nuclear repulsion energy       120.2768843182 Hartrees.
 NAtoms=   12 NActive=   12 NUniq=   12 SFac= 1.00D+00 NAtFMM=   60 NAOKFM=F Big=F
 Integral buffers will be    131072 words long.
 Raffenetti 1 integral format.
 Two-electron integral symmetry is turned on.
 One-electron integrals computed using PRISM.
 NBasis=    76 RedAO= T EigKep=  3.89D-03  NBF=    76
 NBsUse=    76 1.00D-06 EigRej= -1.00D+00 NBFU=    76
 Initial guess from the checkpoint file:  "2-methyl-1-Propene-opt.chk"
 B after Tr=     0.000000    0.000000   -0.000000
         Rot=    1.000000   -0.000003    0.000025    0.000121 Ang=  -0.01 deg.
 ExpMin= 1.61D-01 ExpMax= 3.05D+03 ExpMxC= 4.57D+02 IAcc=1 IRadAn=         1 AccDes= 0.00D+00
 Harris functional with IExCor=  205 and IRadAn=       1 diagonalized for initial guess.
 HarFok:  IExCor=  205 AccDes= 0.00D+00 IRadAn=         1 IDoV= 1 UseB2=F ITyADJ=14
 ICtDFT=  3500011 ScaDFX=  1.000000  1.000000  1.000000  1.000000
 FoFCou: FMM=F IPFlag=           0 FMFlag=      100000 FMFlg1=           0
         NFxFlg=           0 DoJE=T BraDBF=F KetDBF=T FulRan=T
         wScrn=  0.000000 ICntrl=     500 IOpCl=  0 I1Cent=   200000004 NGrid=           0
         NMat0=    1 NMatS0=      1 NMatT0=    0 NMatD0=    1 NMtDS0=    0 NMtDT0=    0
 Petite list used in FoFCou.
 Keep R1 ints in memory in canonical form, NReq=5182451.
 Requested convergence on RMS density matrix=1.00D-08 within 128 cycles.
 Requested convergence on MAX density matrix=1.00D-06.
 Requested convergence on             energy=1.00D-06.
 No special actions if energy rises.
 SCF Done:  E(RHF) =  -156.110634081     A.U. after   10 cycles
            NFock= 10  Conv=0.20D-08     -V/T= 2.0003
 Calling FoFJK, ICntrl=      2127 FMM=F ISym2X=0 I1Cent= 0 IOpClX= 0 NMat=1 NMatS=1 NMatT=0.
 ***** Axes restored to original set *****
 -------------------------------------------------------------------
 Center     Atomic                   Forces (Hartrees/Bohr)
 Number     Number              X              Y              Z
 -------------------------------------------------------------------
      1        6          -0.000200043   -0.001275770    0.000715140
      2        6           0.000321438   -0.001899261    0.001162748
      3        6           0.000626642   -0.001131410    0.000708405
      4        6          -0.000447254    0.002596161   -0.001538044
      5        1           0.000095011   -0.000443557   -0.000271758
      6        1           0.000018814    0.000028196    0.000522769
      7        1          -0.000551704    0.000397330   -0.000289083
      8        1          -0.000029663    0.000015400    0.000525347
      9        1           0.000062780   -0.000445530   -0.000276692
     10        1           0.000381297    0.000558316   -0.000287085
     11        1           0.000656291    0.000937226   -0.000483808
     12        1          -0.000933610    0.000662899   -0.000487939
 -------------------------------------------------------------------
 Cartesian Forces:  Max     0.002596161 RMS     0.000816660

 GradGradGradGradGradGradGradGradGradGradGradGradGradGradGradGradGradGrad
 Berny optimization.
 Using GEDIIS/GDIIS optimizer.
 FormGI is forming the generalized inverse of G from B-inverse, IUseBI=4.
 Internal  Forces:  Max     0.004942958 RMS     0.000894260
 Search for a local minimum.
 Step number   2 out of a maximum of   55
 All quantities printed in internal units (Hartrees-Bohrs-Radians)
 Mixed Optimization -- En-DIIS/RFO-DIIS
 Update second derivatives using D2CorX and points    1    2
 DE= -9.77D-04 DEPred=-1.13D-03 R= 8.65D-01
 TightC=F SS=  1.41D+00  RLast= 7.59D-02 DXNew= 5.0454D-01 2.2780D-01
 Trust test= 8.65D-01 RLast= 7.59D-02 DXMaxT set to 3.00D-01
 ITU=  1  0
 Use linear search instead of GDIIS.
     Eigenvalues ---    0.00649   0.00650   0.01273   0.02927   0.02927
     Eigenvalues ---    0.07034   0.07035   0.07228   0.07236   0.15914
     Eigenvalues ---    0.16000   0.16000   0.16000   0.16000   0.16000
     Eigenvalues ---    0.16000   0.16033   0.24870   0.25000   0.31161
     Eigenvalues ---    0.31473   0.33789   0.33796   0.33801   0.33863
     Eigenvalues ---    0.34322   0.34459   0.35120   0.36372   0.65301
 RFO step:  Lambda=-2.67351795D-05 EMin= 6.49055752D-03
 Quartic linear search produced a step of -0.12196.
 Iteration  1 RMS(Cart)=  0.00370746 RMS(Int)=  0.00000217
 Iteration  2 RMS(Cart)=  0.00000396 RMS(Int)=  0.00000011
 Iteration  3 RMS(Cart)=  0.00000000 RMS(Int)=  0.00000011
 Variable       Old X    -DE/DX   Delta X   Delta X   Delta X     New X
                                 (Linear)    (Quad)   (Total)
    R1        2.84568   0.00144   0.00068   0.00322   0.00391   2.84959
    R2        2.05392   0.00052   0.00279  -0.00184   0.00095   2.05486
    R3        2.05392   0.00052   0.00278  -0.00185   0.00093   2.05486
    R4        2.04547   0.00072   0.00274  -0.00131   0.00143   2.04691
    R5        2.84566   0.00144   0.00066   0.00325   0.00391   2.84958
    R6        2.49039   0.00494   0.00432   0.00262   0.00694   2.49733
    R7        2.05392   0.00052   0.00280  -0.00187   0.00094   2.05486
    R8        2.05391   0.00052   0.00277  -0.00182   0.00095   2.05486
    R9        2.04549   0.00071   0.00273  -0.00130   0.00142   2.04691
   R10        2.03067   0.00118   0.00294  -0.00041   0.00253   2.03320
   R11        2.03067   0.00118   0.00295  -0.00042   0.00253   2.03320
    A1        1.93424  -0.00003   0.00047  -0.00061  -0.00014   1.93410
    A2        1.93436  -0.00004   0.00045  -0.00068  -0.00022   1.93413
    A3        1.95190  -0.00024   0.00013  -0.00170  -0.00157   1.95033
    A4        1.86389   0.00011  -0.00083   0.00203   0.00120   1.86509
    A5        1.88818   0.00011  -0.00014   0.00058   0.00044   1.88862
    A6        1.88818   0.00012  -0.00015   0.00060   0.00045   1.88863
    A7        2.02008  -0.00113   0.00007  -0.00403  -0.00397   2.01611
    A8        2.13152   0.00057  -0.00005   0.00206   0.00201   2.13353
    A9        2.13159   0.00055  -0.00002   0.00197   0.00195   2.13354
   A10        1.93428  -0.00004   0.00046  -0.00068  -0.00022   1.93406
   A11        1.93431  -0.00003   0.00044  -0.00059  -0.00014   1.93417
   A12        1.95192  -0.00024   0.00012  -0.00170  -0.00158   1.95034
   A13        1.86388   0.00011  -0.00082   0.00203   0.00120   1.86509
   A14        1.88814   0.00012  -0.00015   0.00062   0.00047   1.88861
   A15        1.88821   0.00011  -0.00013   0.00055   0.00042   1.88863
   A16        2.12412   0.00025   0.00010   0.00128   0.00138   2.12550
   A17        2.12408   0.00026   0.00006   0.00136   0.00142   2.12550
   A18        2.03499  -0.00052  -0.00016  -0.00264  -0.00280   2.03219
    D1       -1.03430  -0.00004   0.00023  -0.00036  -0.00012  -1.03442
    D2        2.10750  -0.00004   0.00016  -0.00047  -0.00031   2.10719
    D3        1.03196   0.00005  -0.00021   0.00135   0.00113   1.03309
    D4       -2.10943   0.00005  -0.00029   0.00124   0.00094  -2.10849
    D5        3.14046   0.00000  -0.00000   0.00049   0.00049   3.14094
    D6       -0.00093  -0.00000  -0.00008   0.00038   0.00030  -0.00063
    D7       -1.03442  -0.00005   0.00011  -0.00024  -0.00013  -1.03455
    D8        1.03182   0.00005  -0.00034   0.00148   0.00114   1.03296
    D9        3.14034   0.00000  -0.00011   0.00061   0.00050   3.14084
   D10        2.10696  -0.00004   0.00019  -0.00012   0.00006   2.10702
   D11       -2.10998   0.00005  -0.00026   0.00159   0.00133  -2.10865
   D12       -0.00146   0.00000  -0.00003   0.00072   0.00069  -0.00077
   D13        3.14152   0.00001   0.00006   0.00019   0.00025  -3.14141
   D14        0.00015  -0.00000  -0.00000  -0.00008  -0.00008   0.00007
   D15        0.00015   0.00000  -0.00003   0.00007   0.00005   0.00020
   D16       -3.14122  -0.00001  -0.00008  -0.00020  -0.00028  -3.14150
         Item               Value     Threshold  Converged?
 Maximum Force            0.004943     0.000450     NO 
 RMS     Force            0.000894     0.000300     NO 
 Maximum Displacement     0.010758     0.001800     NO 
 RMS     Displacement     0.003708     0.001200     NO 
 Predicted change in Energy=-3.345479D-05
 GradGradGradGradGradGradGradGradGradGradGradGradGradGradGradGradGradGrad

                          Input orientation:                          
 ---------------------------------------------------------------------
 Center     Atomic      Atomic             Coordinates (Angstroms)
 Number     Number       Type             X           Y           Z
 ---------------------------------------------------------------------
      1          6           0        0.960520    0.993976    1.379015
      2          6           0        2.098513    1.895517    0.971500
      3          6           0        3.473643    1.430830    1.380081
      4          6           0        1.903726    3.017672    0.301220
      5          1           0        1.082868    0.000840    0.953432
      6          1           0        0.931251    0.872814    2.459229
      7          1           0        0.003364    1.385012    1.056192
      8          1           0        3.541565    1.327932    2.460453
      9          1           0        3.693453    0.454074    0.955777
     10          1           0        4.243088    2.121270    1.056782
     11          1           0        2.721297    3.655412    0.014031
     12          1           0        0.919111    3.342253    0.013488
 ---------------------------------------------------------------------
                    Distance matrix (angstroms):
                    1          2          3          4          5
     1  C    0.000000
     2  C    1.507937   0.000000
     3  C    2.550809   1.507931   0.000000
     4  C    2.479238   1.321533   2.479244   0.000000
     5  H    1.087386   2.149806   2.818281   3.193817   0.000000
     6  H    1.087382   2.149829   2.817748   3.194234   1.746640
     7  H    1.083177   2.158110   3.485662   2.616665   1.758357
     8  H    2.818302   2.149775   1.087385   3.193748   3.174505
     9  H    2.817720   2.149846   1.087383   3.194308   2.649639
    10  H    3.485667   2.158110   1.083179   2.616682   3.807085
    11  H    3.470844   2.098055   2.716778   1.075924   4.113736
    12  H    2.716759   2.098052   3.470843   1.075923   3.474961
                    6          7          8          9         10
     6  H    0.000000
     7  H    1.758361   0.000000
     8  H    2.649693   3.807108   0.000000
     9  H    3.172613   3.807031   1.746639   0.000000
    10  H    3.807068   4.303177   1.758356   1.758364   0.000000
    11  H    4.114136   3.691608   3.474908   3.475707   2.399327
    12  H    3.475619   2.399295   4.113684   4.114178   3.691624
                   11         12
    11  H    0.000000
    12  H    1.829192   0.000000
 Stoichiometry    C4H8
 Framework group  C1[X(C4H8)]
 Deg. of freedom    30
 Full point group                 C1      NOp   1
 Largest Abelian subgroup         C1      NOp   1
 Largest concise Abelian subgroup C1      NOp   1
                         Standard orientation:                         
 ---------------------------------------------------------------------
 Center     Atomic      Atomic             Coordinates (Angstroms)
 Number     Number       Type             X           Y           Z
 ---------------------------------------------------------------------
      1          6           0       -1.275392   -0.676844   -0.000006
      2          6           0        0.000002    0.127669   -0.000005
      3          6           0        1.275417   -0.676801    0.000001
      4          6           0       -0.000029    1.449201    0.000012
      5          1           0       -1.325102   -1.322316   -0.873679
      6          1           0       -1.324520   -1.323309    0.872961
      7          1           0       -2.151584   -0.040008    0.000642
      8          1           0        1.325173   -1.322160    0.873754
      9          1           0        1.324536   -1.323376   -0.872885
     10          1           0        2.151593   -0.039941   -0.000752
     11          1           0        0.914553    2.015904   -0.000151
     12          1           0       -0.914639    2.015857    0.000092
 ---------------------------------------------------------------------
 Rotational constants (GHZ):      9.2419258      8.3939907      4.6475353
 Standard basis: 6-31G(d) (6D, 7F)
 There are    76 symmetry adapted cartesian basis functions of A   symmetry.
 There are    76 symmetry adapted basis functions of A   symmetry.
    76 basis functions,   144 primitive gaussians,    76 cartesian basis functions
    16 alpha electrons       16 beta electrons
       nuclear repulsion energy       120.1003008449 Hartrees.
 NAtoms=   12 NActive=   12 NUniq=   12 SFac= 1.00D+00 NAtFMM=   60 NAOKFM=F Big=F
 Integral buffers will be    131072 words long.
 Raffenetti 1 integral format.
 Two-electron integral symmetry is turned on.
 One-electron integrals computed using PRISM.
 NBasis=    76 RedAO= T EigKep=  3.96D-03  NBF=    76
 NBsUse=    76 1.00D-06 EigRej= -1.00D+00 NBFU=    76
 Initial guess from the checkpoint file:  "2-methyl-1-Propene-opt.chk"
 B after Tr=    -0.000000   -0.000000    0.000000
         Rot=    1.000000   -0.000009    0.000020    0.000062 Ang=  -0.01 deg.
 Keep R1 ints in memory in canonical form, NReq=5182383.
 Requested convergence on RMS density matrix=1.00D-08 within 128 cycles.
 Requested convergence on MAX density matrix=1.00D-06.
 Requested convergence on             energy=1.00D-06.
 No special actions if energy rises.
 SCF Done:  E(RHF) =  -156.110666194     A.U. after    9 cycles
            NFock=  9  Conv=0.69D-08     -V/T= 2.0005
 Calling FoFJK, ICntrl=      2127 FMM=F ISym2X=0 I1Cent= 0 IOpClX= 0 NMat=1 NMatS=1 NMatT=0.
 ***** Axes restored to original set *****
 -------------------------------------------------------------------
 Center     Atomic                   Forces (Hartrees/Bohr)
 Number     Number              X              Y              Z
 -------------------------------------------------------------------
      1        6          -0.000059916   -0.000106341    0.000059464
      2        6          -0.000096982    0.000537285   -0.000323753
      3        6           0.000096252   -0.000080650    0.000057477
      4        6           0.000112250   -0.000639039    0.000372102
      5        1           0.000084431   -0.000049862   -0.000088924
      6        1           0.000062863    0.000060395    0.000100574
      7        1          -0.000173276    0.000074395   -0.000061744
      8        1          -0.000078913    0.000031925    0.000100183
      9        1          -0.000062714   -0.000074201   -0.000092483
     10        1           0.000136736    0.000128944   -0.000059612
     11        1           0.000117174    0.000081712   -0.000029389
     12        1          -0.000137903    0.000035436   -0.000033894
 -------------------------------------------------------------------
 Cartesian Forces:  Max     0.000639039 RMS     0.000181910

 GradGradGradGradGradGradGradGradGradGradGradGradGradGradGradGradGradGrad
 Berny optimization.
 Using GEDIIS/GDIIS optimizer.
 FormGI is forming the generalized inverse of G from B-inverse, IUseBI=4.
 Internal  Forces:  Max     0.000613277 RMS     0.000118852
 Search for a local minimum.
 Step number   3 out of a maximum of   55
 All quantities printed in internal units (Hartrees-Bohrs-Radians)
 Mixed Optimization -- En-DIIS/RFO-DIIS
 Swapping is turned off.
 Update second derivatives using D2CorX and points    1    2    3
 DE= -3.21D-05 DEPred=-3.35D-05 R= 9.60D-01
 TightC=F SS=  1.41D+00  RLast= 1.22D-02 DXNew= 5.0454D-01 3.6734D-02
 Trust test= 9.60D-01 RLast= 1.22D-02 DXMaxT set to 3.00D-01
 ITU=  1  1  0
     Eigenvalues ---    0.00649   0.00650   0.01276   0.02927   0.02927
     Eigenvalues ---    0.07048   0.07049   0.07237   0.07238   0.15349
     Eigenvalues ---    0.16000   0.16000   0.16000   0.16000   0.16000
     Eigenvalues ---    0.16000   0.16250   0.24608   0.25000   0.30853
     Eigenvalues ---    0.31473   0.33718   0.33790   0.33796   0.33802
     Eigenvalues ---    0.34184   0.34322   0.35120   0.35228   0.74267
 En-DIIS/RFO-DIIS IScMMF=        0 using points:     3    2
 RFO step:  Lambda=-9.72774052D-07.
 DidBck=F Rises=F RFO-DIIS coefs:    0.97717    0.02283
 Iteration  1 RMS(Cart)=  0.00056821 RMS(Int)=  0.00000029
 Iteration  2 RMS(Cart)=  0.00000028 RMS(Int)=  0.00000010
 Variable       Old X    -DE/DX   Delta X   Delta X   Delta X     New X
                                 (Linear)    (Quad)   (Total)
    R1        2.84959   0.00008  -0.00009   0.00044   0.00035   2.84994
    R2        2.05486   0.00009  -0.00002   0.00031   0.00028   2.05515
    R3        2.05486   0.00009  -0.00002   0.00031   0.00029   2.05514
    R4        2.04691   0.00020  -0.00003   0.00063   0.00060   2.04751
    R5        2.84958   0.00008  -0.00009   0.00045   0.00036   2.84994
    R6        2.49733  -0.00061  -0.00016  -0.00069  -0.00084   2.49649
    R7        2.05486   0.00009  -0.00002   0.00031   0.00029   2.05515
    R8        2.05486   0.00009  -0.00002   0.00031   0.00028   2.05514
    R9        2.04691   0.00020  -0.00003   0.00063   0.00060   2.04751
   R10        2.03320   0.00015  -0.00006   0.00053   0.00047   2.03367
   R11        2.03320   0.00015  -0.00006   0.00053   0.00047   2.03367
    A1        1.93410  -0.00012   0.00000  -0.00074  -0.00074   1.93336
    A2        1.93413  -0.00012   0.00001  -0.00073  -0.00073   1.93340
    A3        1.95033   0.00004   0.00004   0.00022   0.00026   1.95059
    A4        1.86509   0.00011  -0.00003   0.00062   0.00059   1.86568
    A5        1.88862   0.00005  -0.00001   0.00035   0.00034   1.88896
    A6        1.88863   0.00005  -0.00001   0.00035   0.00034   1.88897
    A7        2.01611  -0.00004   0.00009  -0.00036  -0.00027   2.01584
    A8        2.13353   0.00002  -0.00005   0.00019   0.00014   2.13367
    A9        2.13354   0.00002  -0.00004   0.00017   0.00013   2.13367
   A10        1.93406  -0.00011   0.00000  -0.00071  -0.00070   1.93336
   A11        1.93417  -0.00012   0.00000  -0.00076  -0.00076   1.93340
   A12        1.95034   0.00004   0.00004   0.00021   0.00025   1.95059
   A13        1.86509   0.00011  -0.00003   0.00062   0.00059   1.86568
   A14        1.88861   0.00005  -0.00001   0.00035   0.00034   1.88896
   A15        1.88863   0.00005  -0.00001   0.00035   0.00034   1.88897
   A16        2.12550  -0.00001  -0.00003   0.00002  -0.00001   2.12549
   A17        2.12550  -0.00001  -0.00003   0.00003  -0.00001   2.12549
   A18        2.03219   0.00001   0.00006  -0.00005   0.00002   2.03220
    D1       -1.03442   0.00001   0.00000   0.00029   0.00029  -1.03413
    D2        2.10719   0.00001   0.00001   0.00030   0.00031   2.10749
    D3        1.03309  -0.00001  -0.00003   0.00012   0.00010   1.03319
    D4       -2.10849  -0.00001  -0.00002   0.00013   0.00011  -2.10838
    D5        3.14094   0.00000  -0.00001   0.00021   0.00020   3.14114
    D6       -0.00063   0.00000  -0.00001   0.00021   0.00021  -0.00042
    D7       -1.03455   0.00001   0.00000   0.00037   0.00038  -1.03417
    D8        1.03296  -0.00001  -0.00003   0.00021   0.00018   1.03314
    D9        3.14084   0.00000  -0.00001   0.00027   0.00025   3.14110
   D10        2.10702   0.00001  -0.00000   0.00037   0.00036   2.10739
   D11       -2.10865  -0.00001  -0.00003   0.00020   0.00017  -2.10848
   D12       -0.00077   0.00000  -0.00002   0.00026   0.00024  -0.00053
   D13       -3.14141  -0.00000  -0.00001  -0.00015  -0.00015  -3.14157
   D14        0.00007   0.00000   0.00000   0.00000   0.00000   0.00008
   D15        0.00020  -0.00000  -0.00000  -0.00014  -0.00014   0.00006
   D16       -3.14150   0.00000   0.00001   0.00001   0.00002  -3.14149
         Item               Value     Threshold  Converged?
 Maximum Force            0.000613     0.000450     NO 
 RMS     Force            0.000119     0.000300     YES
 Maximum Displacement     0.001626     0.001800     YES
 RMS     Displacement     0.000568     0.001200     YES
 Predicted change in Energy=-8.184237D-07
 GradGradGradGradGradGradGradGradGradGradGradGradGradGradGradGradGradGrad

                          Input orientation:                          
 ---------------------------------------------------------------------
 Center     Atomic      Atomic             Coordinates (Angstroms)
 Number     Number       Type             X           Y           Z
 ---------------------------------------------------------------------
      1          6           0        0.960465    0.993981    1.379060
      2          6           0        2.098472    1.895729    0.971350
      3          6           0        3.473698    1.430815    1.380056
      4          6           0        1.903759    3.017491    0.301273
      5          1           0        1.083728    0.000850    0.953345
      6          1           0        0.931873    0.873402    2.459511
      7          1           0        0.002849    1.384704    1.056153
      8          1           0        3.540725    1.327781    2.460625
      9          1           0        3.692759    0.453956    0.955215
     10          1           0        4.243639    2.121317    1.057012
     11          1           0        2.721521    3.655416    0.014105
     12          1           0        0.918912    3.342159    0.013495
 ---------------------------------------------------------------------
                    Distance matrix (angstroms):
                    1          2          3          4          5
     1  C    0.000000
     2  C    1.508124   0.000000
     3  C    2.550915   1.508122   0.000000
     4  C    2.479117   1.321086   2.479118   0.000000
     5  H    1.087536   2.149557   2.817595   3.193395   0.000000
     6  H    1.087535   2.149588   2.817234   3.193693   1.747268
     7  H    1.083495   2.158697   3.486235   2.617116   1.758954
     8  H    2.817614   2.149558   1.087538   3.193365   3.173243
     9  H    2.817215   2.149586   1.087534   3.193724   2.648084
    10  H    3.486235   2.158696   1.083495   2.617118   3.806858
    11  H    3.470973   2.097857   2.716697   1.076173   4.113440
    12  H    2.716696   2.097858   3.470974   1.076173   3.474885
                    6          7          8          9         10
     6  H    0.000000
     7  H    1.758957   0.000000
     8  H    2.648125   3.806881   0.000000
     9  H    3.171960   3.806824   1.747268   0.000000
    10  H    3.806848   4.304288   1.758954   1.758956   0.000000
    11  H    4.113691   3.692313   3.474830   3.475390   2.399575
    12  H    3.475331   2.399570   4.113401   4.113730   3.692315
                   11         12
    11  H    0.000000
    12  H    1.829625   0.000000
 Stoichiometry    C4H8
 Framework group  C1[X(C4H8)]
 Deg. of freedom    30
 Full point group                 C1      NOp   1
 Largest Abelian subgroup         C1      NOp   1
 Largest concise Abelian subgroup C1      NOp   1
                         Standard orientation:                         
 ---------------------------------------------------------------------
 Center     Atomic      Atomic             Coordinates (Angstroms)
 Number     Number       Type             X           Y           Z
 ---------------------------------------------------------------------
      1          6           0       -1.275456   -0.676845    0.000001
      2          6           0        0.000000    0.127922   -0.000013
      3          6           0        1.275459   -0.676838    0.000003
      4          6           0       -0.000005    1.449007   -0.000005
      5          1           0       -1.324247   -1.322365   -0.873875
      6          1           0       -1.323851   -1.323047    0.873393
      7          1           0       -2.152144   -0.040151    0.000444
      8          1           0        1.324275   -1.322294    0.873926
      9          1           0        1.323837   -1.323103   -0.873341
     10          1           0        2.152145   -0.040141   -0.000507
     11          1           0        0.914806    2.015814   -0.000038
     12          1           0       -0.914819    2.015807    0.000082
 ---------------------------------------------------------------------
 Rotational constants (GHZ):      9.2427099      8.3936113      4.6478063
 Standard basis: 6-31G(d) (6D, 7F)
 There are    76 symmetry adapted cartesian basis functions of A   symmetry.
 There are    76 symmetry adapted basis functions of A   symmetry.
    76 basis functions,   144 primitive gaussians,    76 cartesian basis functions
    16 alpha electrons       16 beta electrons
       nuclear repulsion energy       120.0983583701 Hartrees.
 NAtoms=   12 NActive=   12 NUniq=   12 SFac= 1.00D+00 NAtFMM=   60 NAOKFM=F Big=F
 Integral buffers will be    131072 words long.
 Raffenetti 1 integral format.
 Two-electron integral symmetry is turned on.
 One-electron integrals computed using PRISM.
 NBasis=    76 RedAO= T EigKep=  3.95D-03  NBF=    76
 NBsUse=    76 1.00D-06 EigRej= -1.00D+00 NBFU=    76
 Initial guess from the checkpoint file:  "2-methyl-1-Propene-opt.chk"
 B after Tr=     0.000000   -0.000000   -0.000000
         Rot=    1.000000   -0.000002    0.000008    0.000008 Ang=  -0.00 deg.
 Keep R1 ints in memory in canonical form, NReq=5182383.
 Requested convergence on RMS density matrix=1.00D-08 within 128 cycles.
 Requested convergence on MAX density matrix=1.00D-06.
 Requested convergence on             energy=1.00D-06.
 No special actions if energy rises.
 SCF Done:  E(RHF) =  -156.110666961     A.U. after    7 cycles
            NFock=  7  Conv=0.44D-08     -V/T= 2.0005
 Calling FoFJK, ICntrl=      2127 FMM=F ISym2X=0 I1Cent= 0 IOpClX= 0 NMat=1 NMatS=1 NMatT=0.
 ***** Axes restored to original set *****
 -------------------------------------------------------------------
 Center     Atomic                   Forces (Hartrees/Bohr)
 Number     Number              X              Y              Z
 -------------------------------------------------------------------
      1        6          -0.000011837   -0.000043909    0.000023023
      2        6          -0.000012987    0.000069722   -0.000038889
      3        6           0.000026647   -0.000037108    0.000023906
      4        6          -0.000001306    0.000009019   -0.000001984
      5        1          -0.000006685    0.000024812    0.000010520
      6        1          -0.000002653    0.000005707   -0.000027416
      7        1           0.000042960   -0.000012481    0.000010651
      8        1           0.000001086    0.000003601   -0.000028317
      9        1          -0.000002366    0.000026152    0.000007803
     10        1          -0.000036373   -0.000025216    0.000012070
     11        1          -0.000035384   -0.000016321    0.000004734
     12        1           0.000038897   -0.000003977    0.000003901
 -------------------------------------------------------------------
 Cartesian Forces:  Max     0.000069722 RMS     0.000024899

 GradGradGradGradGradGradGradGradGradGradGradGradGradGradGradGradGradGrad
 Berny optimization.
 Using GEDIIS/GDIIS optimizer.
 FormGI is forming the generalized inverse of G from B-inverse, IUseBI=4.
 Internal  Forces:  Max     0.000058228 RMS     0.000018917
 Search for a local minimum.
 Step number   4 out of a maximum of   55
 All quantities printed in internal units (Hartrees-Bohrs-Radians)
 Mixed Optimization -- En-DIIS/RFO-DIIS
 Swapping is turned off.
 Update second derivatives using D2CorX and points    1    2    3    4
 DE= -7.67D-07 DEPred=-8.18D-07 R= 9.37D-01
 Trust test= 9.37D-01 RLast= 2.61D-03 DXMaxT set to 3.00D-01
 ITU=  0  1  1  0
     Eigenvalues ---    0.00647   0.00650   0.01277   0.02927   0.02929
     Eigenvalues ---    0.07050   0.07050   0.07245   0.07258   0.14484
     Eigenvalues ---    0.15999   0.16000   0.16000   0.16000   0.16000
     Eigenvalues ---    0.16001   0.16480   0.23933   0.25000   0.30605
     Eigenvalues ---    0.31473   0.33789   0.33796   0.33801   0.33854
     Eigenvalues ---    0.34322   0.34819   0.35120   0.39480   0.72851
 En-DIIS/RFO-DIIS IScMMF=        0 using points:     4    3    2
 RFO step:  Lambda=-2.84849247D-08.
 DidBck=F Rises=F RFO-DIIS coefs:    0.93946    0.05884    0.00170
 Iteration  1 RMS(Cart)=  0.00016693 RMS(Int)=  0.00000001
 Iteration  2 RMS(Cart)=  0.00000002 RMS(Int)=  0.00000001
 Variable       Old X    -DE/DX   Delta X   Delta X   Delta X     New X
                                 (Linear)    (Quad)   (Total)
    R1        2.84994   0.00000  -0.00003   0.00006   0.00003   2.84997
    R2        2.05515  -0.00003  -0.00002  -0.00005  -0.00007   2.05507
    R3        2.05514  -0.00003  -0.00002  -0.00005  -0.00007   2.05507
    R4        2.04751  -0.00005  -0.00004  -0.00007  -0.00011   2.04740
    R5        2.84994   0.00000  -0.00003   0.00006   0.00003   2.84997
    R6        2.49649  -0.00001   0.00004  -0.00008  -0.00004   2.49645
    R7        2.05515  -0.00003  -0.00002  -0.00006  -0.00008   2.05507
    R8        2.05514  -0.00003  -0.00002  -0.00005  -0.00007   2.05507
    R9        2.04751  -0.00005  -0.00004  -0.00007  -0.00011   2.04740
   R10        2.03367  -0.00004  -0.00003  -0.00005  -0.00009   2.03358
   R11        2.03367  -0.00004  -0.00003  -0.00005  -0.00009   2.03358
    A1        1.93336   0.00001   0.00004  -0.00002   0.00002   1.93338
    A2        1.93340   0.00000   0.00004  -0.00005  -0.00000   1.93340
    A3        1.95059  -0.00001  -0.00001  -0.00006  -0.00007   1.95052
    A4        1.86568   0.00000  -0.00004   0.00009   0.00006   1.86574
    A5        1.88896   0.00000  -0.00002   0.00003   0.00000   1.88896
    A6        1.88897   0.00000  -0.00002   0.00002   0.00000   1.88897
    A7        2.01584  -0.00006   0.00002  -0.00026  -0.00024   2.01560
    A8        2.13367   0.00003  -0.00001   0.00013   0.00012   2.13379
    A9        2.13367   0.00003  -0.00001   0.00013   0.00012   2.13379
   A10        1.93336   0.00001   0.00004  -0.00003   0.00001   1.93338
   A11        1.93340   0.00000   0.00005  -0.00005   0.00000   1.93341
   A12        1.95059  -0.00001  -0.00001  -0.00006  -0.00007   1.95052
   A13        1.86568   0.00000  -0.00004   0.00009   0.00006   1.86574
   A14        1.88896   0.00000  -0.00002   0.00003   0.00001   1.88896
   A15        1.88897   0.00000  -0.00002   0.00002   0.00000   1.88897
   A16        2.12549   0.00001  -0.00000   0.00005   0.00005   2.12554
   A17        2.12549   0.00001  -0.00000   0.00005   0.00005   2.12554
   A18        2.03220  -0.00001   0.00000  -0.00009  -0.00009   2.03211
    D1       -1.03413  -0.00000  -0.00002   0.00015   0.00013  -1.03400
    D2        2.10749  -0.00000  -0.00002   0.00011   0.00009   2.10758
    D3        1.03319   0.00000  -0.00001   0.00022   0.00021   1.03340
    D4       -2.10838   0.00000  -0.00001   0.00018   0.00017  -2.10821
    D5        3.14114   0.00000  -0.00001   0.00017   0.00016   3.14130
    D6       -0.00042   0.00000  -0.00001   0.00013   0.00012  -0.00030
    D7       -1.03417  -0.00000  -0.00002   0.00014   0.00012  -1.03406
    D8        1.03314   0.00000  -0.00001   0.00021   0.00020   1.03334
    D9        3.14110   0.00000  -0.00002   0.00016   0.00015   3.14125
   D10        2.10739  -0.00000  -0.00002   0.00018   0.00016   2.10755
   D11       -2.10848   0.00000  -0.00001   0.00025   0.00024  -2.10824
   D12       -0.00053   0.00000  -0.00002   0.00021   0.00019  -0.00033
   D13       -3.14157   0.00000   0.00001   0.00004   0.00005  -3.14152
   D14        0.00008  -0.00000  -0.00000  -0.00003  -0.00003   0.00004
   D15        0.00006   0.00000   0.00001  -0.00001   0.00000   0.00006
   D16       -3.14149  -0.00000  -0.00000  -0.00008  -0.00008  -3.14156
         Item               Value     Threshold  Converged?
 Maximum Force            0.000058     0.000450     YES
 RMS     Force            0.000019     0.000300     YES
 Maximum Displacement     0.000427     0.001800     YES
 RMS     Displacement     0.000167     0.001200     YES
 Predicted change in Energy=-2.680268D-08
 Optimization completed.
    -- Stationary point found.
                           ----------------------------
                           !   Optimized Parameters   !
                           ! (Angstroms and Degrees)  !
 --------------------------                            --------------------------
 ! Name  Definition              Value          Derivative Info.                !
 --------------------------------------------------------------------------------
 ! R1    R(1,2)                  1.5081         -DE/DX =    0.0                 !
 ! R2    R(1,5)                  1.0875         -DE/DX =    0.0                 !
 ! R3    R(1,6)                  1.0875         -DE/DX =    0.0                 !
 ! R4    R(1,7)                  1.0835         -DE/DX =    0.0                 !
 ! R5    R(2,3)                  1.5081         -DE/DX =    0.0                 !
 ! R6    R(2,4)                  1.3211         -DE/DX =    0.0                 !
 ! R7    R(3,8)                  1.0875         -DE/DX =    0.0                 !
 ! R8    R(3,9)                  1.0875         -DE/DX =    0.0                 !
 ! R9    R(3,10)                 1.0835         -DE/DX =    0.0                 !
 ! R10   R(4,11)                 1.0762         -DE/DX =    0.0                 !
 ! R11   R(4,12)                 1.0762         -DE/DX =    0.0                 !
 ! A1    A(2,1,5)              110.7734         -DE/DX =    0.0                 !
 ! A2    A(2,1,6)              110.7759         -DE/DX =    0.0                 !
 ! A3    A(2,1,7)              111.7606         -DE/DX =    0.0                 !
 ! A4    A(5,1,6)              106.8957         -DE/DX =    0.0                 !
 ! A5    A(5,1,7)              108.2294         -DE/DX =    0.0                 !
 ! A6    A(6,1,7)              108.2298         -DE/DX =    0.0                 !
 ! A7    A(1,2,3)              115.4994         -DE/DX =   -0.0001              !
 ! A8    A(1,2,4)              122.2502         -DE/DX =    0.0                 !
 ! A9    A(3,2,4)              122.2504         -DE/DX =    0.0                 !
 ! A10   A(2,3,8)              110.7734         -DE/DX =    0.0                 !
 ! A11   A(2,3,9)              110.7759         -DE/DX =    0.0                 !
 ! A12   A(2,3,10)             111.7606         -DE/DX =    0.0                 !
 ! A13   A(8,3,9)              106.8957         -DE/DX =    0.0                 !
 ! A14   A(8,3,10)             108.2293         -DE/DX =    0.0                 !
 ! A15   A(9,3,10)             108.2298         -DE/DX =    0.0                 !
 ! A16   A(2,4,11)             121.7817         -DE/DX =    0.0                 !
 ! A17   A(2,4,12)             121.7817         -DE/DX =    0.0                 !
 ! A18   A(11,4,12)            116.4366         -DE/DX =    0.0                 !
 ! D1    D(5,1,2,3)            -59.2513         -DE/DX =    0.0                 !
 ! D2    D(5,1,2,4)            120.7504         -DE/DX =    0.0                 !
 ! D3    D(6,1,2,3)             59.1971         -DE/DX =    0.0                 !
 ! D4    D(6,1,2,4)           -120.8012         -DE/DX =    0.0                 !
 ! D5    D(7,1,2,3)            179.9741         -DE/DX =    0.0                 !
 ! D6    D(7,1,2,4)             -0.0243         -DE/DX =    0.0                 !
 ! D7    D(1,2,3,8)            -59.2538         -DE/DX =    0.0                 !
 ! D8    D(1,2,3,9)             59.1947         -DE/DX =    0.0                 !
 ! D9    D(1,2,3,10)           179.9716         -DE/DX =    0.0                 !
 ! D10   D(4,2,3,8)            120.7445         -DE/DX =    0.0                 !
 ! D11   D(4,2,3,9)           -120.807          -DE/DX =    0.0                 !
 ! D12   D(4,2,3,10)            -0.0301         -DE/DX =    0.0                 !
 ! D13   D(1,2,4,11)          -179.9986         -DE/DX =    0.0                 !
 ! D14   D(1,2,4,12)             0.0043         -DE/DX =    0.0                 !
 ! D15   D(3,2,4,11)             0.0032         -DE/DX =    0.0                 !
 ! D16   D(3,2,4,12)          -179.9939         -DE/DX =    0.0                 !
 --------------------------------------------------------------------------------
 GradGradGradGradGradGradGradGradGradGradGradGradGradGradGradGradGradGrad

                          Input orientation:                          
 ---------------------------------------------------------------------
 Center     Atomic      Atomic             Coordinates (Angstroms)
 Number     Number       Type             X           Y           Z
 ---------------------------------------------------------------------
      1          6           0        0.960465    0.993981    1.379060
      2          6           0        2.098472    1.895729    0.971350
      3          6           0        3.473698    1.430815    1.380056
      4          6           0        1.903759    3.017491    0.301273
      5          1           0        1.083728    0.000850    0.953345
      6          1           0        0.931873    0.873402    2.459511
      7          1           0        0.002849    1.384704    1.056153
      8          1           0        3.540725    1.327781    2.460625
      9          1           0        3.692759    0.453956    0.955215
     10          1           0        4.243639    2.121317    1.057012
     11          1           0        2.721521    3.655416    0.014105
     12          1           0        0.918912    3.342159    0.013495
 ---------------------------------------------------------------------
                    Distance matrix (angstroms):
                    1          2          3          4          5
     1  C    0.000000
     2  C    1.508124   0.000000
     3  C    2.550915   1.508122   0.000000
     4  C    2.479117   1.321086   2.479118   0.000000
     5  H    1.087536   2.149557   2.817595   3.193395   0.000000
     6  H    1.087535   2.149588   2.817234   3.193693   1.747268
     7  H    1.083495   2.158697   3.486235   2.617116   1.758954
     8  H    2.817614   2.149558   1.087538   3.193365   3.173243
     9  H    2.817215   2.149586   1.087534   3.193724   2.648084
    10  H    3.486235   2.158696   1.083495   2.617118   3.806858
    11  H    3.470973   2.097857   2.716697   1.076173   4.113440
    12  H    2.716696   2.097858   3.470974   1.076173   3.474885
                    6          7          8          9         10
     6  H    0.000000
     7  H    1.758957   0.000000
     8  H    2.648125   3.806881   0.000000
     9  H    3.171960   3.806824   1.747268   0.000000
    10  H    3.806848   4.304288   1.758954   1.758956   0.000000
    11  H    4.113691   3.692313   3.474830   3.475390   2.399575
    12  H    3.475331   2.399570   4.113401   4.113730   3.692315
                   11         12
    11  H    0.000000
    12  H    1.829625   0.000000
 Stoichiometry    C4H8
 Framework group  C1[X(C4H8)]
 Deg. of freedom    30
 Full point group                 C1      NOp   1
 Largest Abelian subgroup         C1      NOp   1
 Largest concise Abelian subgroup C1      NOp   1
                         Standard orientation:                         
 ---------------------------------------------------------------------
 Center     Atomic      Atomic             Coordinates (Angstroms)
 Number     Number       Type             X           Y           Z
 ---------------------------------------------------------------------
      1          6           0       -1.275456   -0.676845    0.000001
      2          6           0        0.000000    0.127922   -0.000013
      3          6           0        1.275459   -0.676838    0.000003
      4          6           0       -0.000005    1.449007   -0.000005
      5          1           0       -1.324247   -1.322365   -0.873875
      6          1           0       -1.323851   -1.323047    0.873393
      7          1           0       -2.152144   -0.040151    0.000444
      8          1           0        1.324275   -1.322294    0.873926
      9          1           0        1.323837   -1.323103   -0.873341
     10          1           0        2.152145   -0.040141   -0.000507
     11          1           0        0.914806    2.015814   -0.000038
     12          1           0       -0.914819    2.015807    0.000082
 ---------------------------------------------------------------------
 Rotational constants (GHZ):      9.2427099      8.3936113      4.6478063

 **********************************************************************

            Population analysis using the SCF density.

 **********************************************************************

 Orbital symmetries:
       Occupied  (A) (A) (A) (A) (A) (A) (A) (A) (A) (A) (A) (A)
                 (A) (A) (A) (A)
       Virtual   (A) (A) (A) (A) (A) (A) (A) (A) (A) (A) (A) (A)
                 (A) (A) (A) (A) (A) (A) (A) (A) (A) (A) (A) (A)
                 (A) (A) (A) (A) (A) (A) (A) (A) (A) (A) (A) (A)
                 (A) (A) (A) (A) (A) (A) (A) (A) (A) (A) (A) (A)
                 (A) (A) (A) (A) (A) (A) (A) (A) (A) (A) (A) (A)
 The electronic state is 1-A.
 Alpha  occ. eigenvalues --  -11.23399 -11.21601 -11.21598 -11.20502  -1.08732
 Alpha  occ. eigenvalues --   -0.94116  -0.92673  -0.71769  -0.61828  -0.60888
 Alpha  occ. eigenvalues --   -0.58945  -0.53798  -0.52136  -0.51459  -0.47436
 Alpha  occ. eigenvalues --   -0.34515
 Alpha virt. eigenvalues --    0.19388   0.23576   0.28619   0.30299   0.30556
 Alpha virt. eigenvalues --    0.32991   0.33071   0.34459   0.38196   0.39740
 Alpha virt. eigenvalues --    0.48061   0.54648   0.71654   0.73774   0.73971
 Alpha virt. eigenvalues --    0.78223   0.79512   0.84791   0.91503   0.91986
 Alpha virt. eigenvalues --    0.98006   0.98745   1.03811   1.08572   1.13831
 Alpha virt. eigenvalues --    1.14657   1.17191   1.18011   1.21311   1.22716
 Alpha virt. eigenvalues --    1.26206   1.26469   1.39877   1.47304   1.50418
 Alpha virt. eigenvalues --    1.66204   1.70954   1.77455   1.98846   2.13321
 Alpha virt. eigenvalues --    2.15137   2.19983   2.22649   2.29233   2.39012
 Alpha virt. eigenvalues --    2.39532   2.52444   2.57575   2.62326   2.71704
 Alpha virt. eigenvalues --    2.76097   2.77560   2.80557   2.92302   3.23287
 Alpha virt. eigenvalues --    3.31793   4.54272   4.62092   4.71876   4.90821
          Condensed to atoms (all electrons):
               1          2          3          4          5          6
     1  C    5.097962   0.356447  -0.067771  -0.048428   0.388460   0.388473
     2  C    0.356447   4.813175   0.356446   0.687251  -0.040937  -0.040948
     3  C   -0.067771   0.356446   5.097962  -0.048428  -0.001401  -0.001400
     4  C   -0.048428   0.687251  -0.048428   5.063258  -0.000275  -0.000269
     5  H    0.388460  -0.040937  -0.001401  -0.000275   0.544516  -0.034540
     6  H    0.388473  -0.040948  -0.001400  -0.000269  -0.034540   0.544525
     7  H    0.394429  -0.038064   0.003737  -0.002244  -0.024983  -0.024985
     8  H   -0.001400  -0.040937   0.388461  -0.000276  -0.000392   0.002589
     9  H   -0.001401  -0.040948   0.388472  -0.000268   0.002589  -0.000394
    10  H    0.003737  -0.038064   0.394429  -0.002244  -0.000057  -0.000057
    11  H    0.003731  -0.040737  -0.005083   0.395501  -0.000127  -0.000127
    12  H   -0.005083  -0.040737   0.003731   0.395501   0.000124   0.000123
               7          8          9         10         11         12
     1  C    0.394429  -0.001400  -0.001401   0.003737   0.003731  -0.005083
     2  C   -0.038064  -0.040937  -0.040948  -0.038064  -0.040737  -0.040737
     3  C    0.003737   0.388461   0.388472   0.394429  -0.005083   0.003731
     4  C   -0.002244  -0.000276  -0.000268  -0.002244   0.395501   0.395501
     5  H   -0.024983  -0.000392   0.002589  -0.000057  -0.000127   0.000124
     6  H   -0.024985   0.002589  -0.000394  -0.000057  -0.000127   0.000123
     7  H    0.516603  -0.000057  -0.000057  -0.000098   0.000077   0.002454
     8  H   -0.000057   0.544514  -0.034540  -0.024982   0.000124  -0.000127
     9  H   -0.000057  -0.034540   0.544526  -0.024986   0.000123  -0.000127
    10  H   -0.000098  -0.024982  -0.024986   0.516603   0.002454   0.000077
    11  H    0.000077   0.000124   0.000123   0.002454   0.505243  -0.028624
    12  H    0.002454  -0.000127  -0.000127   0.000077  -0.028624   0.505243
 Mulliken charges:
               1
     1  C   -0.509155
     2  C    0.108052
     3  C   -0.509155
     4  C   -0.439080
     5  H    0.167024
     6  H    0.167012
     7  H    0.173188
     8  H    0.167025
     9  H    0.167010
    10  H    0.173188
    11  H    0.167445
    12  H    0.167445
 Sum of Mulliken charges =   0.00000
 Mulliken charges with hydrogens summed into heavy atoms:
               1
     1  C   -0.001931
     2  C    0.108052
     3  C   -0.001931
     4  C   -0.104190
 Electronic spatial extent (au):  <R**2>=            323.2715
 Charge=              0.0000 electrons
 Dipole moment (field-independent basis, Debye):
    X=              0.0000    Y=             -0.4539    Z=              0.0001  Tot=              0.4539
 Quadrupole moment (field-independent basis, Debye-Ang):
   XX=            -25.8087   YY=            -26.1255   ZZ=            -28.1806
   XY=             -0.0000   XZ=             -0.0001   YZ=              0.0001
 Traceless Quadrupole moment (field-independent basis, Debye-Ang):
   XX=              0.8962   YY=              0.5794   ZZ=             -1.4756
   XY=             -0.0000   XZ=             -0.0001   YZ=              0.0001
 Octapole moment (field-independent basis, Debye-Ang**2):
  XXX=             -0.0000  YYY=              1.5125  ZZZ=              0.0002  XYY=              0.0000
  XXY=              2.3083  XXZ=              0.0000  XZZ=              0.0000  YZZ=             -3.2085
  YYZ=              0.0002  XYZ=             -0.0009
 Hexadecapole moment (field-independent basis, Debye-Ang**3):
 XXXX=           -208.4865 YYYY=           -188.4825 ZZZZ=            -42.8254 XXXY=             -0.0000
 XXXZ=             -0.0030 YYYX=              0.0000 YYYZ=              0.0007 ZZZX=              0.0025
 ZZZY=             -0.0000 XXYY=            -64.7034 XXZZ=            -43.2609 YYZZ=            -39.5684
 XXYZ=             -0.0000 YYXZ=             -0.0009 ZZXY=             -0.0000
 N-N= 1.200983583701D+02 E-N=-6.029375711412D+02  KE= 1.560274251105D+02
 1\1\GINC-GTX1080DELTA\FOpt\RHF\6-31G(d)\C4H8\MVEROT\16-Apr-2022\0\\# h
 f/6-31G* opt freq\\Optimisation de geometrie\\0,1\C,0.9604649433,0.993
 9806668,1.3790599134\C,2.098471922,1.8957292964,0.9713504571\C,3.47369
 82815,1.4308145092,1.3800558408\C,1.9037586842,3.0174910478,0.30127263
 39\H,1.0837278633,0.0008499825,0.9533449267\H,0.9318734463,0.873401706
 5,2.4595114896\H,0.0028493608,1.3847036165,1.0561532339\H,3.5407249884
 ,1.3277808446,2.4606251043\H,3.6927587519,0.4539561247,0.9552146666\H,
 4.2436390698,2.1213173162,1.0570116152\H,2.7215205106,3.6554158152,0.0
 141047389\H,0.9189121779,3.3421590735,0.0134953796\\Version=AM64L-G09R
 evD.01\State=1-A\HF=-156.110667\RMSD=4.384e-09\RMSF=2.490e-05\Dipole=0
 .0263195,-0.1516268,0.0906007\Quadrupole=0.6478065,0.0562581,-0.704064
 6,0.1062518,0.1148277,-0.6579071\PG=C01 [X(C4H8)]\\@


 THIS CURIOUS WORLD WHICH WE INHABIT IS MORE WONDERFUL THAN IT IS CONVENIENT;
 MORE BEAUTIFUL THAN IT IS USEFUL;
 IT IS MORE TO BE ADMIRED THAN IT IS TO BE USED.

[...]
    A5        1.88896   0.00000   0.00000  -0.00000  -0.00000   1.88896
    A6        1.88897   0.00000   0.00000  -0.00001  -0.00001   1.88896
    A7        2.01584  -0.00006   0.00000  -0.00026  -0.00026   2.01558
    A8        2.13367   0.00003   0.00000   0.00013   0.00013   2.13380
    A9        2.13367   0.00003   0.00000   0.00013   0.00013   2.13380
   A10        1.93336   0.00001   0.00000   0.00002   0.00002   1.93339
   A11        1.93340   0.00000   0.00000  -0.00002  -0.00002   1.93339
   A12        1.95059  -0.00001   0.00000  -0.00004  -0.00004   1.95055
   A13        1.86568   0.00000   0.00000   0.00005   0.00005   1.86573
   A14        1.88896   0.00000   0.00000  -0.00000  -0.00000   1.88896
   A15        1.88897   0.00000   0.00000  -0.00001  -0.00001   1.88896
   A16        2.12549   0.00001   0.00000   0.00005   0.00005   2.12554
   A17        2.12549   0.00001   0.00000   0.00005   0.00005   2.12554
   A18        2.03220  -0.00001   0.00000  -0.00009  -0.00009   2.03211
    D1       -1.03413  -0.00000   0.00000   0.00044   0.00044  -1.03369
    D2        2.10749  -0.00000   0.00000   0.00041   0.00041   2.10790
    D3        1.03319   0.00000   0.00000   0.00050   0.00050   1.03369
    D4       -2.10838   0.00000   0.00000   0.00048   0.00048  -2.10790
    D5        3.14114   0.00000   0.00000   0.00045   0.00045   3.14159
    D6       -0.00042   0.00000   0.00000   0.00042   0.00042  -0.00000
    D7       -1.03417  -0.00000   0.00000   0.00048   0.00048  -1.03369
    D8        1.03314   0.00000   0.00000   0.00055   0.00055   1.03369
    D9        3.14110   0.00000   0.00000   0.00050   0.00050  -3.14159
   D10        2.10739  -0.00000   0.00000   0.00051   0.00051   2.10790
   D11       -2.10848   0.00000   0.00000   0.00058   0.00058  -2.10790
   D12       -0.00053   0.00000   0.00000   0.00053   0.00053   0.00000
   D13       -3.14157   0.00000   0.00000  -0.00002  -0.00002  -3.14159
   D14        0.00008  -0.00000   0.00000  -0.00008  -0.00008   0.00000
   D15        0.00006   0.00000   0.00000  -0.00006  -0.00006   0.00000
   D16       -3.14149  -0.00000   0.00000  -0.00011  -0.00011  -3.14159
         Item               Value     Threshold  Converged?
 Maximum Force            0.000058     0.000450     YES
 RMS     Force            0.000019     0.000300     YES
 Maximum Displacement     0.001113     0.001800     YES
 RMS     Displacement     0.000361     0.001200     YES
 Predicted change in Energy=-2.968519D-08
 Optimization completed.
    -- Stationary point found.
                           ----------------------------
                           !   Optimized Parameters   !
                           ! (Angstroms and Degrees)  !
 --------------------------                            --------------------------
 ! Name  Definition              Value          Derivative Info.                !
 --------------------------------------------------------------------------------
 ! R1    R(1,2)                  1.5081         -DE/DX =    0.0                 !
 ! R2    R(1,5)                  1.0875         -DE/DX =    0.0                 !
 ! R3    R(1,6)                  1.0875         -DE/DX =    0.0                 !
 ! R4    R(1,7)                  1.0835         -DE/DX =    0.0                 !
 ! R5    R(2,3)                  1.5081         -DE/DX =    0.0                 !
 ! R6    R(2,4)                  1.3211         -DE/DX =    0.0                 !
 ! R7    R(3,8)                  1.0875         -DE/DX =    0.0                 !
 ! R8    R(3,9)                  1.0875         -DE/DX =    0.0                 !
 ! R9    R(3,10)                 1.0835         -DE/DX =    0.0                 !
 ! R10   R(4,11)                 1.0762         -DE/DX =    0.0                 !
 ! R11   R(4,12)                 1.0762         -DE/DX =    0.0                 !
 ! A1    A(2,1,5)              110.7734         -DE/DX =    0.0                 !
 ! A2    A(2,1,6)              110.7759         -DE/DX =    0.0                 !
 ! A3    A(2,1,7)              111.7606         -DE/DX =    0.0                 !
 ! A4    A(5,1,6)              106.8957         -DE/DX =    0.0                 !
 ! A5    A(5,1,7)              108.2294         -DE/DX =    0.0                 !
 ! A6    A(6,1,7)              108.2298         -DE/DX =    0.0                 !
 ! A7    A(1,2,3)              115.4994         -DE/DX =   -0.0001              !
 ! A8    A(1,2,4)              122.2502         -DE/DX =    0.0                 !
 ! A9    A(3,2,4)              122.2504         -DE/DX =    0.0                 !
 ! A10   A(2,3,8)              110.7734         -DE/DX =    0.0                 !
 ! A11   A(2,3,9)              110.7759         -DE/DX =    0.0                 !
 ! A12   A(2,3,10)             111.7606         -DE/DX =    0.0                 !
 ! A13   A(8,3,9)              106.8957         -DE/DX =    0.0                 !
 ! A14   A(8,3,10)             108.2293         -DE/DX =    0.0                 !
 ! A15   A(9,3,10)             108.2298         -DE/DX =    0.0                 !
 ! A16   A(2,4,11)             121.7817         -DE/DX =    0.0                 !
 ! A17   A(2,4,12)             121.7817         -DE/DX =    0.0                 !
 ! A18   A(11,4,12)            116.4366         -DE/DX =    0.0                 !
 ! D1    D(5,1,2,3)            -59.2513         -DE/DX =    0.0                 !
 ! D2    D(5,1,2,4)            120.7504         -DE/DX =    0.0                 !
 ! D3    D(6,1,2,3)             59.1971         -DE/DX =    0.0                 !
 ! D4    D(6,1,2,4)           -120.8012         -DE/DX =    0.0                 !
 ! D5    D(7,1,2,3)            179.9741         -DE/DX =    0.0                 !
 ! D6    D(7,1,2,4)             -0.0243         -DE/DX =    0.0                 !
 ! D7    D(1,2,3,8)            -59.2538         -DE/DX =    0.0                 !
 ! D8    D(1,2,3,9)             59.1947         -DE/DX =    0.0                 !
 ! D9    D(1,2,3,10)          -180.0284         -DE/DX =    0.0                 !
 ! D10   D(4,2,3,8)            120.7445         -DE/DX =    0.0                 !
 ! D11   D(4,2,3,9)           -120.807          -DE/DX =    0.0                 !
 ! D12   D(4,2,3,10)            -0.0301         -DE/DX =    0.0                 !
 ! D13   D(1,2,4,11)          -179.9986         -DE/DX =    0.0                 !
 ! D14   D(1,2,4,12)             0.0043         -DE/DX =    0.0                 !
 ! D15   D(3,2,4,11)             0.0032         -DE/DX =    0.0                 !
 ! D16   D(3,2,4,12)          -179.9939         -DE/DX =    0.0                 !
 --------------------------------------------------------------------------------
 GradGradGradGradGradGradGradGradGradGradGradGradGradGradGradGradGradGrad

 1\1\GINC-GTX1080DELTA\Freq\RHF\6-31G(d)\C4H8\MVEROT\16-Apr-2022\0\\#N 
 Geom=AllCheck Guess=TCheck SCRF=Check GenChk RHF/6-31G(d) Freq\\Optimi
 sation de geometrie\\0,1\C,0.9604649433,0.9939806668,1.3790599134\C,2.
 098471922,1.8957292964,0.9713504571\C,3.4736982815,1.4308145092,1.3800
 558408\C,1.9037586842,3.0174910478,0.3012726339\H,1.0837278633,0.00084
 99825,0.9533449267\H,0.9318734463,0.8734017065,2.4595114896\H,0.002849
 3608,1.3847036165,1.0561532339\H,3.5407249884,1.3277808446,2.460625104
 3\H,3.6927587519,0.4539561247,0.9552146666\H,4.2436390698,2.1213173162
 ,1.0570116152\H,2.7215205106,3.6554158152,0.0141047389\H,0.9189121779,
 3.3421590735,0.0134953796\\Version=AM64L-G09RevD.01\State=1-A\HF=-156.
 110667\RMSD=1.182e-09\RMSF=2.490e-05\ZeroPoint=0.1156639\Thermal=0.120
 7386\Dipole=0.0263196,-0.151627,0.0906008\DipoleDeriv=0.0348924,-0.002
 4295,-0.0173281,-0.0249752,0.1306717,0.0492812,-0.0042741,0.0514485,0.
 1897663,0.2241786,0.0057116,0.033643,0.0057161,0.192868,-0.1928095,0.0
 336547,-0.1928384,-0.0254664,0.0371156,-0.0311769,-0.0004404,-0.008667
 ,0.1285543,0.0521583,-0.0135589,0.0500107,0.1896602,0.0340664,0.047958
 6,0.012798,0.0479678,-0.2334679,-0.0730101,0.0128077,-0.0729741,-0.324
 1711,0.0337873,0.0105449,0.0545497,-0.0055729,-0.1728582,-0.0488803,0.
 0176241,-0.0837924,0.017733,0.0412381,-0.0503961,-0.0052371,-0.0212094
 ,0.0221053,0.0264268,0.0241061,0.0600605,-0.1846353,-0.1445511,0.01337
 81,-0.0287576,0.0786694,0.013277,0.0372166,-0.0666023,0.0306481,0.0393
 525,0.0163132,0.0483388,-0.0039194,0.0191297,0.0470297,0.0265277,-0.04
 28584,0.0482709,-0.1846823,0.0119139,0.0556281,-0.0348784,0.0717706,-0
 .1510459,-0.0642718,0.0116474,-0.0847371,0.0178424,-0.097417,-0.053024
 5,0.014497,-0.1182998,-0.0338368,0.0447394,0.052369,0.0513072,0.039332
 ,-0.0721588,-0.1075953,0.0393973,-0.0688513,0.004709,0.0803078,0.01693
 56,0.0763687,0.1126668,-0.1193783,0.0630622,-0.0643242,0.0243222,0.051
 9939,0.0623139,-0.041851,0.0662275,0.112602\Polar=40.5743851,-1.261939
 7,47.6418731,2.008844,-11.5458312,34.8457081\PolarDeriv=2.5502605,-2.0
 170492,-0.1508159,1.4762275,-1.1115145,0.3889137,-3.8578232,0.2103195,
 7.4040007,-0.7410613,1.0983035,1.0027886,2.4456333,-0.7635002,2.256787
 8,1.136493,3.0250885,-7.0556919,-0.4701063,0.0709713,2.4805393,-0.2036
 479,-0.7681393,0.2475425,1.5804042,2.7428576,-13.1560464,-0.7691666,4.
 0915711,-1.4322461,-1.1620575,-0.4452627,1.3374885,1.0638696,-6.137011
 7,7.5944531,-0.0841396,-1.0139341,-3.3724712,0.8476987,1.0207735,-0.70
 11558,-2.6240668,-4.3330031,5.1570363,0.650157,1.7266538,0.8067657,1.9
 439322,0.6499983,2.7593432,-2.0862525,2.4595169,-7.062594,1.2716906,-1
 .9942529,-3.0739338,1.4180048,0.8121979,-0.0358602,-2.1065672,-3.09216
 58,12.4680552,0.8142516,-3.1317937,0.2278735,1.5914328,0.2014796,0.449
 7358,-1.1087828,6.4017865,-8.3678625,0.0510512,-1.8050018,0.1395863,-1
 .0693536,-0.0448277,0.2134463,-0.0390669,-0.7103991,-9.7007736,0.07087
 51,-1.5034857,-0.7234642,-0.6844537,-0.0847402,-2.0624048,-0.0638065,-
 2.7367523,-0.6390291,-0.7042901,-0.1013627,0.2845892,2.1923249,0.34749
 84,-0.5982013,0.5042817,-0.3288943,-2.0323354,0.3938937,2.2160606,-0.7
 652942,0.5324695,0.6665066,0.8751523,-1.3964214,-2.3006856,9.306311,-7
 .7639391,0.8222009,-0.0944016,-1.0400531,0.0220711,-0.3309088,1.495444
 6,-1.5451926,0.7037112,-0.0567908,-0.7837486,0.1488131,-1.2568478,-0.1
 33828,-0.5860923,-2.004689,0.2464173,-0.3429955,0.6128256,-0.1335613,0
 .2942363,2.4295194,-0.2696332,0.8192331,0.2286293,1.0752711,-1.5222513
 ,-0.3161684,1.9780933,-0.5150907,0.9929067,-0.6226775,0.4123526,2.0884
 898,-1.6910076,9.3120143,1.5583096,-2.5065182,1.5490183,-1.1086973,0.1
 846286,0.0420841,-1.1302101,2.9441273,-8.1066092,0.0685802,-1.457913,-
 0.7510499,-0.8945164,0.5014403,-1.8486214,0.9818342,-2.5525906,-0.6339
 713,5.8554777,2.401973,0.802626,-1.022408,-0.1072171,0.2608961,2.54656
 1,2.3954269,2.1710427,-0.0279416,-0.8018142,0.2526385,-1.2664267,-0.10
 97994,-0.5769793,1.8038901,0.9082617,-0.342803,3.3950599,3.2718828,2.4
 462218,-1.7176847,-0.9948768,0.6767475,1.7940578,2.4293148,4.3802793,-
 0.4382018,-1.9565022,1.0180058,-0.97338,-0.3410077,-1.6552546,1.464872
 8,1.4787155,-0.8825203,-6.2722001,3.0046524,-1.3051948,-2.2019306,0.90
 90391,-0.9827372,1.6083558,-1.7876623,2.2338905,0.351573,-1.4754249,0.
 7302599,-1.2686925,0.481391,-1.3615078,-1.8794971,0.8982612,-0.8853107
 \HyperPolar=-16.6869318,29.2461503,18.3748623,-38.8610586,-20.274734,1
 .6860305,-29.6341784,2.2534295,-13.0913779,63.4743823\PG=C01 [X(C4H8)]
 \NImag=0\\0.62176157,-0.04556710,0.60480653,0.02777994,-0.00269885,0.6
 1248987,-0.19046096,-0.06210221,0.02600105,0.60236215,-0.06663130,-0.1
 5041773,0.02740657,-0.03423279,0.79413267,0.02862394,0.02786310,-0.104
 78972,0.05804798,-0.33357865,0.42403705,-0.02839293,0.00686310,-0.0073
 7390,-0.22674124,0.03924744,-0.03643551,0.59093129,-0.02106220,0.01123
 879,-0.00563418,0.03472108,-0.11409392,0.01659475,0.04056747,0.6356880
 7,0.00881831,-0.00281276,0.00771486,-0.03380819,0.01705247,-0.10483518
 ,-0.02528564,-0.01188219,0.61244016,0.00793336,-0.02755553,0.01582956,
 -0.14605310,0.06166205,-0.04381064,-0.00404098,0.03284649,-0.02040284,
 0.73499498,-0.00060563,-0.01884437,0.01630029,0.06166281,-0.49066772,0
 .25226821,0.00589683,-0.00685189,0.01000537,-0.00631789,0.77100153,0.0
 0020462,0.01357267,0.00152761,-0.04380890,0.25226590,-0.21701379,-0.00
 477758,0.01273389,0.00150960,0.06455198,-0.37070845,0.35416514,-0.0651
 8274,0.03078678,0.01200103,0.00609021,-0.02793012,-0.01330529,0.001210
 98,0.00008516,-0.00004577,-0.00339413,-0.00108488,0.00094485,0.0635406
 8,0.03149445,-0.28823543,-0.10279240,0.00341554,-0.02220075,-0.0063306
 3,0.00109705,0.00024119,0.00019668,-0.00380217,-0.00022326,0.00005630,
 -0.03233892,0.31486404,0.01235054,-0.10173814,-0.10000982,-0.00164512,
 0.01358006,0.00570182,-0.00041262,-0.00042287,-0.00014827,0.00133857,0
 .00084462,-0.00027742,-0.01666872,0.11196738,0.10464473,-0.06139148,0.
 00024947,0.00549867,0.00166249,-0.00218721,0.03071917,0.00120420,0.000
 17227,0.00017203,-0.00337277,-0.00155547,-0.00012677,-0.00027257,-0.00
 030968,0.00515375,0.05882391,0.00013289,-0.05788783,0.02928062,0.00002
 953,-0.00437830,0.02677013,0.00107175,0.00014575,-0.00037907,-0.003332
 17,-0.00106094,0.00013258,0.00036998,0.00534508,-0.03633653,0.00338315
 ,0.06019143,0.00481159,0.02816889,-0.33415955,-0.00038758,0.00347507,-
 0.00768838,-0.00056978,0.00004390,-0.00004120,0.00208460,-0.00020269,0
 .00053307,-0.00008036,0.00048110,-0.01496491,-0.00633614,-0.03270059,0
 .36404197,-0.28309964,0.09240987,-0.07610811,-0.02406174,0.01371723,-0
 .01024273,-0.00246864,-0.00522414,0.00268512,0.00153561,0.00150788,-0.
 00067091,-0.00212115,0.00159234,-0.00013490,0.00296711,-0.00132000,-0.
 00036303,0.30646346,0.09677884,-0.09980227,0.03328564,-0.02148938,0.01
 025886,-0.00887882,-0.00295758,-0.00298515,0.00198297,-0.00043792,0.00
 061114,-0.00068150,0.02975231,-0.01084766,0.01219524,0.00181632,-0.001
 57627,0.00062948,-0.10224975,0.10348679,-0.07863921,0.03284524,-0.0861
 5200,0.01015420,-0.00533044,0.00278652,0.00136790,0.00175169,0.0000734
 2,0.00045845,-0.00048398,-0.00016052,0.01507902,-0.00479099,0.00554964
 ,-0.03370741,0.01446028,-0.00880908,0.08464347,-0.03871132,0.08542271,
 0.00147679,0.00030721,-0.00003325,0.00030636,0.00383123,-0.03794594,-0
 .06085235,-0.00134179,-0.01491462,-0.00465569,0.00026446,0.00007250,-0
 .00003114,0.00000323,0.00006419,-0.00066189,-0.00039048,0.00060728,0.0
 0040566,0.00026338,0.00037801,0.06110669,-0.00059248,-0.00013056,-0.00
 041661,0.00163818,-0.00299538,0.01484266,-0.00122672,-0.05836514,0.025
 49432,0.00204069,0.00022784,0.00016774,-0.00000526,0.00009037,-0.00019
 059,0.00000153,0.00041984,-0.00020895,-0.00002495,-0.00015227,-0.00006
 487,-0.00302097,0.05784329,0.00052091,0.00023543,-0.00004252,-0.000808
 24,0.00340180,-0.00771974,-0.01388589,0.02467910,-0.33420756,-0.001896
 67,-0.00089398,0.00053359,0.00004090,-0.00002711,-0.00004191,-0.000501
 48,-0.00040279,0.00070069,-0.00012558,0.00002861,0.00047307,0.01684009
 ,-0.02841101,0.36409642,0.00147742,0.00035624,-0.00002048,-0.00491096,
 0.03412781,0.01463209,-0.07080158,0.04716905,0.02333993,-0.00458866,-0
 .00047716,-0.00091231,-0.00064901,-0.00085690,-0.00009109,-0.00001890,
 -0.00003381,-0.00002818,0.00046096,-0.00021787,-0.00037081,0.00038159,
 -0.00212825,-0.00007703,0.07161169,-0.00065646,-0.00002235,0.00019840,
 0.00277199,-0.01119278,-0.00146212,0.04646832,-0.28280723,-0.10065247,
 0.00224011,0.00096639,-0.00026532,0.00031753,0.00085928,-0.00007533,-0
 .00004097,0.00007688,-0.00003935,0.00006098,0.00032330,0.00028491,-0.0
 0146119,0.00465940,0.00046391,-0.05487287,0.30699796,0.00053231,-0.000
 25740,-0.00014612,-0.00303618,0.01336644,0.00569951,0.02265791,-0.0997
 7863,-0.09983261,-0.00154910,0.00034334,-0.00027889,0.00010978,-0.0000
 4185,0.00024846,0.00000428,-0.00020167,-0.00004290,0.00013723,0.000191
 45,-0.00005750,0.00740984,-0.03596268,-0.01493338,-0.02203786,0.110847
 28,0.10445045,-0.00512243,0.00445760,-0.00319718,-0.02262792,-0.025485
 76,0.01263788,-0.20226275,-0.12906624,0.06047122,0.00177000,-0.0010933
 2,0.00086048,0.00039457,-0.00003563,-0.00019360,0.00041875,0.00022963,
 0.00010838,-0.00169941,-0.00130581,0.00052695,0.00259402,0.00280549,0.
 00013341,0.00684583,0.00474425,-0.00398869,0.21853258,0.00218815,-0.00
 032625,0.00096219,0.00970377,0.00881424,-0.00490604,-0.13343298,-0.180
 61848,0.05700328,0.00085384,0.00037604,-0.00041458,0.00024419,0.000388
 58,0.00013441,-0.00005868,-0.00016500,0.00006916,0.00045567,0.00067145
 ,-0.00001173,-0.00029744,-0.00119725,0.00070905,-0.02343333,-0.0198036
 8,0.01153447,0.14341423,0.19138719,-0.00188480,0.00119259,0.00006834,-
 0.00778794,-0.00845827,0.00279736,0.06300604,0.05744430,-0.08617282,-0
 .00026652,-0.00061178,-0.00015977,0.00025388,0.00039298,-0.00005666,-0
 .00033303,-0.00018910,0.00047298,-0.00049430,-0.00019068,0.00063148,0.
 02686344,0.02497535,-0.00881607,-0.01256167,-0.00957261,0.00553966,-0.
 06667543,-0.06499394,0.08545335,0.00054025,0.00052927,-0.00180216,0.00
 683947,0.00478980,-0.00264501,0.00069358,0.00148561,0.00016123,-0.2510
 5211,-0.14125400,0.06079633,0.00008071,-0.00031631,0.00023357,0.000407
 75,0.00004559,0.00006648,0.00054161,0.00016736,-0.00002393,0.00028131,
 0.00002076,0.00004908,0.00011668,0.00014901,-0.00014731,0.00057743,0.0
 0043154,-0.00023662,0.25889214,0.00238574,0.00101307,0.00854599,-0.026
 73353,-0.01325831,0.00819269,-0.00138578,-0.00162466,-0.00465707,-0.13
 491726,-0.16682428,0.05851699,0.00025908,0.00017496,-0.00037746,-0.001
 62421,-0.00184981,0.00067049,0.00003609,0.00030493,-0.00027957,-0.0003
 1765,0.00069136,-0.00039359,0.00066060,-0.00023872,0.00039257,0.001273
 89,0.00020648,0.00026644,0.15206635,0.17191988,-0.00287741,0.00835641,
 0.01019945,0.01563222,0.01137946,0.00051888,0.00182425,-0.00436900,-0.
 00670009,0.05712116,0.05787617,-0.07014459,0.00208512,0.00198003,-0.00
 138399,-0.00115007,-0.00157444,0.00031313,0.00005148,-0.00026633,-0.00
 002434,-0.00095637,0.00086983,-0.00035739,0.00075747,-0.00088704,0.000
 73902,-0.00072389,0.00018240,0.00026599,-0.06484941,-0.06789636,0.0611
 0027,0.00046079,-0.00073470,0.00142482,-0.00240479,-0.00090839,-0.0002
 7595,0.00152042,-0.00035278,-0.00119077,-0.32907653,0.08305638,-0.0771
 3428,0.00033359,0.00005699,0.00000542,0.00023339,-0.00018604,0.0000867
 3,0.00107616,-0.00011988,0.00013336,-0.00035134,0.00049198,-0.00028949
 ,0.00007495,0.00027930,-0.00009221,0.00057933,-0.00006896,0.00011694,-
 0.01791881,0.00829669,-0.00691454,0.34547285,0.00213511,-0.00139161,-0
 .00443766,0.03061500,-0.00400089,0.00862471,-0.00220891,0.00003267,0.0
 0864846,0.07671976,-0.08871047,0.03462378,-0.00045583,-0.00045641,0.00
 041921,0.00015348,0.00073916,-0.00038652,-0.00096122,-0.00029285,0.000
 33079,0.00216002,-0.00109151,0.00061058,-0.00029350,0.00018156,-0.0004
 3332,0.00006168,0.00026669,-0.00025527,-0.01811500,0.00948510,-0.00565
 113,-0.08981058,0.08523856,-0.00024074,-0.00472717,-0.00670040,-0.0185
 5329,0.00543960,0.00050567,-0.00011517,0.00883924,0.01019970,-0.073458
 57,0.03526288,-0.07023403,-0.00041444,-0.00109150,0.00073834,0.0006070
 0,0.00114057,-0.00035581,0.00062226,0.00041526,0.00026659,0.00161482,-
 0.00109518,0.00031480,-0.00263007,0.00115973,-0.00138570,0.00004048,-0
 .00026867,-0.00002383,0.00839774,-0.00298111,0.00547367,0.08412997,-0.
 04209364,0.06120100\\0.00001184,0.00004391,-0.00002302,0.00001298,-0.0
 0006969,0.00003887,-0.00002665,0.00003711,-0.00002391,0.00000131,-0.00
 000904,0.00000199,0.00000668,-0.00002481,-0.00001052,0.00000265,-0.000
 00571,0.00002742,-0.00004296,0.00001248,-0.00001065,-0.00000108,-0.000
 00360,0.00002832,0.00000237,-0.00002615,-0.00000780,0.00003637,0.00002
 521,-0.00001207,0.00003538,0.00001632,-0.00000474,-0.00003889,0.000003
 98,-0.00000390\\\@


 BE CAREFUL NOT TO BECOME TOO GOOD OF A SONGBIRD OR 
 THEY'LL THROW YOU INTO A CAGE.

                                    -- SNOOPY TO WOODSTOCK
 Job cpu time:       0 days  0 hours  0 minutes  6.8 seconds.
 File lengths (MBytes):  RWF=    132 Int=      0 D2E=      0 Chk=      3 Scr=      2
 Normal termination of Gaussian 09 at Sat Apr 16 11:54:11 2022.
