 Entering Gaussian System, Link 0=g09
 Input=/scratch/mverot/1-4-butanediol-open-opt/1-4-butanediol-open-opt.com
 Output=/scratch/mverot/1-4-butanediol-open-opt/1-4-butanediol-open-opt.log
 Initial command:
 /opt/g09/l1.exe "/scratch/mverot/1-4-butanediol-open-opt/Gau-1477363.inp" -scrdir="/scratch/mverot/1-4-butanediol-open-opt/"
 Entering Link 1 = /opt/g09/l1.exe PID=   1477366.
  
 Copyright (c) 1988,1990,1992,1993,1995,1998,2003,2009,2013,
            Gaussian, Inc.  All Rights Reserved.
  
 This is part of the Gaussian(R) 09 program.  It is based on
 the Gaussian(R) 03 system (copyright 2003, Gaussian, Inc.),
 the Gaussian(R) 98 system (copyright 1998, Gaussian, Inc.),
 the Gaussian(R) 94 system (copyright 1995, Gaussian, Inc.),
 the Gaussian 92(TM) system (copyright 1992, Gaussian, Inc.),
 the Gaussian 90(TM) system (copyright 1990, Gaussian, Inc.),
 the Gaussian 88(TM) system (copyright 1988, Gaussian, Inc.),
 the Gaussian 86(TM) system (copyright 1986, Carnegie Mellon
 University), and the Gaussian 82(TM) system (copyright 1983,
 Carnegie Mellon University). Gaussian is a federally registered
 trademark of Gaussian, Inc.
  
 This software contains proprietary and confidential information,
 including trade secrets, belonging to Gaussian, Inc.
  
 This software is provided under written license and may be
 used, copied, transmitted, or stored only in accord with that
 written license.
  
 The following legend is applicable only to US Government
 contracts under FAR:
  
                    RESTRICTED RIGHTS LEGEND
  
 Use, reproduction and disclosure by the US Government is
 subject to restrictions as set forth in subparagraphs (a)
 and (c) of the Commercial Computer Software - Restricted
 Rights clause in FAR 52.227-19.
  
 Gaussian, Inc.
 340 Quinnipiac St., Bldg. 40, Wallingford CT 06492
  
  
 ---------------------------------------------------------------
 Warning -- This program may not be used in any manner that
 competes with the business of Gaussian, Inc. or will provide
 assistance to any competitor of Gaussian, Inc.  The licensee
 of this program is prohibited from giving any competitor of
 Gaussian, Inc. access to this program.  By using this program,
 the user acknowledges that Gaussian, Inc. is engaged in the
 business of creating and licensing software in the field of
 computational chemistry and represents and warrants to the
 licensee that it is not a competitor of Gaussian, Inc. and that
 it will not use this program in any manner prohibited above.
 ---------------------------------------------------------------
  

 Cite this work as:
 Gaussian 09, Revision D.01,
 M. J. Frisch, G. W. Trucks, H. B. Schlegel, G. E. Scuseria, 
 M. A. Robb, J. R. Cheeseman, G. Scalmani, V. Barone, B. Mennucci, 
 G. A. Petersson, H. Nakatsuji, M. Caricato, X. Li, H. P. Hratchian, 
 A. F. Izmaylov, J. Bloino, G. Zheng, J. L. Sonnenberg, M. Hada, 
 M. Ehara, K. Toyota, R. Fukuda, J. Hasegawa, M. Ishida, T. Nakajima, 
 Y. Honda, O. Kitao, H. Nakai, T. Vreven, J. A. Montgomery, Jr., 
 J. E. Peralta, F. Ogliaro, M. Bearpark, J. J. Heyd, E. Brothers, 
 K. N. Kudin, V. N. Staroverov, T. Keith, R. Kobayashi, J. Normand, 
 K. Raghavachari, A. Rendell, J. C. Burant, S. S. Iyengar, J. Tomasi, 
 M. Cossi, N. Rega, J. M. Millam, M. Klene, J. E. Knox, J. B. Cross, 
 V. Bakken, C. Adamo, J. Jaramillo, R. Gomperts, R. E. Stratmann, 
 O. Yazyev, A. J. Austin, R. Cammi, C. Pomelli, J. W. Ochterski, 
 R. L. Martin, K. Morokuma, V. G. Zakrzewski, G. A. Voth, 
 P. Salvador, J. J. Dannenberg, S. Dapprich, A. D. Daniels, 
 O. Farkas, J. B. Foresman, J. V. Ortiz, J. Cioslowski, 
 and D. J. Fox, Gaussian, Inc., Wallingford CT, 2013.
 
 ******************************************
 Gaussian 09:  AM64L-G09RevD.01 24-Apr-2013
                17-Apr-2022 
 ******************************************
 %chk=1-4-butanediol-open-opt
 ----------
 #n PM6 Opt
 ----------
 1/14=-1,18=20,19=15,26=1,38=1/1,3;
 2/9=110,12=2,17=6,18=5,40=1/2;
 3/5=2,16=1,25=1,41=3900000,71=1/1,2,3;
 4/35=1/1;
 5/5=2,35=1,38=5/2;
 6/7=2,8=2,9=2,10=2,28=1/1;
 7//1,2,3,16;
 1/14=-1,18=20,19=15,26=1/3(2);
 2/9=110/2;
 99//99;
 2/9=110/2;
 3/5=2,16=1,25=1,41=3900000,71=1,135=20/1,2,3;
 4/5=5,16=3,35=1/1;
 5/5=2,35=1,38=5/2;
 7//1,2,3,16;
 1/14=-1,18=20,19=15,26=1/3(-5);
 2/9=110/2;
 6/7=2,8=2,9=2,10=2,19=2,28=1/1;
 99/9=1/99;
 -------------------------
 Optimisation de geometrie
 -------------------------
 Symbolic Z-matrix:
 Charge =  0 Multiplicity = 1
 C                     1.86044   1.2563    1.75226 
 C                     1.19501   1.01015   3.10498 
 O                     0.61456  -0.28906   3.15807 
 C                     3.17259   0.4746    1.58556 
 C                     4.40977   1.31124   1.90304 
 O                     4.94461   1.81958   0.68742 
 H                     2.0354    2.33026   1.61933 
 H                     1.16754   0.93821   0.96397 
 H                     0.38356   1.72792   3.25625 
 H                     1.90135   1.11531   3.93431 
 H                     1.31089  -0.94627   3.01125 
 H                     3.23222   0.11378   0.55156 
 H                     3.1716   -0.40732   2.2338 
 H                     5.17359   0.68166   2.37058 
 H                     4.19425   2.15114   2.57076 
 H                     5.8891    1.9983    0.83809 
 

 GradGradGradGradGradGradGradGradGradGradGradGradGradGradGradGradGradGrad
 Berny optimization.
 Initialization pass.
                           ----------------------------
                           !    Initial Parameters    !
                           ! (Angstroms and Degrees)  !
 --------------------------                            --------------------------
 ! Name  Definition              Value          Derivative Info.                !
 --------------------------------------------------------------------------------
 ! R1    R(1,2)                  1.5275         estimate D2E/DX2                !
 ! R2    R(1,4)                  1.5364         estimate D2E/DX2                !
 ! R3    R(1,7)                  1.0962         estimate D2E/DX2                !
 ! R4    R(1,8)                  1.0967         estimate D2E/DX2                !
 ! R5    R(2,3)                  1.424          estimate D2E/DX2                !
 ! R6    R(2,9)                  1.0939         estimate D2E/DX2                !
 ! R7    R(2,10)                 1.0944         estimate D2E/DX2                !
 ! R8    R(3,11)                 0.9687         estimate D2E/DX2                !
 ! R9    R(4,5)                  1.5269         estimate D2E/DX2                !
 ! R10   R(4,12)                 1.0968         estimate D2E/DX2                !
 ! R11   R(4,13)                 1.0945         estimate D2E/DX2                !
 ! R12   R(5,6)                  1.422          estimate D2E/DX2                !
 ! R13   R(5,14)                 1.0947         estimate D2E/DX2                !
 ! R14   R(5,15)                 1.0944         estimate D2E/DX2                !
 ! R15   R(6,16)                 0.973          estimate D2E/DX2                !
 ! A1    A(2,1,4)              112.7147         estimate D2E/DX2                !
 ! A2    A(2,1,7)              109.56           estimate D2E/DX2                !
 ! A3    A(2,1,8)              108.3351         estimate D2E/DX2                !
 ! A4    A(4,1,7)              110.4256         estimate D2E/DX2                !
 ! A5    A(4,1,8)              108.3025         estimate D2E/DX2                !
 ! A6    A(7,1,8)              107.3279         estimate D2E/DX2                !
 ! A7    A(1,2,3)              110.9542         estimate D2E/DX2                !
 ! A8    A(1,2,9)              109.8702         estimate D2E/DX2                !
 ! A9    A(1,2,10)             111.9892         estimate D2E/DX2                !
 ! A10   A(3,2,9)              106.9266         estimate D2E/DX2                !
 ! A11   A(3,2,10)             108.8141         estimate D2E/DX2                !
 ! A12   A(9,2,10)             108.1152         estimate D2E/DX2                !
 ! A13   A(2,3,11)             108.6836         estimate D2E/DX2                !
 ! A14   A(1,4,5)              112.995          estimate D2E/DX2                !
 ! A15   A(1,4,12)             108.4274         estimate D2E/DX2                !
 ! A16   A(1,4,13)             110.1769         estimate D2E/DX2                !
 ! A17   A(5,4,12)             109.4046         estimate D2E/DX2                !
 ! A18   A(5,4,13)             108.6079         estimate D2E/DX2                !
 ! A19   A(12,4,13)            107.0573         estimate D2E/DX2                !
 ! A20   A(4,5,6)              108.8369         estimate D2E/DX2                !
 ! A21   A(4,5,14)             109.8178         estimate D2E/DX2                !
 ! A22   A(4,5,15)             112.8183         estimate D2E/DX2                !
 ! A23   A(6,5,14)             107.9543         estimate D2E/DX2                !
 ! A24   A(6,5,15)             108.7404         estimate D2E/DX2                !
 ! A25   A(14,5,15)            108.5538         estimate D2E/DX2                !
 ! A26   A(5,6,16)             107.3602         estimate D2E/DX2                !
 ! D1    D(4,1,2,3)            -73.1206         estimate D2E/DX2                !
 ! D2    D(4,1,2,9)            168.8516         estimate D2E/DX2                !
 ! D3    D(4,1,2,10)            48.6869         estimate D2E/DX2                !
 ! D4    D(7,1,2,3)            163.4962         estimate D2E/DX2                !
 ! D5    D(7,1,2,9)             45.4684         estimate D2E/DX2                !
 ! D6    D(7,1,2,10)           -74.6963         estimate D2E/DX2                !
 ! D7    D(8,1,2,3)             46.7057         estimate D2E/DX2                !
 ! D8    D(8,1,2,9)            -71.3222         estimate D2E/DX2                !
 ! D9    D(8,1,2,10)           168.5132         estimate D2E/DX2                !
 ! D10   D(2,1,4,5)            -97.1911         estimate D2E/DX2                !
 ! D11   D(2,1,4,12)           141.3546         estimate D2E/DX2                !
 ! D12   D(2,1,4,13)            24.4934         estimate D2E/DX2                !
 ! D13   D(7,1,4,5)             25.7098         estimate D2E/DX2                !
 ! D14   D(7,1,4,12)           -95.7445         estimate D2E/DX2                !
 ! D15   D(7,1,4,13)           147.3942         estimate D2E/DX2                !
 ! D16   D(8,1,4,5)            142.9638         estimate D2E/DX2                !
 ! D17   D(8,1,4,12)            21.5095         estimate D2E/DX2                !
 ! D18   D(8,1,4,13)           -95.3517         estimate D2E/DX2                !
 ! D19   D(1,2,3,11)            59.2282         estimate D2E/DX2                !
 ! D20   D(9,2,3,11)           179.0289         estimate D2E/DX2                !
 ! D21   D(10,2,3,11)          -64.4171         estimate D2E/DX2                !
 ! D22   D(1,4,5,6)            -96.985          estimate D2E/DX2                !
 ! D23   D(1,4,5,14)           145.0361         estimate D2E/DX2                !
 ! D24   D(1,4,5,15)            23.8            estimate D2E/DX2                !
 ! D25   D(12,4,5,6)            23.9158         estimate D2E/DX2                !
 ! D26   D(12,4,5,14)          -94.0631         estimate D2E/DX2                !
 ! D27   D(12,4,5,15)          144.7008         estimate D2E/DX2                !
 ! D28   D(13,4,5,6)           140.4509         estimate D2E/DX2                !
 ! D29   D(13,4,5,14)           22.472          estimate D2E/DX2                !
 ! D30   D(13,4,5,15)          -98.7641         estimate D2E/DX2                !
 ! D31   D(4,5,6,16)          -155.6603         estimate D2E/DX2                !
 ! D32   D(14,5,6,16)          -36.5104         estimate D2E/DX2                !
 ! D33   D(15,5,6,16)           81.0799         estimate D2E/DX2                !
 --------------------------------------------------------------------------------
 Trust Radius=3.00D-01 FncErr=1.00D-07 GrdErr=1.00D-07
 Number of steps in this run=     84 maximum allowed number of steps=    100.
 GradGradGradGradGradGradGradGradGradGradGradGradGradGradGradGradGradGrad

                          Input orientation:                          
 ---------------------------------------------------------------------
 Center     Atomic      Atomic             Coordinates (Angstroms)
 Number     Number       Type             X           Y           Z
 ---------------------------------------------------------------------
      1          6           0        1.860440    1.256300    1.752260
      2          6           0        1.195010    1.010150    3.104980
      3          8           0        0.614560   -0.289060    3.158070
      4          6           0        3.172590    0.474600    1.585560
      5          6           0        4.409770    1.311240    1.903040
      6          8           0        4.944610    1.819580    0.687420
      7          1           0        2.035400    2.330260    1.619330
      8          1           0        1.167540    0.938210    0.963970
      9          1           0        0.383560    1.727920    3.256250
     10          1           0        1.901350    1.115310    3.934310
     11          1           0        1.310890   -0.946270    3.011250
     12          1           0        3.232220    0.113780    0.551560
     13          1           0        3.171600   -0.407320    2.233800
     14          1           0        5.173590    0.681660    2.370580
     15          1           0        4.194250    2.151140    2.570760
     16          1           0        5.889100    1.998300    0.838090
 ---------------------------------------------------------------------
                    Distance matrix (angstroms):
                    1          2          3          4          5
     1  C    0.000000
     2  C    1.527494   0.000000
     3  O    2.432418   1.423969   0.000000
     4  C    1.536418   2.550740   3.098303   0.000000
     5  C    2.554376   3.445286   4.305773   1.526884   0.000000
     6  O    3.311083   4.534234   5.412930   2.399100   1.422039
     7  H    1.096208   2.157800   3.353706   2.176652   2.599332
     8  H    1.096674   2.142394   2.574112   2.149775   3.396036
     9  H    2.159997   1.093859   2.032537   3.484351   4.267923
    10  H    2.186983   1.094424   2.056850   2.746486   3.233669
    11  H    2.595838   1.962089   0.968688   2.741786   3.990932
    12  H    2.151468   3.387279   3.715955   1.096769   2.155698
    13  H    2.172246   2.583618   2.721528   1.094531   2.143809
    14  H    3.418990   4.059107   4.727282   2.159428   1.094708
    15  H    2.630086   3.253105   4.371921   2.196633   1.094409
    16  H    4.197186   5.305630   6.199604   3.203092   1.947970
                    6          7          8          9         10
     6  O    0.000000
     7  H    3.097217   0.000000
     8  H    3.888387   1.766488   0.000000
     9  H    5.235501   2.402269   2.548100   0.000000
    10  H    4.505521   2.617863   3.064761   1.771650   0.000000
    11  H    5.123869   3.632906   2.786246   2.840996   2.334694
    12  H    2.420845   2.735927   2.261121   4.246841   3.770580
    13  H    3.239435   3.027023   2.727485   3.657570   2.612216
    14  H    2.044583   3.623602   4.253564   4.982315   3.652514
    15  H    2.054250   2.365996   3.635099   3.894916   2.861748
    16  H    0.972987   3.946079   4.840740   6.019267   5.125271
                   11         12         13         14         15
    11  H    0.000000
    12  H    3.296254   0.000000
    13  H    2.087376   1.762144   0.000000
    14  H    4.240409   2.720338   2.283101   0.000000
    15  H    4.254615   3.025476   2.775801   1.777231   0.000000
    16  H    5.861154   3.269943   3.888421   2.143367   2.428584
                   16
    16  H    0.000000
 Stoichiometry    C4H10O2
 Framework group  C1[X(C4H10O2)]
 Deg. of freedom    42
 Full point group                 C1      NOp   1
 Largest Abelian subgroup         C1      NOp   1
 Largest concise Abelian subgroup C1      NOp   1
                         Standard orientation:                         
 ---------------------------------------------------------------------
 Center     Atomic      Atomic             Coordinates (Angstroms)
 Number     Number       Type             X           Y           Z
 ---------------------------------------------------------------------
      1          6           0       -0.539818    0.674504   -0.461990
      2          6           0       -1.748685    0.491729    0.453692
      3          8           0       -2.640163   -0.487805   -0.069248
      4          6           0        0.441218   -0.505865   -0.392125
      5          6           0        1.614012   -0.251647    0.551961
      6          8           0        2.727196    0.198891   -0.209638
      7          1           0       -0.028960    1.611811   -0.212690
      8          1           0       -0.899233    0.762958   -1.494312
      9          1           0       -2.309072    1.428719    0.521112
     10          1           0       -1.455128    0.197198    1.466036
     11          1           0       -2.163872   -1.327021   -0.154221
     12          1           0        0.822006   -0.700429   -1.402099
     13          1           0       -0.080078   -1.411204   -0.065613
     14          1           0        1.900001   -1.184592    1.048157
     15          1           0        1.387240    0.495379    1.318941
     16          1           0        3.530465   -0.013833    0.296537
 ---------------------------------------------------------------------
 Rotational constants (GHZ):     10.3552615      1.4151203      1.3884146
 Standard basis: VSTO-6G (5D, 7F)
 There are    34 symmetry adapted cartesian basis functions of A   symmetry.
 There are    34 symmetry adapted basis functions of A   symmetry.
    34 basis functions,   204 primitive gaussians,    34 cartesian basis functions
    19 alpha electrons       19 beta electrons
       nuclear repulsion energy       172.6217694042 Hartrees.
 Integral buffers will be    131072 words long.
 Regular integral format.
 Two-electron integral symmetry is turned off.
 Do NDO integrals.
 One-electron integrals computed using PRISM.
 NBasis=    34 RedAO= F EigKep=  0.00D+00  NBF=    34
 NBsUse=    34 1.00D-04 EigRej=  0.00D+00 NBFU=    34
 Simple Huckel Guess.
 Overlap will be assumed to be unity.
 Keep J ints in memory in canonical form, NReq=895124.
 Requested convergence on RMS density matrix=1.00D-08 within 128 cycles.
 Requested convergence on MAX density matrix=1.00D-06.
 Requested convergence on             energy=1.00D-06.
 No special actions if energy rises.
 SCF Done:  E(RPM6) = -0.162442672376     A.U. after   14 cycles
            NFock= 13  Conv=0.29D-08     -V/T= 0.9926

 **********************************************************************

            Population analysis using the SCF density.

 **********************************************************************

 Orbital symmetries:
       Occupied  (A) (A) (A) (A) (A) (A) (A) (A) (A) (A) (A) (A)
                 (A) (A) (A) (A) (A) (A) (A)
       Virtual   (A) (A) (A) (A) (A) (A) (A) (A) (A) (A) (A) (A)
                 (A) (A) (A)
 The electronic state is 1-A.
 Alpha  occ. eigenvalues --   -1.12425  -1.10841  -1.02754  -0.93676  -0.83972
 Alpha  occ. eigenvalues --   -0.75475  -0.68494  -0.65580  -0.60011  -0.58547
 Alpha  occ. eigenvalues --   -0.55011  -0.53573  -0.50125  -0.48497  -0.46562
 Alpha  occ. eigenvalues --   -0.44519  -0.42950  -0.38907  -0.38693
 Alpha virt. eigenvalues --    0.09618   0.10237   0.12777   0.13869   0.14225
 Alpha virt. eigenvalues --    0.18464   0.18806   0.19692   0.19717   0.20218
 Alpha virt. eigenvalues --    0.20553   0.21042   0.21782   0.23033   0.23368
          Condensed to atoms (all electrons):
               1          2          3          4          5          6
     1  C    4.330985   0.000000   0.000000   0.000000   0.000000   0.000000
     2  C    0.000000   3.995235   0.000000   0.000000   0.000000   0.000000
     3  O    0.000000   0.000000   6.540811   0.000000   0.000000   0.000000
     4  C    0.000000   0.000000   0.000000   4.278105   0.000000   0.000000
     5  C    0.000000   0.000000   0.000000   0.000000   3.998584   0.000000
     6  O    0.000000   0.000000   0.000000   0.000000   0.000000   6.543765
     7  H    0.000000   0.000000   0.000000   0.000000   0.000000   0.000000
     8  H    0.000000   0.000000   0.000000   0.000000   0.000000   0.000000
     9  H    0.000000   0.000000   0.000000   0.000000   0.000000   0.000000
    10  H    0.000000   0.000000   0.000000   0.000000   0.000000   0.000000
    11  H    0.000000   0.000000   0.000000   0.000000   0.000000   0.000000
    12  H    0.000000   0.000000   0.000000   0.000000   0.000000   0.000000
    13  H    0.000000   0.000000   0.000000   0.000000   0.000000   0.000000
    14  H    0.000000   0.000000   0.000000   0.000000   0.000000   0.000000
    15  H    0.000000   0.000000   0.000000   0.000000   0.000000   0.000000
    16  H    0.000000   0.000000   0.000000   0.000000   0.000000   0.000000
               7          8          9         10         11         12
     1  C    0.000000   0.000000   0.000000   0.000000   0.000000   0.000000
     2  C    0.000000   0.000000   0.000000   0.000000   0.000000   0.000000
     3  O    0.000000   0.000000   0.000000   0.000000   0.000000   0.000000
     4  C    0.000000   0.000000   0.000000   0.000000   0.000000   0.000000
     5  C    0.000000   0.000000   0.000000   0.000000   0.000000   0.000000
     6  O    0.000000   0.000000   0.000000   0.000000   0.000000   0.000000
     7  H    0.842512   0.000000   0.000000   0.000000   0.000000   0.000000
     8  H    0.000000   0.839623   0.000000   0.000000   0.000000   0.000000
     9  H    0.000000   0.000000   0.860357   0.000000   0.000000   0.000000
    10  H    0.000000   0.000000   0.000000   0.891964   0.000000   0.000000
    11  H    0.000000   0.000000   0.000000   0.000000   0.695446   0.000000
    12  H    0.000000   0.000000   0.000000   0.000000   0.000000   0.834627
    13  H    0.000000   0.000000   0.000000   0.000000   0.000000   0.000000
    14  H    0.000000   0.000000   0.000000   0.000000   0.000000   0.000000
    15  H    0.000000   0.000000   0.000000   0.000000   0.000000   0.000000
    16  H    0.000000   0.000000   0.000000   0.000000   0.000000   0.000000
              13         14         15         16
     1  C    0.000000   0.000000   0.000000   0.000000
     2  C    0.000000   0.000000   0.000000   0.000000
     3  O    0.000000   0.000000   0.000000   0.000000
     4  C    0.000000   0.000000   0.000000   0.000000
     5  C    0.000000   0.000000   0.000000   0.000000
     6  O    0.000000   0.000000   0.000000   0.000000
     7  H    0.000000   0.000000   0.000000   0.000000
     8  H    0.000000   0.000000   0.000000   0.000000
     9  H    0.000000   0.000000   0.000000   0.000000
    10  H    0.000000   0.000000   0.000000   0.000000
    11  H    0.000000   0.000000   0.000000   0.000000
    12  H    0.000000   0.000000   0.000000   0.000000
    13  H    0.868968   0.000000   0.000000   0.000000
    14  H    0.000000   0.900261   0.000000   0.000000
    15  H    0.000000   0.000000   0.883028   0.000000
    16  H    0.000000   0.000000   0.000000   0.695729
 Mulliken charges:
               1
     1  C   -0.330985
     2  C    0.004765
     3  O   -0.540811
     4  C   -0.278105
     5  C    0.001416
     6  O   -0.543765
     7  H    0.157488
     8  H    0.160377
     9  H    0.139643
    10  H    0.108036
    11  H    0.304554
    12  H    0.165373
    13  H    0.131032
    14  H    0.099739
    15  H    0.116972
    16  H    0.304271
 Sum of Mulliken charges =  -0.00000
 Mulliken charges with hydrogens summed into heavy atoms:
               1
     1  C   -0.013120
     2  C    0.252444
     3  O   -0.236258
     4  C    0.018300
     5  C    0.218128
     6  O   -0.239494
 Charge=             -0.0000 electrons
 Dipole moment (field-independent basis, Debye):
    X=              1.7656    Y=             -0.9206    Z=              2.0754  Tot=              2.8761
 N-N= 1.726217694042D+02 E-N=-2.985984310161D+02  KE=-2.195776296740D+01
 Calling FoFJK, ICntrl=      2127 FMM=F ISym2X=0 I1Cent= 0 IOpClX= 0 NMat=1 NMatS=1 NMatT=0.
 ***** Axes restored to original set *****
 -------------------------------------------------------------------
 Center     Atomic                   Forces (Hartrees/Bohr)
 Number     Number              X              Y              Z
 -------------------------------------------------------------------
      1        6           0.005484200   -0.005631198    0.001525301
      2        6           0.007142697    0.008048007   -0.001327503
      3        8          -0.007323938   -0.000492987    0.002187378
      4        6          -0.003382774    0.008951187    0.000966767
      5        6          -0.003669240   -0.008653041    0.012608969
      6        8           0.001576059    0.004122060   -0.010666765
      7        1           0.000203954    0.005480783   -0.003125941
      8        1          -0.005220836    0.000539301   -0.005903487
      9        1          -0.009149225   -0.001221664    0.002338802
     10        1           0.004033883    0.000372814    0.005294064
     11        1           0.001273629   -0.006532035   -0.000921881
     12        1           0.002664785   -0.002748646   -0.007053681
     13        1          -0.000489867   -0.006887880    0.001951390
     14        1           0.005080233   -0.003976608    0.005020012
     15        1          -0.002093822    0.005612318    0.002630108
     16        1           0.003870262    0.003017591   -0.005523534
 -------------------------------------------------------------------
 Cartesian Forces:  Max     0.012608969 RMS     0.005155965

 GradGradGradGradGradGradGradGradGradGradGradGradGradGradGradGradGradGrad
 Berny optimization.
 FormGI is forming the generalized inverse of G from B-inverse, IUseBI=4.
 Internal  Forces:  Max     0.018440794 RMS     0.004387930
 Search for a local minimum.
 Step number   1 out of a maximum of   84
 All quantities printed in internal units (Hartrees-Bohrs-Radians)
 Mixed Optimization -- RFO/linear search
 Second derivative matrix not updated -- first step.
 ITU=  0
     Eigenvalues ---    0.00284   0.00402   0.00410   0.01375   0.01400
     Eigenvalues ---    0.03505   0.03524   0.04828   0.04851   0.04960
     Eigenvalues ---    0.05175   0.05694   0.05697   0.08308   0.08364
     Eigenvalues ---    0.11438   0.11629   0.12193   0.12227   0.13715
     Eigenvalues ---    0.13869   0.16000   0.16000   0.21934   0.21941
     Eigenvalues ---    0.21995   0.22021   0.28839   0.29656   0.29713
     Eigenvalues ---    0.34042   0.34053   0.34105   0.34274   0.34294
     Eigenvalues ---    0.34306   0.34308   0.34370   0.41868   0.42155
     Eigenvalues ---    0.52771   0.53646
 RFO step:  Lambda=-6.21638371D-03 EMin= 2.84202242D-03
 Linear search not attempted -- first point.
 Iteration  1 RMS(Cart)=  0.05481270 RMS(Int)=  0.00206001
 Iteration  2 RMS(Cart)=  0.00274215 RMS(Int)=  0.00023284
 Iteration  3 RMS(Cart)=  0.00000649 RMS(Int)=  0.00023274
 Iteration  4 RMS(Cart)=  0.00000000 RMS(Int)=  0.00023274
 Variable       Old X    -DE/DX   Delta X   Delta X   Delta X     New X
                                 (Linear)    (Quad)   (Total)
    R1        2.88655   0.00843   0.00000   0.02784   0.02784   2.91438
    R2        2.90341   0.00333   0.00000   0.01130   0.01130   2.91471
    R3        2.07153   0.00578   0.00000   0.01665   0.01665   2.08818
    R4        2.07241   0.00739   0.00000   0.02130   0.02130   2.09371
    R5        2.69091   0.00892   0.00000   0.02100   0.02100   2.71191
    R6        2.06709   0.00631   0.00000   0.01803   0.01803   2.08512
    R7        2.06816   0.00665   0.00000   0.01904   0.01904   2.08720
    R8        1.83056   0.00549   0.00000   0.01011   0.01011   1.84067
    R9        2.88539   0.00477   0.00000   0.01573   0.01573   2.90113
   R10        2.07259   0.00770   0.00000   0.02221   0.02221   2.09480
   R11        2.06836   0.00671   0.00000   0.01921   0.01921   2.08757
   R12        2.68726   0.01844   0.00000   0.04311   0.04311   2.73037
   R13        2.06870   0.00798   0.00000   0.02286   0.02286   2.09155
   R14        2.06813   0.00632   0.00000   0.01811   0.01811   2.08624
   R15        1.83868   0.00346   0.00000   0.00647   0.00647   1.84515
    A1        1.96724   0.00070   0.00000   0.00841   0.00826   1.97551
    A2        1.91218   0.00029   0.00000  -0.00086  -0.00082   1.91137
    A3        1.89080   0.00014   0.00000   0.01042   0.01017   1.90097
    A4        1.92729  -0.00087   0.00000  -0.01062  -0.01057   1.91672
    A5        1.89023   0.00093   0.00000   0.01566   0.01546   1.90569
    A6        1.87323  -0.00128   0.00000  -0.02407  -0.02398   1.84924
    A7        1.93652   0.00363   0.00000   0.01249   0.01246   1.94897
    A8        1.91760   0.00394   0.00000   0.02551   0.02535   1.94295
    A9        1.95458  -0.00085   0.00000   0.01017   0.00983   1.96441
   A10        1.86622  -0.00702   0.00000  -0.06737  -0.06726   1.79896
   A11        1.89916  -0.00027   0.00000   0.00673   0.00650   1.90567
   A12        1.88697   0.00018   0.00000   0.00865   0.00810   1.89507
   A13        1.89689   0.00705   0.00000   0.04242   0.04242   1.93930
   A14        1.97213  -0.00034   0.00000   0.00122   0.00115   1.97329
   A15        1.89242   0.00133   0.00000   0.00694   0.00692   1.89934
   A16        1.92295   0.00018   0.00000   0.00892   0.00881   1.93176
   A17        1.90947  -0.00146   0.00000  -0.01803  -0.01800   1.89147
   A18        1.89557   0.00103   0.00000   0.01246   0.01238   1.90795
   A19        1.86850  -0.00080   0.00000  -0.01266  -0.01263   1.85587
   A20        1.89956  -0.00958   0.00000  -0.04607  -0.04645   1.85311
   A21        1.91668   0.00300   0.00000   0.02564   0.02597   1.94265
   A22        1.96905   0.00106   0.00000  -0.00808  -0.00891   1.96014
   A23        1.88416   0.00452   0.00000   0.03541   0.03583   1.91999
   A24        1.89788   0.00213   0.00000  -0.01227  -0.01330   1.88457
   A25        1.89462  -0.00090   0.00000   0.00736   0.00737   1.90199
   A26        1.87379   0.01199   0.00000   0.07215   0.07215   1.94594
    D1       -1.27619  -0.00267   0.00000  -0.05086  -0.05098  -1.32718
    D2        2.94702   0.00130   0.00000   0.00864   0.00876   2.95578
    D3        0.84975  -0.00103   0.00000  -0.02617  -0.02626   0.82348
    D4        2.85355  -0.00226   0.00000  -0.04241  -0.04250   2.81104
    D5        0.79357   0.00172   0.00000   0.01710   0.01724   0.81082
    D6       -1.30370  -0.00062   0.00000  -0.01772  -0.01779  -1.32148
    D7        0.81517  -0.00097   0.00000  -0.01905  -0.01910   0.79607
    D8       -1.24481   0.00300   0.00000   0.04046   0.04065  -1.20416
    D9        2.94111   0.00066   0.00000   0.00564   0.00562   2.94673
   D10       -1.69631  -0.00004   0.00000   0.04247   0.04251  -1.65380
   D11        2.46710   0.00109   0.00000   0.05963   0.05970   2.52680
   D12        0.42749   0.00118   0.00000   0.06584   0.06591   0.49340
   D13        0.44872   0.00020   0.00000   0.03950   0.03948   0.48820
   D14       -1.67106   0.00133   0.00000   0.05666   0.05668  -1.61438
   D15        2.57251   0.00142   0.00000   0.06287   0.06289   2.63540
   D16        2.49519  -0.00128   0.00000   0.01369   0.01360   2.50879
   D17        0.37541  -0.00015   0.00000   0.03085   0.03080   0.40621
   D18       -1.66420  -0.00006   0.00000   0.03707   0.03701  -1.62719
   D19        1.03373  -0.00072   0.00000  -0.00321  -0.00320   1.03052
   D20        3.12464   0.00181   0.00000  -0.00662  -0.00672   3.11793
   D21       -1.12429  -0.00186   0.00000  -0.02894  -0.02884  -1.15313
   D22       -1.69271   0.00186   0.00000   0.05104   0.05073  -1.64198
   D23        2.53136   0.00031   0.00000   0.02054   0.02064   2.55200
   D24        0.41539  -0.00140   0.00000  -0.00161  -0.00137   0.41401
   D25        0.41741   0.00231   0.00000   0.04797   0.04767   0.46508
   D26       -1.64171   0.00075   0.00000   0.01747   0.01758  -1.62413
   D27        2.52551  -0.00095   0.00000  -0.00468  -0.00443   2.52107
   D28        2.45133   0.00112   0.00000   0.02989   0.02953   2.48086
   D29        0.39221  -0.00044   0.00000  -0.00062  -0.00055   0.39166
   D30       -1.72376  -0.00214   0.00000  -0.02277  -0.02257  -1.74633
   D31       -2.71678  -0.00159   0.00000  -0.03369  -0.03315  -2.74993
   D32       -0.63723  -0.00079   0.00000  -0.00864  -0.00878  -0.64601
   D33        1.41511   0.00179   0.00000   0.01298   0.01258   1.42769
         Item               Value     Threshold  Converged?
 Maximum Force            0.018441     0.000450     NO 
 RMS     Force            0.004388     0.000300     NO 
 Maximum Displacement     0.225159     0.001800     NO 
 RMS     Displacement     0.055635     0.001200     NO 
 Predicted change in Energy=-3.299374D-03
 GradGradGradGradGradGradGradGradGradGradGradGradGradGradGradGradGradGrad

                          Input orientation:                          
 ---------------------------------------------------------------------
 Center     Atomic      Atomic             Coordinates (Angstroms)
 Number     Number       Type             X           Y           Z
 ---------------------------------------------------------------------
      1          6           0        1.877943    1.239117    1.740453
      2          6           0        1.203307    1.024822    3.110637
      3          8           0        0.556282   -0.253754    3.188495
      4          6           0        3.197908    0.456597    1.584397
      5          6           0        4.437129    1.291215    1.937402
      6          8           0        4.912660    1.851663    0.693471
      7          1           0        2.060947    2.317554    1.583776
      8          1           0        1.174938    0.930332    0.941717
      9          1           0        0.372636    1.734666    3.264255
     10          1           0        1.911879    1.124904    3.951963
     11          1           0        1.191741   -0.977885    3.045047
     12          1           0        3.291678    0.119536    0.532532
     13          1           0        3.184789   -0.458062    2.203733
     14          1           0        5.225962    0.665371    2.396832
     15          1           0        4.199468    2.126709    2.618768
     16          1           0        5.857215    2.093015    0.747751
 ---------------------------------------------------------------------
                    Distance matrix (angstroms):
                    1          2          3          4          5
     1  C    0.000000
     2  C    1.542226   0.000000
     3  O    2.464200   1.435082   0.000000
     4  C    1.542400   2.575019   3.171107   0.000000
     5  C    2.567282   3.450370   4.360406   1.535210   0.000000
     6  O    3.268163   4.503961   5.443892   2.383345   1.444852
     7  H    1.105017   2.176697   3.383898   2.180789   2.612406
     8  H    1.107945   2.171163   2.613964   2.174826   3.429798
     9  H    2.198520   1.103400   1.998320   3.526690   4.298522
    10  H    2.214717   1.104500   2.078756   2.775946   3.234656
    11  H    2.662318   2.003814   0.974039   2.866346   4.111962
    12  H    2.170526   3.439108   3.830912   1.108523   2.158367
    13  H    2.191550   2.635847   2.814347   1.104695   2.167777
    14  H    3.459660   4.101277   4.824669   2.194685   1.106803
    15  H    2.636046   3.230027   4.389078   2.205068   1.103990
    16  H    4.189177   5.327582   6.290028   3.232608   2.018613
                    6          7          8          9         10
     6  O    0.000000
     7  H    3.023569   0.000000
     8  H    3.857595   1.766814   0.000000
     9  H    5.218662   2.452379   2.585503   0.000000
    10  H    4.488946   2.655738   3.105241   1.792769   0.000000
    11  H    5.232732   3.708200   2.839995   2.841992   2.400587
    12  H    2.377761   2.729670   2.303348   4.311817   3.821927
    13  H    3.255957   3.058008   2.749513   3.720345   2.679998
    14  H    2.099258   3.661706   4.312581   5.044857   3.689546
    15  H    2.071488   2.383465   3.659453   3.900640   2.830916
    16  H    0.976412   3.893714   4.828371   6.044982   5.173962
                   11         12         13         14         15
    11  H    0.000000
    12  H    3.453520   0.000000
    13  H    2.224919   1.771428   0.000000
    14  H    4.404022   2.741350   2.337900   0.000000
    15  H    4.343575   3.034009   2.807645   1.799571   0.000000
    16  H    6.039424   3.243904   3.971113   2.270708   2.499993
                   16
    16  H    0.000000
 Stoichiometry    C4H10O2
 Framework group  C1[X(C4H10O2)]
 Deg. of freedom    42
 Full point group                 C1      NOp   1
 Largest Abelian subgroup         C1      NOp   1
 Largest concise Abelian subgroup C1      NOp   1
                         Standard orientation:                         
 ---------------------------------------------------------------------
 Center     Atomic      Atomic             Coordinates (Angstroms)
 Number     Number       Type             X           Y           Z
 ---------------------------------------------------------------------
      1          6           0       -0.518506    0.672918   -0.443874
      2          6           0       -1.734614    0.469835    0.482570
      3          8           0       -2.687043   -0.441146   -0.085280
      4          6           0        0.465031   -0.515050   -0.424227
      5          6           0        1.622934   -0.320820    0.564916
      6          8           0        2.712185    0.245785   -0.196718
      7          1           0        0.009788    1.601425   -0.161305
      8          1           0       -0.878471    0.830558   -1.479787
      9          1           0       -2.315308    1.401613    0.592463
     10          1           0       -1.446641    0.114018    1.487750
     11          1           0       -2.283149   -1.311432   -0.253274
     12          1           0        0.890749   -0.643775   -1.439617
     13          1           0       -0.063877   -1.455583   -0.187573
     14          1           0        1.934794   -1.283590    1.013056
     15          1           0        1.368866    0.386131    1.373905
     16          1           0        3.573033    0.082224    0.234059
 ---------------------------------------------------------------------
 Rotational constants (GHZ):     10.1524281      1.3982571      1.3750888
 Standard basis: VSTO-6G (5D, 7F)
 There are    34 symmetry adapted cartesian basis functions of A   symmetry.
 There are    34 symmetry adapted basis functions of A   symmetry.
    34 basis functions,   204 primitive gaussians,    34 cartesian basis functions
    19 alpha electrons       19 beta electrons
       nuclear repulsion energy       171.7314470737 Hartrees.
 Integral buffers will be    131072 words long.
 Regular integral format.
 Two-electron integral symmetry is turned off.
 Do NDO integrals.
 One-electron integrals computed using PRISM.
 NBasis=    34 RedAO= F EigKep=  0.00D+00  NBF=    34
 NBsUse=    34 1.00D-04 EigRej=  0.00D+00 NBFU=    34
 Initial guess from the checkpoint file:  "1-4-butanediol-open-opt.chk"
 B after Tr=    -0.000000    0.000000   -0.000000
         Rot=    0.999662   -0.025963    0.000375    0.001447 Ang=  -2.98 deg.
 Overlap will be assumed to be unity.
 Keep J ints in memory in canonical form, NReq=895124.
 Requested convergence on RMS density matrix=1.00D-08 within 128 cycles.
 Requested convergence on MAX density matrix=1.00D-06.
 Requested convergence on             energy=1.00D-06.
 No special actions if energy rises.
 SCF Done:  E(RPM6) = -0.165342458817     A.U. after   12 cycles
            NFock= 11  Conv=0.47D-08     -V/T= 0.9924
 Calling FoFJK, ICntrl=      2127 FMM=F ISym2X=0 I1Cent= 0 IOpClX= 0 NMat=1 NMatS=1 NMatT=0.
 ***** Axes restored to original set *****
 -------------------------------------------------------------------
 Center     Atomic                   Forces (Hartrees/Bohr)
 Number     Number              X              Y              Z
 -------------------------------------------------------------------
      1        6           0.002603926   -0.006229930    0.006631811
      2        6           0.005554658    0.000837124   -0.005757559
      3        8          -0.001011008    0.002155522    0.000600478
      4        6          -0.002391041    0.006121417    0.002014903
      5        6           0.000572955   -0.002170538    0.001801758
      6        8          -0.001770130   -0.001441766    0.000173544
      7        1          -0.000500515    0.000987830   -0.001080946
      8        1          -0.000518549    0.000164556    0.000278313
      9        1          -0.002207873   -0.000222065   -0.000255623
     10        1           0.000388498   -0.001159461   -0.000981970
     11        1           0.000988364    0.000498082   -0.000741359
     12        1           0.000897572   -0.000275625   -0.001595850
     13        1          -0.000545067   -0.000490662   -0.000630641
     14        1          -0.000359125    0.001286389   -0.002080823
     15        1           0.000447258    0.001010183   -0.000571684
     16        1          -0.002149922   -0.001071056    0.002195650
 -------------------------------------------------------------------
 Cartesian Forces:  Max     0.006631811 RMS     0.002308003

 GradGradGradGradGradGradGradGradGradGradGradGradGradGradGradGradGradGrad
 Berny optimization.
 Using GEDIIS/GDIIS optimizer.
 FormGI is forming the generalized inverse of G from B-inverse, IUseBI=4.
 Internal  Forces:  Max     0.008257125 RMS     0.001704072
 Search for a local minimum.
 Step number   2 out of a maximum of   84
 All quantities printed in internal units (Hartrees-Bohrs-Radians)
 Mixed Optimization -- RFO/linear search
 Update second derivatives using D2CorX and points    1    2
 DE= -2.90D-03 DEPred=-3.30D-03 R= 8.79D-01
 TightC=F SS=  1.41D+00  RLast= 2.52D-01 DXNew= 5.0454D-01 7.5615D-01
 Trust test= 8.79D-01 RLast= 2.52D-01 DXMaxT set to 5.05D-01
 ITU=  1  0
 Use linear search instead of GDIIS.
     Eigenvalues ---    0.00280   0.00402   0.00410   0.01370   0.01399
     Eigenvalues ---    0.03432   0.03455   0.04719   0.04809   0.04862
     Eigenvalues ---    0.05164   0.05534   0.05657   0.08396   0.08441
     Eigenvalues ---    0.11219   0.11771   0.12215   0.12279   0.13498
     Eigenvalues ---    0.13655   0.15996   0.17310   0.20439   0.21906
     Eigenvalues ---    0.21928   0.22083   0.28913   0.29693   0.31124
     Eigenvalues ---    0.33745   0.34074   0.34088   0.34244   0.34299
     Eigenvalues ---    0.34303   0.34336   0.35961   0.41925   0.47428
     Eigenvalues ---    0.53336   0.53851
 RFO step:  Lambda=-1.16000261D-03 EMin= 2.80073636D-03
 Quartic linear search produced a step of -0.05129.
 Iteration  1 RMS(Cart)=  0.05716148 RMS(Int)=  0.00100049
 Iteration  2 RMS(Cart)=  0.00130995 RMS(Int)=  0.00005413
 Iteration  3 RMS(Cart)=  0.00000072 RMS(Int)=  0.00005412
 Variable       Old X    -DE/DX   Delta X   Delta X   Delta X     New X
                                 (Linear)    (Quad)   (Total)
    R1        2.91438  -0.00826  -0.00143  -0.02065  -0.02207   2.89231
    R2        2.91471  -0.00617  -0.00058  -0.01782  -0.01840   2.89631
    R3        2.08818   0.00103  -0.00085   0.00606   0.00521   2.09339
    R4        2.09371   0.00008  -0.00109   0.00435   0.00326   2.09697
    R5        2.71191  -0.00236  -0.00108  -0.00121  -0.00229   2.70962
    R6        2.08512   0.00148  -0.00092   0.00753   0.00661   2.09173
    R7        2.08720  -0.00060  -0.00098   0.00204   0.00107   2.08827
    R8        1.84067   0.00038  -0.00052   0.00263   0.00211   1.84278
    R9        2.90113  -0.00358  -0.00081  -0.00822  -0.00902   2.89210
   R10        2.09480   0.00167  -0.00114   0.00891   0.00777   2.10257
   R11        2.08757   0.00006  -0.00099   0.00388   0.00290   2.09047
   R12        2.73037  -0.00430  -0.00221  -0.00121  -0.00342   2.72696
   R13        2.09155  -0.00185  -0.00117  -0.00061  -0.00179   2.08977
   R14        2.08624   0.00032  -0.00093   0.00437   0.00344   2.08968
   R15        1.84515  -0.00222  -0.00033  -0.00269  -0.00302   1.84213
    A1        1.97551  -0.00111  -0.00042  -0.00232  -0.00275   1.97276
    A2        1.91137   0.00031   0.00004  -0.00030  -0.00026   1.91111
    A3        1.90097   0.00017  -0.00052   0.00274   0.00222   1.90319
    A4        1.91672   0.00042   0.00054  -0.00017   0.00037   1.91709
    A5        1.90569   0.00074  -0.00079   0.00923   0.00844   1.91413
    A6        1.84924  -0.00050   0.00123  -0.00961  -0.00838   1.84086
    A7        1.94897  -0.00040  -0.00064  -0.00267  -0.00331   1.94567
    A8        1.94295   0.00089  -0.00130   0.01235   0.01099   1.95394
    A9        1.96441  -0.00068  -0.00050  -0.00164  -0.00217   1.96223
   A10        1.79896  -0.00089   0.00345  -0.02323  -0.01975   1.77921
   A11        1.90567   0.00030  -0.00033  -0.00106  -0.00139   1.90428
   A12        1.89507   0.00080  -0.00042   0.01498   0.01451   1.90958
   A13        1.93930  -0.00211  -0.00218  -0.00406  -0.00624   1.93306
   A14        1.97329  -0.00055  -0.00006  -0.00178  -0.00185   1.97144
   A15        1.89934   0.00047  -0.00035   0.00347   0.00311   1.90244
   A16        1.93176   0.00001  -0.00045   0.00254   0.00208   1.93384
   A17        1.89147  -0.00020   0.00092  -0.00680  -0.00587   1.88560
   A18        1.90795   0.00051  -0.00064   0.00670   0.00607   1.91402
   A19        1.85587  -0.00023   0.00065  -0.00457  -0.00392   1.85196
   A20        1.85311  -0.00347   0.00238  -0.02755  -0.02515   1.82796
   A21        1.94265   0.00153  -0.00133   0.01551   0.01400   1.95665
   A22        1.96014   0.00143   0.00046   0.00881   0.00907   1.96921
   A23        1.91999   0.00024  -0.00184  -0.00067  -0.00243   1.91756
   A24        1.88457   0.00039   0.00068  -0.00840  -0.00765   1.87692
   A25        1.90199  -0.00022  -0.00038   0.01053   0.00993   1.91192
   A26        1.94594  -0.00436  -0.00370  -0.01144  -0.01514   1.93079
    D1       -1.32718  -0.00035   0.00261  -0.03206  -0.02945  -1.35663
    D2        2.95578   0.00045  -0.00045  -0.00929  -0.00971   2.94607
    D3        0.82348  -0.00076   0.00135  -0.03670  -0.03537   0.78811
    D4        2.81104  -0.00034   0.00218  -0.03000  -0.02783   2.78321
    D5        0.81082   0.00045  -0.00088  -0.00723  -0.00809   0.80272
    D6       -1.32148  -0.00076   0.00091  -0.03465  -0.03375  -1.35523
    D7        0.79607  -0.00002   0.00098  -0.01988  -0.01891   0.77716
    D8       -1.20416   0.00078  -0.00208   0.00289   0.00083  -1.20333
    D9        2.94673  -0.00043  -0.00029  -0.02453  -0.02483   2.92190
   D10       -1.65380   0.00022  -0.00218   0.09549   0.09331  -1.56049
   D11        2.52680   0.00051  -0.00306   0.10283   0.09977   2.62658
   D12        0.49340   0.00050  -0.00338   0.10487   0.10149   0.59489
   D13        0.48820   0.00015  -0.00202   0.09335   0.09133   0.57953
   D14       -1.61438   0.00044  -0.00291   0.10069   0.09779  -1.51659
   D15        2.63540   0.00043  -0.00323   0.10273   0.09951   2.73491
   D16        2.50879   0.00021  -0.00070   0.08695   0.08625   2.59505
   D17        0.40621   0.00050  -0.00158   0.09429   0.09272   0.49892
   D18       -1.62719   0.00049  -0.00190   0.09633   0.09443  -1.53276
   D19        1.03052  -0.00075   0.00016  -0.02422  -0.02409   1.00643
   D20        3.11793  -0.00041   0.00034  -0.02459  -0.02420   3.09373
   D21       -1.15313   0.00019   0.00148  -0.01945  -0.01798  -1.17111
   D22       -1.64198   0.00005  -0.00260   0.03086   0.02825  -1.61372
   D23        2.55200   0.00104  -0.00106   0.03998   0.03901   2.59101
   D24        0.41401  -0.00083   0.00007   0.00849   0.00847   0.42249
   D25        0.46508   0.00015  -0.00244   0.02939   0.02694   0.49202
   D26       -1.62413   0.00114  -0.00090   0.03850   0.03769  -1.58643
   D27        2.52107  -0.00074   0.00023   0.00702   0.00716   2.52823
   D28        2.48086   0.00005  -0.00151   0.02383   0.02231   2.50317
   D29        0.39166   0.00104   0.00003   0.03294   0.03306   0.42472
   D30       -1.74633  -0.00084   0.00116   0.00146   0.00253  -1.74380
   D31       -2.74993  -0.00012   0.00170  -0.01459  -0.01287  -2.76281
   D32       -0.64601  -0.00021   0.00045  -0.01273  -0.01220  -0.65820
   D33        1.42769  -0.00011  -0.00065  -0.00539  -0.00614   1.42156
         Item               Value     Threshold  Converged?
 Maximum Force            0.008257     0.000450     NO 
 RMS     Force            0.001704     0.000300     NO 
 Maximum Displacement     0.146571     0.001800     NO 
 RMS     Displacement     0.057385     0.001200     NO 
 Predicted change in Energy=-6.613635D-04
 GradGradGradGradGradGradGradGradGradGradGradGradGradGradGradGradGradGrad

                          Input orientation:                          
 ---------------------------------------------------------------------
 Center     Atomic      Atomic             Coordinates (Angstroms)
 Number     Number       Type             X           Y           Z
 ---------------------------------------------------------------------
      1          6           0        1.875777    1.213974    1.714005
      2          6           0        1.245857    1.053827    3.099689
      3          8           0        0.584361   -0.211372    3.232658
      4          6           0        3.191324    0.442705    1.560599
      5          6           0        4.416108    1.264409    1.969179
      6          8           0        4.867416    1.883392    0.746250
      7          1           0        2.043781    2.289038    1.506214
      8          1           0        1.151378    0.873564    0.945411
      9          1           0        0.413478    1.765495    3.260604
     10          1           0        1.984934    1.162934    3.913954
     11          1           0        1.205491   -0.945020    3.068685
     12          1           0        3.315231    0.146007    0.495438
     13          1           0        3.164516   -0.499012    2.140420
     14          1           0        5.220201    0.632109    2.389359
     15          1           0        4.171427    2.073807    2.681794
     16          1           0        5.805200    2.139942    0.816973
 ---------------------------------------------------------------------
                    Distance matrix (angstroms):
                    1          2          3          4          5
     1  C    0.000000
     2  C    1.530545   0.000000
     3  O    2.450647   1.433871   0.000000
     4  C    1.532662   2.554821   3.165415   0.000000
     5  C    2.553612   3.372371   4.296113   1.530434   0.000000
     6  O    3.214743   4.398015   5.377250   2.355425   1.443043
     7  H    1.107774   2.168315   3.370840   2.174571   2.625288
     8  H    1.109671   2.163870   2.594242   2.173816   3.443736
     9  H    2.198741   1.106897   1.984436   3.515141   4.235553
    10  H    2.203247   1.105064   2.077134   2.740873   3.114972
    11  H    2.635469   1.999495   0.975156   2.853705   4.049512
    12  H    2.167368   3.447980   3.883007   1.112632   2.152827
    13  H    2.185635   2.648161   2.816544   1.106229   2.169207
    14  H    3.461190   4.059288   4.786817   2.199786   1.105857
    15  H    2.635514   3.126332   4.288652   2.208659   1.105810
    16  H    4.135510   5.213257   6.214609   3.204051   2.005920
                    6          7          8          9         10
     6  O    0.000000
     7  H    2.952119   0.000000
     8  H    3.855951   1.764780   0.000000
     9  H    5.115998   2.451503   2.588466   0.000000
    10  H    4.343053   2.658719   3.096901   1.805387   0.000000
    11  H    5.177191   3.688248   2.796152   2.830373   2.401141
    12  H    2.343223   2.689021   2.326816   4.323084   3.806584
    13  H    3.243367   3.071073   2.713805   3.735106   2.701648
    14  H    2.095227   3.689851   4.324189   5.014800   3.615676
    15  H    2.065669   2.440326   3.684604   3.814742   2.669955
    16  H    0.974812   3.826952   4.824756   5.931459   5.014007
                   11         12         13         14         15
    11  H    0.000000
    12  H    3.501848   0.000000
    13  H    2.213228   1.773339   0.000000
    14  H    4.366545   2.729861   2.359501   0.000000
    15  H    4.249679   3.038032   2.815378   1.806638   0.000000
    16  H    5.978672   3.206105   3.960909   2.255700   2.480151
                   16
    16  H    0.000000
 Stoichiometry    C4H10O2
 Framework group  C1[X(C4H10O2)]
 Deg. of freedom    42
 Full point group                 C1      NOp   1
 Largest Abelian subgroup         C1      NOp   1
 Largest concise Abelian subgroup C1      NOp   1
                         Standard orientation:                         
 ---------------------------------------------------------------------
 Center     Atomic      Atomic             Coordinates (Angstroms)
 Number     Number       Type             X           Y           Z
 ---------------------------------------------------------------------
      1          6           0       -0.511590    0.685696   -0.440885
      2          6           0       -1.681717    0.443376    0.515490
      3          8           0       -2.666164   -0.420753   -0.067716
      4          6           0        0.468966   -0.490824   -0.498878
      5          6           0        1.586357   -0.388420    0.541881
      6          8           0        2.664038    0.285137   -0.141710
      7          1           0        0.024848    1.607892   -0.142636
      8          1           0       -0.910108    0.890227   -1.456128
      9          1           0       -2.265617    1.366036    0.697092
     10          1           0       -1.355189    0.019148    1.482225
     11          1           0       -2.269382   -1.274360   -0.322371
     12          1           0        0.938860   -0.521441   -1.506952
     13          1           0       -0.064092   -1.452752   -0.379354
     14          1           0        1.924456   -1.382562    0.888714
     15          1           0        1.305410    0.231584    1.413362
     16          1           0        3.515724    0.102199    0.295811
 ---------------------------------------------------------------------
 Rotational constants (GHZ):      9.9458641      1.4369305      1.4150445
 Standard basis: VSTO-6G (5D, 7F)
 There are    34 symmetry adapted cartesian basis functions of A   symmetry.
 There are    34 symmetry adapted basis functions of A   symmetry.
    34 basis functions,   204 primitive gaussians,    34 cartesian basis functions
    19 alpha electrons       19 beta electrons
       nuclear repulsion energy       172.3907387465 Hartrees.
 Integral buffers will be    131072 words long.
 Regular integral format.
 Two-electron integral symmetry is turned off.
 Do NDO integrals.
 One-electron integrals computed using PRISM.
 NBasis=    34 RedAO= F EigKep=  0.00D+00  NBF=    34
 NBsUse=    34 1.00D-04 EigRej=  0.00D+00 NBFU=    34
 Initial guess from the checkpoint file:  "1-4-butanediol-open-opt.chk"
 B after Tr=    -0.000000    0.000000    0.000000
         Rot=    0.999417   -0.034150   -0.000421    0.000394 Ang=  -3.91 deg.
 Overlap will be assumed to be unity.
 Keep J ints in memory in canonical form, NReq=895124.
 Requested convergence on RMS density matrix=1.00D-08 within 128 cycles.
 Requested convergence on MAX density matrix=1.00D-06.
 Requested convergence on             energy=1.00D-06.
 No special actions if energy rises.
 SCF Done:  E(RPM6) = -0.166109423917     A.U. after   11 cycles
            NFock= 10  Conv=0.79D-08     -V/T= 0.9924
 Calling FoFJK, ICntrl=      2127 FMM=F ISym2X=0 I1Cent= 0 IOpClX= 0 NMat=1 NMatS=1 NMatT=0.
 ***** Axes restored to original set *****
 -------------------------------------------------------------------
 Center     Atomic                   Forces (Hartrees/Bohr)
 Number     Number              X              Y              Z
 -------------------------------------------------------------------
      1        6           0.000306057   -0.001130716    0.001514437
      2        6           0.000666966    0.001239238   -0.000455366
      3        8          -0.000473312   -0.001018511    0.000977381
      4        6          -0.000618879    0.000215810    0.001173651
      5        6           0.000265433   -0.000343673    0.001543448
      6        8           0.001505884    0.000138559   -0.000681330
      7        1          -0.000216540    0.000590411   -0.001302641
      8        1          -0.000031981   -0.000062645    0.000222715
      9        1           0.000010009    0.000666405   -0.000062508
     10        1          -0.000486850   -0.000505436   -0.000330095
     11        1           0.000209434   -0.000169871   -0.000443152
     12        1           0.000457369   -0.000081053   -0.000436339
     13        1          -0.000381997   -0.000143566   -0.000794611
     14        1          -0.000950986    0.000954940   -0.001207148
     15        1           0.000425706   -0.000469251   -0.000020311
     16        1          -0.000686314    0.000119360    0.000301871
 -------------------------------------------------------------------
 Cartesian Forces:  Max     0.001543448 RMS     0.000708881

 GradGradGradGradGradGradGradGradGradGradGradGradGradGradGradGradGradGrad
 Berny optimization.
 Using GEDIIS/GDIIS optimizer.
 FormGI is forming the generalized inverse of G from B-inverse, IUseBI=4.
 Internal  Forces:  Max     0.001696158 RMS     0.000428524
 Search for a local minimum.
 Step number   3 out of a maximum of   84
 All quantities printed in internal units (Hartrees-Bohrs-Radians)
 Mixed Optimization -- En-DIIS/RFO-DIIS
 Update second derivatives using D2CorX and points    1    2    3
 DE= -7.67D-04 DEPred=-6.61D-04 R= 1.16D+00
 TightC=F SS=  1.41D+00  RLast= 3.14D-01 DXNew= 8.4853D-01 9.4087D-01
 Trust test= 1.16D+00 RLast= 3.14D-01 DXMaxT set to 8.49D-01
 ITU=  1  1  0
 Use linear search instead of GDIIS.
     Eigenvalues ---    0.00181   0.00396   0.00407   0.01334   0.01396
     Eigenvalues ---    0.03443   0.03451   0.04580   0.04805   0.04918
     Eigenvalues ---    0.05505   0.05596   0.05879   0.08396   0.08466
     Eigenvalues ---    0.11142   0.11872   0.12176   0.12275   0.13382
     Eigenvalues ---    0.14028   0.15998   0.17265   0.21703   0.21892
     Eigenvalues ---    0.21910   0.23015   0.28817   0.29577   0.31508
     Eigenvalues ---    0.33992   0.34081   0.34239   0.34273   0.34300
     Eigenvalues ---    0.34334   0.34765   0.35524   0.42057   0.49453
     Eigenvalues ---    0.53204   0.53974
 RFO step:  Lambda=-5.05496197D-04 EMin= 1.80801939D-03
 Quartic linear search produced a step of  0.35286.
 Iteration  1 RMS(Cart)=  0.09555764 RMS(Int)=  0.00278863
 Iteration  2 RMS(Cart)=  0.00393320 RMS(Int)=  0.00002849
 Iteration  3 RMS(Cart)=  0.00000507 RMS(Int)=  0.00002824
 Iteration  4 RMS(Cart)=  0.00000000 RMS(Int)=  0.00002824
 Variable       Old X    -DE/DX   Delta X   Delta X   Delta X     New X
                                 (Linear)    (Quad)   (Total)
    R1        2.89231  -0.00028  -0.00779   0.00045  -0.00734   2.88497
    R2        2.89631  -0.00017  -0.00649  -0.00017  -0.00666   2.88965
    R3        2.09339   0.00078   0.00184   0.00411   0.00595   2.09934
    R4        2.09697  -0.00011   0.00115   0.00099   0.00214   2.09911
    R5        2.70962   0.00122  -0.00081   0.00513   0.00432   2.71395
    R6        2.09173   0.00041   0.00233   0.00279   0.00512   2.09685
    R7        2.08827  -0.00062   0.00038  -0.00108  -0.00070   2.08757
    R8        1.84278   0.00034   0.00075   0.00149   0.00224   1.84501
    R9        2.89210   0.00065  -0.00318   0.00377   0.00059   2.89269
   R10        2.10257   0.00049   0.00274   0.00338   0.00612   2.10869
   R11        2.09047  -0.00029   0.00102   0.00020   0.00123   2.09170
   R12        2.72696   0.00069  -0.00121   0.00491   0.00371   2.73066
   R13        2.08977  -0.00170  -0.00063  -0.00493  -0.00556   2.08421
   R14        2.08968  -0.00045   0.00121  -0.00049   0.00073   2.09040
   R15        1.84213  -0.00061  -0.00107  -0.00109  -0.00216   1.83997
    A1        1.97276   0.00036  -0.00097   0.00436   0.00337   1.97613
    A2        1.91111   0.00019  -0.00009   0.00433   0.00424   1.91535
    A3        1.90319  -0.00008   0.00078   0.00076   0.00152   1.90471
    A4        1.91709  -0.00024   0.00013  -0.00193  -0.00181   1.91528
    A5        1.91413  -0.00006   0.00298   0.00025   0.00321   1.91735
    A6        1.84086  -0.00021  -0.00296  -0.00864  -0.01159   1.82927
    A7        1.94567   0.00033  -0.00117   0.00286   0.00169   1.94736
    A8        1.95394  -0.00026   0.00388   0.00135   0.00520   1.95914
    A9        1.96223   0.00004  -0.00077  -0.00098  -0.00178   1.96046
   A10        1.77921   0.00030  -0.00697   0.00235  -0.00462   1.77459
   A11        1.90428  -0.00047  -0.00049  -0.00618  -0.00667   1.89760
   A12        1.90958   0.00007   0.00512   0.00070   0.00577   1.91535
   A13        1.93306  -0.00021  -0.00220   0.00103  -0.00117   1.93189
   A14        1.97144   0.00021  -0.00065   0.00242   0.00176   1.97320
   A15        1.90244   0.00005   0.00110   0.00109   0.00218   1.90462
   A16        1.93384  -0.00013   0.00073   0.00024   0.00095   1.93480
   A17        1.88560  -0.00012  -0.00207  -0.00213  -0.00419   1.88141
   A18        1.91402   0.00012   0.00214   0.00337   0.00551   1.91953
   A19        1.85196  -0.00015  -0.00138  -0.00560  -0.00697   1.84499
   A20        1.82796   0.00123  -0.00887   0.00441  -0.00445   1.82351
   A21        1.95665  -0.00015   0.00494   0.00003   0.00489   1.96154
   A22        1.96921  -0.00004   0.00320   0.00183   0.00493   1.97414
   A23        1.91756  -0.00080  -0.00086  -0.00630  -0.00711   1.91045
   A24        1.87692  -0.00030  -0.00270   0.00061  -0.00207   1.87485
   A25        1.91192   0.00006   0.00350  -0.00070   0.00268   1.91460
   A26        1.93079  -0.00040  -0.00534   0.00134  -0.00400   1.92680
    D1       -1.35663   0.00016  -0.01039  -0.01709  -0.02748  -1.38411
    D2        2.94607  -0.00026  -0.00343  -0.02255  -0.02596   2.92011
    D3        0.78811  -0.00018  -0.01248  -0.02376  -0.03625   0.75186
    D4        2.78321   0.00008  -0.00982  -0.02080  -0.03063   2.75258
    D5        0.80272  -0.00034  -0.00285  -0.02626  -0.02911   0.77361
    D6       -1.35523  -0.00026  -0.01191  -0.02747  -0.03940  -1.39463
    D7        0.77716   0.00027  -0.00667  -0.01328  -0.01995   0.75720
    D8       -1.20333  -0.00015   0.00029  -0.01874  -0.01843  -1.22176
    D9        2.92190  -0.00007  -0.00876  -0.01995  -0.02872   2.89318
   D10       -1.56049   0.00021   0.03293   0.11709   0.15002  -1.41047
   D11        2.62658   0.00019   0.03521   0.11747   0.15268   2.77926
   D12        0.59489   0.00041   0.03581   0.12348   0.15929   0.75419
   D13        0.57953   0.00053   0.03223   0.12432   0.15654   0.73607
   D14       -1.51659   0.00051   0.03451   0.12470   0.15920  -1.35739
   D15        2.73491   0.00073   0.03511   0.13070   0.16581   2.90072
   D16        2.59505   0.00011   0.03044   0.11295   0.14338   2.73842
   D17        0.49892   0.00009   0.03272   0.11333   0.14604   0.64496
   D18       -1.53276   0.00032   0.03332   0.11934   0.15265  -1.38011
   D19        1.00643  -0.00024  -0.00850  -0.02254  -0.03105   0.97539
   D20        3.09373  -0.00022  -0.00854  -0.01828  -0.02681   3.06691
   D21       -1.17111  -0.00019  -0.00634  -0.01882  -0.02517  -1.19628
   D22       -1.61372  -0.00014   0.00997   0.02339   0.03336  -1.58037
   D23        2.59101   0.00015   0.01376   0.02824   0.04205   2.63306
   D24        0.42249   0.00023   0.00299   0.02771   0.03067   0.45316
   D25        0.49202  -0.00002   0.00951   0.02482   0.03432   0.52634
   D26       -1.58643   0.00026   0.01330   0.02967   0.04302  -1.54341
   D27        2.52823   0.00034   0.00253   0.02914   0.03163   2.55987
   D28        2.50317  -0.00020   0.00787   0.01879   0.02665   2.52982
   D29        0.42472   0.00009   0.01167   0.02364   0.03535   0.46007
   D30       -1.74380   0.00016   0.00089   0.02312   0.02396  -1.71984
   D31       -2.76281  -0.00012  -0.00454  -0.01901  -0.02355  -2.78636
   D32       -0.65820  -0.00001  -0.00430  -0.01970  -0.02397  -0.68217
   D33        1.42156  -0.00056  -0.00217  -0.02372  -0.02593   1.39562
         Item               Value     Threshold  Converged?
 Maximum Force            0.001696     0.000450     NO 
 RMS     Force            0.000429     0.000300     NO 
 Maximum Displacement     0.248116     0.001800     NO 
 RMS     Displacement     0.095996     0.001200     NO 
 Predicted change in Energy=-3.762730D-04
 GradGradGradGradGradGradGradGradGradGradGradGradGradGradGradGradGradGrad

                          Input orientation:                          
 ---------------------------------------------------------------------
 Center     Atomic      Atomic             Coordinates (Angstroms)
 Number     Number       Type             X           Y           Z
 ---------------------------------------------------------------------
      1          6           0        1.859141    1.175068    1.670176
      2          6           0        1.294471    1.098719    3.086511
      3          8           0        0.632937   -0.153590    3.324512
      4          6           0        3.180022    0.422299    1.506263
      5          6           0        4.389821    1.219967    1.999510
      6          8           0        4.839694    1.950139    0.836540
      7          1           0        1.994200    2.238019    1.376847
      8          1           0        1.106893    0.776936    0.956386
      9          1           0        0.469759    1.822917    3.249636
     10          1           0        2.073329    1.240407    3.856997
     11          1           0        1.235589   -0.901117    3.147728
     12          1           0        3.339331    0.194439    0.425582
     13          1           0        3.140323   -0.559010    2.016788
     14          1           0        5.202956    0.568822    2.361792
     15          1           0        4.132165    1.962739    2.777692
     16          1           0        5.765848    2.229047    0.948270
 ---------------------------------------------------------------------
                    Distance matrix (angstroms):
                    1          2          3          4          5
     1  C    0.000000
     2  C    1.526658   0.000000
     3  O    2.450660   1.436158   0.000000
     4  C    1.529136   2.551477   3.182032   0.000000
     5  C    2.552415   3.282905   4.213843   1.530745   0.000000
     6  O    3.190515   4.284378   5.320948   2.353154   1.445004
     7  H    1.110922   2.170386   3.371384   2.172502   2.676405
     8  H    1.110802   2.162443   2.588153   2.173936   3.473039
     9  H    2.201087   1.109605   1.984644   3.513774   4.158516
    10  H    2.198257   1.104692   2.074005   2.723972   2.969312
    11  H    2.623455   2.001639   0.976340   2.868215   3.970716
    12  H    2.168320   3.475589   3.981142   1.115872   2.152322
    13  H    2.183711   2.701767   2.856834   1.106878   2.174006
    14  H    3.467992   4.010270   4.725863   2.201286   1.102917
    15  H    2.648331   2.982349   4.125828   2.212706   1.106194
    16  H    4.110277   5.083594   6.137610   3.203465   2.004195
                    6          7          8          9         10
     6  O    0.000000
     7  H    2.910609   0.000000
     8  H    3.914661   1.760359   0.000000
     9  H    4.993551   2.450218   2.599810   0.000000
    10  H    4.156881   2.674442   3.092304   1.810979   0.000000
    11  H    5.144009   3.683162   2.763042   2.831473   2.406449
    12  H    2.345732   2.624976   2.367453   4.343002   3.804132
    13  H    3.252180   3.089740   2.654061   3.784892   2.786171
    14  H    2.089591   3.748660   4.335459   4.976362   3.532878
    15  H    2.066114   2.570806   3.724990   3.695335   2.434228
    16  H    0.973670   3.795930   4.880015   5.788763   4.803415
                   11         12         13         14         15
    11  H    0.000000
    12  H    3.610547   0.000000
    13  H    2.241445   1.771786   0.000000
    14  H    4.303303   2.713332   2.376023   0.000000
    15  H    4.090080   3.047605   2.814595   1.806259   0.000000
    16  H    5.929485   3.209489   3.975974   2.251942   2.467109
                   16
    16  H    0.000000
 Stoichiometry    C4H10O2
 Framework group  C1[X(C4H10O2)]
 Deg. of freedom    42
 Full point group                 C1      NOp   1
 Largest Abelian subgroup         C1      NOp   1
 Largest concise Abelian subgroup C1      NOp   1
                         Standard orientation:                         
 ---------------------------------------------------------------------
 Center     Atomic      Atomic             Coordinates (Angstroms)
 Number     Number       Type             X           Y           Z
 ---------------------------------------------------------------------
      1          6           0       -0.513771    0.722947   -0.439852
      2          6           0       -1.619772    0.402207    0.562432
      3          8           0       -2.645470   -0.412919   -0.025842
      4          6           0        0.478550   -0.424739   -0.630564
      5          6           0        1.538112   -0.490597    0.472239
      6          8           0        2.624017    0.325307   -0.020862
      7          1           0        0.028349    1.638425   -0.120236
      8          1           0       -0.972842    0.990793   -1.415246
      9          1           0       -2.192807    1.304939    0.858959
     10          1           0       -1.234597   -0.107897    1.463419
     11          1           0       -2.264428   -1.230532   -0.399411
     12          1           0        1.007438   -0.292799   -1.604237
     13          1           0       -0.050045   -1.394346   -0.705598
     14          1           0        1.899994   -1.517814    0.646286
     15          1           0        1.198629   -0.047994    1.427498
     16          1           0        3.453225    0.099212    0.436663
 ---------------------------------------------------------------------
 Rotational constants (GHZ):      9.4649023      1.4736059      1.4542305
 Standard basis: VSTO-6G (5D, 7F)
 There are    34 symmetry adapted cartesian basis functions of A   symmetry.
 There are    34 symmetry adapted basis functions of A   symmetry.
    34 basis functions,   204 primitive gaussians,    34 cartesian basis functions
    19 alpha electrons       19 beta electrons
       nuclear repulsion energy       172.7458136310 Hartrees.
 Integral buffers will be    131072 words long.
 Regular integral format.
 Two-electron integral symmetry is turned off.
 Do NDO integrals.
 One-electron integrals computed using PRISM.
 NBasis=    34 RedAO= F EigKep=  0.00D+00  NBF=    34
 NBsUse=    34 1.00D-04 EigRej=  0.00D+00 NBFU=    34
 Initial guess from the checkpoint file:  "1-4-butanediol-open-opt.chk"
 B after Tr=    -0.000000    0.000000   -0.000000
         Rot=    0.998381   -0.056877   -0.000302    0.000434 Ang=  -6.52 deg.
 Overlap will be assumed to be unity.
 Keep J ints in memory in canonical form, NReq=895124.
 Requested convergence on RMS density matrix=1.00D-08 within 128 cycles.
 Requested convergence on MAX density matrix=1.00D-06.
 Requested convergence on             energy=1.00D-06.
 No special actions if energy rises.
 SCF Done:  E(RPM6) = -0.166545445344     A.U. after   12 cycles
            NFock= 11  Conv=0.29D-08     -V/T= 0.9924
 Calling FoFJK, ICntrl=      2127 FMM=F ISym2X=0 I1Cent= 0 IOpClX= 0 NMat=1 NMatS=1 NMatT=0.
 ***** Axes restored to original set *****
 -------------------------------------------------------------------
 Center     Atomic                   Forces (Hartrees/Bohr)
 Number     Number              X              Y              Z
 -------------------------------------------------------------------
      1        6          -0.000825274    0.001109964   -0.001298348
      2        6          -0.001269824    0.000276349    0.001358962
      3        8           0.000254131   -0.000824952    0.000434099
      4        6           0.001083064   -0.001390045   -0.000000155
      5        6          -0.000595899    0.000922165   -0.000121446
      6        8           0.000990463   -0.000040572   -0.000181255
      7        1           0.000307070   -0.000367398   -0.000265672
      8        1           0.000317867   -0.000449036    0.000457837
      9        1           0.001333544    0.000065492   -0.000329162
     10        1          -0.000678770    0.000031825    0.000229651
     11        1          -0.000167925    0.000293262   -0.000179067
     12        1          -0.000104435    0.000433317    0.000689628
     13        1          -0.000209145    0.000543302   -0.000357511
     14        1          -0.000456598   -0.000144010   -0.000265028
     15        1           0.000133866   -0.000898997   -0.000218686
     16        1          -0.000112134    0.000439333    0.000046153
 -------------------------------------------------------------------
 Cartesian Forces:  Max     0.001390045 RMS     0.000634017

 GradGradGradGradGradGradGradGradGradGradGradGradGradGradGradGradGradGrad
 Berny optimization.
 Using GEDIIS/GDIIS optimizer.
 FormGI is forming the generalized inverse of G from B-inverse, IUseBI=4.
 Internal  Forces:  Max     0.001608547 RMS     0.000446045
 Search for a local minimum.
 Step number   4 out of a maximum of   84
 All quantities printed in internal units (Hartrees-Bohrs-Radians)
 Mixed Optimization -- En-DIIS/RFO-DIIS
 Swapping is turned off.
 Update second derivatives using D2CorX and points    3    4
 DE= -4.36D-04 DEPred=-3.76D-04 R= 1.16D+00
 TightC=F SS=  1.41D+00  RLast= 4.87D-01 DXNew= 1.4270D+00 1.4596D+00
 Trust test= 1.16D+00 RLast= 4.87D-01 DXMaxT set to 1.43D+00
 ITU=  1  1  1  0
     Eigenvalues ---    0.00137   0.00393   0.00407   0.01302   0.01395
     Eigenvalues ---    0.03405   0.03418   0.04740   0.04820   0.04956
     Eigenvalues ---    0.05456   0.05636   0.05798   0.08435   0.08517
     Eigenvalues ---    0.11281   0.11901   0.12207   0.12317   0.13370
     Eigenvalues ---    0.14084   0.16020   0.17223   0.21759   0.21889
     Eigenvalues ---    0.22049   0.22708   0.28921   0.30105   0.32799
     Eigenvalues ---    0.34026   0.34081   0.34259   0.34297   0.34320
     Eigenvalues ---    0.34418   0.34555   0.35329   0.42027   0.49194
     Eigenvalues ---    0.53385   0.53996
 En-DIIS/RFO-DIIS IScMMF=        0 using points:     4    3
 RFO step:  Lambda=-3.73529868D-05.
 DidBck=F Rises=F RFO-DIIS coefs:    1.53037   -0.53037
 Iteration  1 RMS(Cart)=  0.07917047 RMS(Int)=  0.00193468
 Iteration  2 RMS(Cart)=  0.00284027 RMS(Int)=  0.00000796
 Iteration  3 RMS(Cart)=  0.00000257 RMS(Int)=  0.00000776
 Iteration  4 RMS(Cart)=  0.00000000 RMS(Int)=  0.00000776
 Variable       Old X    -DE/DX   Delta X   Delta X   Delta X     New X
                                 (Linear)    (Quad)   (Total)
    R1        2.88497   0.00161  -0.00390   0.00543   0.00153   2.88650
    R2        2.88965   0.00074  -0.00353   0.00166  -0.00188   2.88777
    R3        2.09934  -0.00024   0.00316  -0.00187   0.00129   2.10063
    R4        2.09911  -0.00035   0.00113  -0.00137  -0.00023   2.09888
    R5        2.71395   0.00047   0.00229  -0.00042   0.00188   2.71582
    R6        2.09685  -0.00100   0.00271  -0.00451  -0.00180   2.09505
    R7        2.08757  -0.00031  -0.00037  -0.00071  -0.00109   2.08648
    R8        1.84501  -0.00030   0.00119  -0.00107   0.00012   1.84513
    R9        2.89269  -0.00013   0.00031  -0.00317  -0.00285   2.88984
   R10        2.10869  -0.00077   0.00325  -0.00359  -0.00034   2.10835
   R11        2.09170  -0.00064   0.00065  -0.00241  -0.00176   2.08993
   R12        2.73066   0.00058   0.00197   0.00009   0.00205   2.73271
   R13        2.08421  -0.00034  -0.00295   0.00030  -0.00265   2.08156
   R14        2.09040  -0.00079   0.00038  -0.00275  -0.00237   2.08804
   R15        1.83997   0.00002  -0.00114   0.00014  -0.00101   1.83896
    A1        1.97613   0.00085   0.00179   0.00354   0.00532   1.98145
    A2        1.91535   0.00002   0.00225   0.00158   0.00384   1.91919
    A3        1.90471  -0.00027   0.00081  -0.00162  -0.00081   1.90390
    A4        1.91528  -0.00057  -0.00096  -0.00528  -0.00627   1.90901
    A5        1.91735  -0.00036   0.00170  -0.00365  -0.00196   1.91539
    A6        1.82927   0.00029  -0.00615   0.00559  -0.00057   1.82869
    A7        1.94736  -0.00001   0.00090   0.00024   0.00113   1.94849
    A8        1.95914  -0.00063   0.00276  -0.00609  -0.00333   1.95581
    A9        1.96046   0.00063  -0.00094   0.00566   0.00471   1.96517
   A10        1.77459   0.00066  -0.00245   0.00634   0.00389   1.77848
   A11        1.89760  -0.00039  -0.00354  -0.00083  -0.00438   1.89323
   A12        1.91535  -0.00028   0.00306  -0.00540  -0.00234   1.91301
   A13        1.93189  -0.00020  -0.00062  -0.00283  -0.00346   1.92843
   A14        1.97320   0.00009   0.00093  -0.00090   0.00002   1.97322
   A15        1.90462  -0.00016   0.00116  -0.00279  -0.00164   1.90298
   A16        1.93480  -0.00007   0.00051  -0.00055  -0.00005   1.93474
   A17        1.88141   0.00004  -0.00222   0.00041  -0.00182   1.87959
   A18        1.91953   0.00002   0.00292   0.00070   0.00362   1.92315
   A19        1.84499   0.00008  -0.00370   0.00341  -0.00028   1.84471
   A20        1.82351   0.00154  -0.00236   0.00717   0.00481   1.82833
   A21        1.96154  -0.00064   0.00259  -0.00589  -0.00332   1.95822
   A22        1.97414  -0.00049   0.00261  -0.00405  -0.00146   1.97268
   A23        1.91045  -0.00040  -0.00377   0.00149  -0.00227   1.90818
   A24        1.87485  -0.00021  -0.00110   0.00308   0.00198   1.87683
   A25        1.91460   0.00026   0.00142  -0.00081   0.00058   1.91519
   A26        1.92680   0.00028  -0.00212   0.00072  -0.00140   1.92540
    D1       -1.38411   0.00009  -0.01458  -0.01257  -0.02714  -1.41126
    D2        2.92011  -0.00033  -0.01377  -0.01687  -0.03063   2.88947
    D3        0.75186   0.00004  -0.01922  -0.00935  -0.02857   0.72329
    D4        2.75258   0.00022  -0.01625  -0.00939  -0.02565   2.72693
    D5        0.77361  -0.00021  -0.01544  -0.01369  -0.02914   0.74448
    D6       -1.39463   0.00017  -0.02090  -0.00617  -0.02708  -1.42171
    D7        0.75720   0.00001  -0.01058  -0.01602  -0.02660   0.73060
    D8       -1.22176  -0.00042  -0.00977  -0.02032  -0.03009  -1.25185
    D9        2.89318  -0.00004  -0.01523  -0.01280  -0.02803   2.86515
   D10       -1.41047   0.00007   0.07957   0.03698   0.11656  -1.29391
   D11        2.77926   0.00007   0.08098   0.03898   0.11997   2.89922
   D12        0.75419   0.00010   0.08449   0.03681   0.12130   0.87549
   D13        0.73607   0.00027   0.08302   0.03759   0.12061   0.85668
   D14       -1.35739   0.00027   0.08444   0.03959   0.12402  -1.23337
   D15        2.90072   0.00030   0.08794   0.03742   0.12536   3.02608
   D16        2.73842   0.00010   0.07604   0.03929   0.11534   2.85376
   D17        0.64496   0.00009   0.07745   0.04129   0.11875   0.76371
   D18       -1.38011   0.00013   0.08096   0.03912   0.12009  -1.26002
   D19        0.97539   0.00017  -0.01647  -0.00550  -0.02197   0.95342
[...]
   D26       -1.31877   0.00000   0.00035   0.00007   0.00043  -1.31835
   D27        2.79421  -0.00000   0.00033   0.00006   0.00039   2.79459
   D28        2.73855   0.00000   0.00028   0.00008   0.00036   2.73892
   D29        0.69414   0.00000   0.00031   0.00009   0.00040   0.69454
   D30       -1.47607  -0.00000   0.00029   0.00007   0.00036  -1.47571
   D31        3.06952   0.00000  -0.00010  -0.00001  -0.00011   3.06942
   D32       -1.12807  -0.00000  -0.00012  -0.00002  -0.00013  -1.12821
   D33        0.95577   0.00000  -0.00010   0.00000  -0.00010   0.95567
         Item               Value     Threshold  Converged?
 Maximum Force            0.000027     0.000450     YES
 RMS     Force            0.000005     0.000300     YES
 Maximum Displacement     0.000733     0.001800     YES
 RMS     Displacement     0.000239     0.001200     YES
 Predicted change in Energy=-3.566415D-09
 Optimization completed.
    -- Stationary point found.
                           ----------------------------
                           !   Optimized Parameters   !
                           ! (Angstroms and Degrees)  !
 --------------------------                            --------------------------
 ! Name  Definition              Value          Derivative Info.                !
 --------------------------------------------------------------------------------
 ! R1    R(1,2)                  1.5284         -DE/DX =    0.0                 !
 ! R2    R(1,4)                  1.5311         -DE/DX =    0.0                 !
 ! R3    R(1,7)                  1.111          -DE/DX =    0.0                 !
 ! R4    R(1,8)                  1.1098         -DE/DX =    0.0                 !
 ! R5    R(2,3)                  1.4368         -DE/DX =    0.0                 !
 ! R6    R(2,9)                  1.1073         -DE/DX =    0.0                 !
 ! R7    R(2,10)                 1.1042         -DE/DX =    0.0                 !
 ! R8    R(3,11)                 0.9754         -DE/DX =    0.0                 !
 ! R9    R(4,5)                  1.5296         -DE/DX =    0.0                 !
 ! R10   R(4,12)                 1.1134         -DE/DX =    0.0                 !
 ! R11   R(4,13)                 1.1054         -DE/DX =    0.0                 !
 ! R12   R(5,6)                  1.4447         -DE/DX =    0.0                 !
 ! R13   R(5,14)                 1.1048         -DE/DX =    0.0                 !
 ! R14   R(5,15)                 1.1034         -DE/DX =    0.0                 !
 ! R15   R(6,16)                 0.9744         -DE/DX =    0.0                 !
 ! A1    A(2,1,4)              113.6641         -DE/DX =    0.0                 !
 ! A2    A(2,1,7)              109.8975         -DE/DX =    0.0                 !
 ! A3    A(2,1,8)              108.95           -DE/DX =    0.0                 !
 ! A4    A(4,1,7)              108.9928         -DE/DX =    0.0                 !
 ! A5    A(4,1,8)              109.67           -DE/DX =    0.0                 !
 ! A6    A(7,1,8)              105.3338         -DE/DX =    0.0                 !
 ! A7    A(1,2,3)              111.6637         -DE/DX =    0.0                 !
 ! A8    A(1,2,9)              111.913          -DE/DX =    0.0                 !
 ! A9    A(1,2,10)             112.7143         -DE/DX =    0.0                 !
 ! A10   A(3,2,9)              102.216          -DE/DX =    0.0                 !
 ! A11   A(3,2,10)             108.4188         -DE/DX =    0.0                 !
 ! A12   A(9,2,10)             109.3613         -DE/DX =    0.0                 !
 ! A13   A(2,3,11)             110.6087         -DE/DX =    0.0                 !
 ! A14   A(1,4,5)              112.8139         -DE/DX =    0.0                 !
 ! A15   A(1,4,12)             108.846          -DE/DX =    0.0                 !
 ! A16   A(1,4,13)             110.9278         -DE/DX =    0.0                 !
 ! A17   A(5,4,12)             107.9745         -DE/DX =    0.0                 !
 ! A18   A(5,4,13)             109.8799         -DE/DX =    0.0                 !
 ! A19   A(12,4,13)            106.1279         -DE/DX =    0.0                 !
 ! A20   A(4,5,6)              104.8137         -DE/DX =    0.0                 !
 ! A21   A(4,5,14)             111.8052         -DE/DX =    0.0                 !
 ! A22   A(4,5,15)             112.8888         -DE/DX =    0.0                 !
 ! A23   A(6,5,14)             108.3264         -DE/DX =    0.0                 !
 ! A24   A(6,5,15)             109.0144         -DE/DX =    0.0                 !
 ! A25   A(14,5,15)            109.7595         -DE/DX =    0.0                 !
 ! A26   A(5,6,16)             110.2268         -DE/DX =    0.0                 !
 ! D1    D(4,1,2,3)            -82.2212         -DE/DX =    0.0                 !
 ! D2    D(4,1,2,9)            163.8755         -DE/DX =    0.0                 !
 ! D3    D(4,1,2,10)            40.1115         -DE/DX =    0.0                 !
 ! D4    D(7,1,2,3)            155.3332         -DE/DX =    0.0                 !
 ! D5    D(7,1,2,9)             41.4299         -DE/DX =    0.0                 !
 ! D6    D(7,1,2,10)           -82.3342         -DE/DX =    0.0                 !
 ! D7    D(8,1,2,3)             40.3963         -DE/DX =    0.0                 !
 ! D8    D(8,1,2,9)            -73.507          -DE/DX =    0.0                 !
 ! D9    D(8,1,2,10)           162.729          -DE/DX =    0.0                 !
 ! D10   D(2,1,4,5)            -76.14           -DE/DX =    0.0                 !
 ! D11   D(2,1,4,12)           164.0368         -DE/DX =    0.0                 !
 ! D12   D(2,1,4,13)            47.6278         -DE/DX =    0.0                 !
 ! D13   D(7,1,4,5)             46.8032         -DE/DX =    0.0                 !
 ! D14   D(7,1,4,12)           -73.02           -DE/DX =    0.0                 !
 ! D15   D(7,1,4,13)           170.571          -DE/DX =    0.0                 !
 ! D16   D(8,1,4,5)            161.6398         -DE/DX =    0.0                 !
 ! D17   D(8,1,4,12)            41.8165         -DE/DX =    0.0                 !
 ! D18   D(8,1,4,13)           -74.5925         -DE/DX =    0.0                 !
 ! D19   D(1,2,3,11)            53.457          -DE/DX =    0.0                 !
 ! D20   D(9,2,3,11)           173.2497         -DE/DX =    0.0                 !
 ! D21   D(10,2,3,11)          -71.307          -DE/DX =    0.0                 !
 ! D22   D(1,4,5,6)            -78.7479         -DE/DX =    0.0                 !
 ! D23   D(1,4,5,14)           164.1156         -DE/DX =    0.0                 !
 ! D24   D(1,4,5,15)            39.7721         -DE/DX =    0.0                 !
 ! D25   D(12,4,5,6)            41.5762         -DE/DX =    0.0                 !
 ! D26   D(12,4,5,14)          -75.5602         -DE/DX =    0.0                 !
 ! D27   D(12,4,5,15)          160.0962         -DE/DX =    0.0                 !
 ! D28   D(13,4,5,6)           156.9076         -DE/DX =    0.0                 !
 ! D29   D(13,4,5,14)           39.7712         -DE/DX =    0.0                 !
 ! D30   D(13,4,5,15)          -84.5724         -DE/DX =    0.0                 !
 ! D31   D(4,5,6,16)           175.8708         -DE/DX =    0.0                 !
 ! D32   D(14,5,6,16)          -64.6339         -DE/DX =    0.0                 !
 ! D33   D(15,5,6,16)           54.7615         -DE/DX =    0.0                 !
 --------------------------------------------------------------------------------
 GradGradGradGradGradGradGradGradGradGradGradGradGradGradGradGradGradGrad

                          Input orientation:                          
 ---------------------------------------------------------------------
 Center     Atomic      Atomic             Coordinates (Angstroms)
 Number     Number       Type             X           Y           Z
 ---------------------------------------------------------------------
      1          6           0        1.886657    1.123073    1.625653
      2          6           0        1.351724    1.169094    3.056687
      3          8           0        0.617388   -0.020886    3.386962
      4          6           0        3.193412    0.338011    1.483000
      5          6           0        4.410153    1.114663    1.989007
      6          8           0        4.724593    2.041711    0.926574
      7          1           0        2.042071    2.155783    1.246696
      8          1           0        1.111689    0.681653    0.965242
      9          1           0        0.587516    1.959743    3.186964
     10          1           0        2.150817    1.305278    3.806388
     11          1           0        1.153725   -0.815831    3.208793
     12          1           0        3.357581    0.105415    0.406586
     13          1           0        3.127290   -0.636264    2.001068
     14          1           0        5.282712    0.454951    2.143968
     15          1           0        4.203260    1.682582    2.912167
     16          1           0        5.455894    2.626824    1.195474
 ---------------------------------------------------------------------
                    Distance matrix (angstroms):
                    1          2          3          4          5
     1  C    0.000000
     2  C    1.528440   0.000000
     3  O    2.453955   1.436796   0.000000
     4  C    1.531104   2.561055   3.223318   0.000000
     5  C    2.549535   3.239890   4.198668   1.529604   0.000000
     6  O    3.063737   4.083514   5.213151   2.357269   1.444665
     7  H    1.110969   2.173983   3.368731   2.164652   2.691239
     8  H    1.109762   2.160870   2.569557   2.172495   3.480727
     9  H    2.196697   1.107300   1.990926   3.510584   4.094119
    10  H    2.204220   1.104150   2.070274   2.724104   2.905823
    11  H    2.608231   2.000566   0.975366   2.910333   3.977311
    12  H    2.164571   3.489686   4.050586   1.113427   2.151870
    13  H    2.185262   2.743407   2.932405   1.105431   2.170628
    14  H    3.499746   4.098258   4.851464   2.194477   1.104804
    15  H    2.708287   2.901002   3.998213   2.206849   1.103432
    16  H    3.896893   4.736381   5.934992   3.231124   2.002474
                    6          7          8          9         10
     6  O    0.000000
     7  H    2.703962   0.000000
     8  H    3.860612   1.765754   0.000000
     9  H    4.715028   2.432859   2.616166   0.000000
    10  H    3.931919   2.699483   3.088821   1.804417   0.000000
    11  H    5.111278   3.670078   2.697730   2.832822   2.418763
    12  H    2.426592   2.576889   2.384990   4.340771   3.801921
    13  H    3.298100   3.089061   2.621543   3.820478   2.825290
    14  H    2.076380   3.768246   4.340302   5.039554   3.646294
    15  H    2.084069   2.769196   3.788165   3.636747   2.270355
    16  H    0.974406   3.446548   4.765377   5.302088   4.414396
                   11         12         13         14         15
    11  H    0.000000
    12  H    3.682124   0.000000
    13  H    2.320733   1.773554   0.000000
    14  H    4.449413   2.616639   2.420127   0.000000
    15  H    3.953444   3.079053   2.713828   1.806219   0.000000
    16  H    5.866344   3.373836   4.088902   2.376272   2.325451
                   16
    16  H    0.000000
 Stoichiometry    C4H10O2
 Framework group  C1[X(C4H10O2)]
 Deg. of freedom    42
 Full point group                 C1      NOp   1
 Largest Abelian subgroup         C1      NOp   1
 Largest concise Abelian subgroup C1      NOp   1
                         Standard orientation:                         
 ---------------------------------------------------------------------
 Center     Atomic      Atomic             Coordinates (Angstroms)
 Number     Number       Type             X           Y           Z
 ---------------------------------------------------------------------
      1          6           0       -0.481731    0.497208   -0.682074
      2          6           0       -1.536410    0.569725    0.421793
      3          8           0       -2.640067   -0.312096    0.159655
      4          6           0        0.487223   -0.678494   -0.529974
      5          6           0        1.537658   -0.444529    0.557011
      6          8           0        2.516428    0.423459   -0.055902
      7          1           0        0.099731    1.443382   -0.712212
      8          1           0       -0.992733    0.435343   -1.665242
      9          1           0       -2.030805    1.559916    0.456565
     10          1           0       -1.127242    0.329661    1.418838
     11          1           0       -2.323038   -1.220260   -0.001807
     12          1           0        1.020170   -0.832544   -1.495352
     13          1           0       -0.059954   -1.617535   -0.328042
     14          1           0        2.041005   -1.383308    0.850145
     15          1           0        1.125967    0.053107    1.451679
     16          1           0        3.195571    0.677876    0.594870
 ---------------------------------------------------------------------
 Rotational constants (GHZ):      8.7745422      1.5307694      1.5080089

 **********************************************************************

            Population analysis using the SCF density.

 **********************************************************************

 Orbital symmetries:
       Occupied  (A) (A) (A) (A) (A) (A) (A) (A) (A) (A) (A) (A)
                 (A) (A) (A) (A) (A) (A) (A)
       Virtual   (A) (A) (A) (A) (A) (A) (A) (A) (A) (A) (A) (A)
                 (A) (A) (A)
 The electronic state is 1-A.
 Alpha  occ. eigenvalues --   -1.10994  -1.09193  -1.02009  -0.92799  -0.84161
 Alpha  occ. eigenvalues --   -0.74438  -0.68002  -0.64803  -0.59729  -0.57786
 Alpha  occ. eigenvalues --   -0.54759  -0.52754  -0.49415  -0.48896  -0.45757
 Alpha  occ. eigenvalues --   -0.44138  -0.43149  -0.38974  -0.38409
 Alpha virt. eigenvalues --    0.09163   0.10121   0.13100   0.13842   0.14752
 Alpha virt. eigenvalues --    0.18603   0.19065   0.19314   0.19736   0.20187
 Alpha virt. eigenvalues --    0.20445   0.21029   0.21783   0.22759   0.23224
          Condensed to atoms (all electrons):
               1          2          3          4          5          6
     1  C    4.330429   0.000000   0.000000   0.000000   0.000000   0.000000
     2  C    0.000000   3.987752   0.000000   0.000000   0.000000   0.000000
     3  O    0.000000   0.000000   6.554881   0.000000   0.000000   0.000000
     4  C    0.000000   0.000000   0.000000   4.274619   0.000000   0.000000
     5  C    0.000000   0.000000   0.000000   0.000000   3.991587   0.000000
     6  O    0.000000   0.000000   0.000000   0.000000   0.000000   6.558355
     7  H    0.000000   0.000000   0.000000   0.000000   0.000000   0.000000
     8  H    0.000000   0.000000   0.000000   0.000000   0.000000   0.000000
     9  H    0.000000   0.000000   0.000000   0.000000   0.000000   0.000000
    10  H    0.000000   0.000000   0.000000   0.000000   0.000000   0.000000
    11  H    0.000000   0.000000   0.000000   0.000000   0.000000   0.000000
    12  H    0.000000   0.000000   0.000000   0.000000   0.000000   0.000000
    13  H    0.000000   0.000000   0.000000   0.000000   0.000000   0.000000
    14  H    0.000000   0.000000   0.000000   0.000000   0.000000   0.000000
    15  H    0.000000   0.000000   0.000000   0.000000   0.000000   0.000000
    16  H    0.000000   0.000000   0.000000   0.000000   0.000000   0.000000
               7          8          9         10         11         12
     1  C    0.000000   0.000000   0.000000   0.000000   0.000000   0.000000
     2  C    0.000000   0.000000   0.000000   0.000000   0.000000   0.000000
     3  O    0.000000   0.000000   0.000000   0.000000   0.000000   0.000000
     4  C    0.000000   0.000000   0.000000   0.000000   0.000000   0.000000
     5  C    0.000000   0.000000   0.000000   0.000000   0.000000   0.000000
     6  O    0.000000   0.000000   0.000000   0.000000   0.000000   0.000000
     7  H    0.834576   0.000000   0.000000   0.000000   0.000000   0.000000
     8  H    0.000000   0.841940   0.000000   0.000000   0.000000   0.000000
     9  H    0.000000   0.000000   0.859265   0.000000   0.000000   0.000000
    10  H    0.000000   0.000000   0.000000   0.890212   0.000000   0.000000
    11  H    0.000000   0.000000   0.000000   0.000000   0.695507   0.000000
    12  H    0.000000   0.000000   0.000000   0.000000   0.000000   0.836563
    13  H    0.000000   0.000000   0.000000   0.000000   0.000000   0.000000
    14  H    0.000000   0.000000   0.000000   0.000000   0.000000   0.000000
    15  H    0.000000   0.000000   0.000000   0.000000   0.000000   0.000000
    16  H    0.000000   0.000000   0.000000   0.000000   0.000000   0.000000
              13         14         15         16
     1  C    0.000000   0.000000   0.000000   0.000000
     2  C    0.000000   0.000000   0.000000   0.000000
     3  O    0.000000   0.000000   0.000000   0.000000
     4  C    0.000000   0.000000   0.000000   0.000000
     5  C    0.000000   0.000000   0.000000   0.000000
     6  O    0.000000   0.000000   0.000000   0.000000
     7  H    0.000000   0.000000   0.000000   0.000000
     8  H    0.000000   0.000000   0.000000   0.000000
     9  H    0.000000   0.000000   0.000000   0.000000
    10  H    0.000000   0.000000   0.000000   0.000000
    11  H    0.000000   0.000000   0.000000   0.000000
    12  H    0.000000   0.000000   0.000000   0.000000
    13  H    0.867004   0.000000   0.000000   0.000000
    14  H    0.000000   0.891440   0.000000   0.000000
    15  H    0.000000   0.000000   0.889413   0.000000
    16  H    0.000000   0.000000   0.000000   0.696456
 Mulliken charges:
               1
     1  C   -0.330429
     2  C    0.012248
     3  O   -0.554881
     4  C   -0.274619
     5  C    0.008413
     6  O   -0.558355
     7  H    0.165424
     8  H    0.158060
     9  H    0.140735
    10  H    0.109788
    11  H    0.304493
    12  H    0.163437
    13  H    0.132996
    14  H    0.108560
    15  H    0.110587
    16  H    0.303544
 Sum of Mulliken charges =   0.00000
 Mulliken charges with hydrogens summed into heavy atoms:
               1
     1  C   -0.006946
     2  C    0.262771
     3  O   -0.250388
     4  C    0.021814
     5  C    0.227560
     6  O   -0.254811
 Charge=              0.0000 electrons
 Dipole moment (field-independent basis, Debye):
    X=              1.8239    Y=             -0.9087    Z=              1.5349  Tot=              2.5511
 N-N= 1.732220258702D+02 E-N=-3.000804670064D+02  KE=-2.189416446485D+01
 1\1\GINC-GTX1080DELTA\FOpt\RPM6\ZDO\C4H10O2\MVEROT\17-Apr-2022\0\\#n P
 M6 Opt\\Optimisation de geometrie\\0,1\C,1.8866569994,1.1230728636,1.6
 256529171\C,1.3517242006,1.1690935483,3.0566869436\O,0.6173879329,-0.0
 208860851,3.3869620455\C,3.1934116818,0.3380109846,1.4830000004\C,4.41
 01525579,1.1146627503,1.9890073631\O,4.724592514,2.0417110887,0.926573
 66\H,2.0420712376,2.1557826036,1.2466961571\H,1.1116886584,0.681652959
 4,0.9652415091\H,0.5875161922,1.9597434366,3.1869644805\H,2.1508171326
 ,1.305277939,3.8063884849\H,1.1537248935,-0.8158308718,3.2087932511\H,
 3.3575808005,0.1054152544,0.4065861489\H,3.1272895882,-0.6362636997,2.
 0010676158\H,5.2827117731,0.454950819,2.143967943\H,4.2032596189,1.682
 582127,2.9121673889\H,5.4558942183,2.6268242823,1.195474091\\Version=A
 M64L-G09RevD.01\State=1-A\HF=-0.1669402\RMSD=5.561e-09\RMSF=8.269e-06\
 Dipole=0.9640872,0.0160556,0.2787116\PG=C01 [X(C4H10O2)]\\@


 ORIGINALITY CONSISTS NOT IN SAYING WHAT NO ONE HAS EVER SAID BEFORE, 
 BUT IN SAYING WHAT YOU THINK YOUR SELF.

                                    -- JAMES F. STEPHEN
 Job cpu time:       0 days  0 hours  0 minutes 10.3 seconds.
 File lengths (MBytes):  RWF=     72 Int=      0 D2E=      0 Chk=      3 Scr=      2
 Normal termination of Gaussian 09 at Sun Apr 17 23:37:10 2022.
