 Entering Gaussian System, Link 0=g09
 Input=/scratch/mverot/2-butene-Z-opt/2-butene-Z-opt.com
 Output=/scratch/mverot/2-butene-Z-opt/2-butene-Z-opt.log
 Initial command:
 /opt/g09/l1.exe "/scratch/mverot/2-butene-Z-opt/Gau-747614.inp" -scrdir="/scratch/mverot/2-butene-Z-opt/"
 Entering Link 1 = /opt/g09/l1.exe PID=    747616.
  
 Copyright (c) 1988,1990,1992,1993,1995,1998,2003,2009,2013,
            Gaussian, Inc.  All Rights Reserved.
  
 This is part of the Gaussian(R) 09 program.  It is based on
 the Gaussian(R) 03 system (copyright 2003, Gaussian, Inc.),
 the Gaussian(R) 98 system (copyright 1998, Gaussian, Inc.),
 the Gaussian(R) 94 system (copyright 1995, Gaussian, Inc.),
 the Gaussian 92(TM) system (copyright 1992, Gaussian, Inc.),
 the Gaussian 90(TM) system (copyright 1990, Gaussian, Inc.),
 the Gaussian 88(TM) system (copyright 1988, Gaussian, Inc.),
 the Gaussian 86(TM) system (copyright 1986, Carnegie Mellon
 University), and the Gaussian 82(TM) system (copyright 1983,
 Carnegie Mellon University). Gaussian is a federally registered
 trademark of Gaussian, Inc.
  
 This software contains proprietary and confidential information,
 including trade secrets, belonging to Gaussian, Inc.
  
 This software is provided under written license and may be
 used, copied, transmitted, or stored only in accord with that
 written license.
  
 The following legend is applicable only to US Government
 contracts under FAR:
  
                    RESTRICTED RIGHTS LEGEND
  
 Use, reproduction and disclosure by the US Government is
 subject to restrictions as set forth in subparagraphs (a)
 and (c) of the Commercial Computer Software - Restricted
 Rights clause in FAR 52.227-19.
  
 Gaussian, Inc.
 340 Quinnipiac St., Bldg. 40, Wallingford CT 06492
  
  
 ---------------------------------------------------------------
 Warning -- This program may not be used in any manner that
 competes with the business of Gaussian, Inc. or will provide
 assistance to any competitor of Gaussian, Inc.  The licensee
 of this program is prohibited from giving any competitor of
 Gaussian, Inc. access to this program.  By using this program,
 the user acknowledges that Gaussian, Inc. is engaged in the
 business of creating and licensing software in the field of
 computational chemistry and represents and warrants to the
 licensee that it is not a competitor of Gaussian, Inc. and that
 it will not use this program in any manner prohibited above.
 ---------------------------------------------------------------
  

 Cite this work as:
 Gaussian 09, Revision D.01,
 M. J. Frisch, G. W. Trucks, H. B. Schlegel, G. E. Scuseria, 
 M. A. Robb, J. R. Cheeseman, G. Scalmani, V. Barone, B. Mennucci, 
 G. A. Petersson, H. Nakatsuji, M. Caricato, X. Li, H. P. Hratchian, 
 A. F. Izmaylov, J. Bloino, G. Zheng, J. L. Sonnenberg, M. Hada, 
 M. Ehara, K. Toyota, R. Fukuda, J. Hasegawa, M. Ishida, T. Nakajima, 
 Y. Honda, O. Kitao, H. Nakai, T. Vreven, J. A. Montgomery, Jr., 
 J. E. Peralta, F. Ogliaro, M. Bearpark, J. J. Heyd, E. Brothers, 
 K. N. Kudin, V. N. Staroverov, T. Keith, R. Kobayashi, J. Normand, 
 K. Raghavachari, A. Rendell, J. C. Burant, S. S. Iyengar, J. Tomasi, 
 M. Cossi, N. Rega, J. M. Millam, M. Klene, J. E. Knox, J. B. Cross, 
 V. Bakken, C. Adamo, J. Jaramillo, R. Gomperts, R. E. Stratmann, 
 O. Yazyev, A. J. Austin, R. Cammi, C. Pomelli, J. W. Ochterski, 
 R. L. Martin, K. Morokuma, V. G. Zakrzewski, G. A. Voth, 
 P. Salvador, J. J. Dannenberg, S. Dapprich, A. D. Daniels, 
 O. Farkas, J. B. Foresman, J. V. Ortiz, J. Cioslowski, 
 and D. J. Fox, Gaussian, Inc., Wallingford CT, 2013.
 
 ******************************************
 Gaussian 09:  AM64L-G09RevD.01 24-Apr-2013
                16-Apr-2022 
 ******************************************
 %chk=2-butene-Z-opt
 --------------------
 # hf/6-31G* opt freq
 --------------------
 1/18=20,19=15,38=1/1,3;
 2/9=110,12=2,17=6,18=5,40=1/2;
 3/5=1,6=6,7=1,11=9,16=1,25=1,30=1,71=1/1,2,3;
 4//1;
 5/5=2,38=5/2;
 6/7=2,8=2,9=2,10=2,28=1/1;
 7//1,2,3,16;
 1/18=20,19=15/3(2);
 2/9=110/2;
 99//99;
 2/9=110/2;
 3/5=1,6=6,7=1,11=9,16=1,25=1,30=1,71=1/1,2,3;
 4/5=5,16=3,69=1/1;
 5/5=2,38=5/2;
 7//1,2,3,16;
 1/18=20,19=15/3(-5);
 2/9=110/2;
 6/7=2,8=2,9=2,10=2,19=2,28=1/1;
 99/9=1/99;
 -------------------------
 Optimisation de geometrie
 -------------------------
 Symbolic Z-matrix:
 Charge =  0 Multiplicity = 1
 C                     1.1865    1.4335    0.5859 
 C                     2.4737    1.0679    0.6131 
 C                     3.6711    1.9211    0.9268 
 C                     0.6049    2.792     0.8623 
 H                     0.4539    0.6655    0.3346 
 H                     2.7025    0.0268    0.3819 
 H                     3.4083    2.9579    1.1542 
 H                     4.2224    1.5193    1.7879 
 H                     4.3751    1.9317    0.0835 
 H                    -0.1078    2.7496    1.6973 
 H                     1.3642    3.5387    1.1104 
 H                     0.0442    3.1614   -0.0072 
 

 GradGradGradGradGradGradGradGradGradGradGradGradGradGradGradGradGradGrad
 Berny optimization.
 Initialization pass.
                           ----------------------------
                           !    Initial Parameters    !
                           ! (Angstroms and Degrees)  !
 --------------------------                            --------------------------
 ! Name  Definition              Value          Derivative Info.                !
 --------------------------------------------------------------------------------
 ! R1    R(1,2)                  1.3384         estimate D2E/DX2                !
 ! R2    R(1,4)                  1.5034         estimate D2E/DX2                !
 ! R3    R(1,5)                  1.0907         estimate D2E/DX2                !
 ! R4    R(2,3)                  1.5034         estimate D2E/DX2                !
 ! R5    R(2,6)                  1.0907         estimate D2E/DX2                !
 ! R6    R(3,7)                  1.0935         estimate D2E/DX2                !
 ! R7    R(3,8)                  1.0986         estimate D2E/DX2                !
 ! R8    R(3,9)                  1.0986         estimate D2E/DX2                !
 ! R9    R(4,10)                 1.0986         estimate D2E/DX2                !
 ! R10   R(4,11)                 1.0935         estimate D2E/DX2                !
 ! R11   R(4,12)                 1.0986         estimate D2E/DX2                !
 ! A1    A(2,1,4)              127.9639         estimate D2E/DX2                !
 ! A2    A(2,1,5)              117.2786         estimate D2E/DX2                !
 ! A3    A(4,1,5)              114.7576         estimate D2E/DX2                !
 ! A4    A(1,2,3)              127.9684         estimate D2E/DX2                !
 ! A5    A(1,2,6)              117.2692         estimate D2E/DX2                !
 ! A6    A(3,2,6)              114.7624         estimate D2E/DX2                !
 ! A7    A(2,3,7)              112.9592         estimate D2E/DX2                !
 ! A8    A(2,3,8)              110.8354         estimate D2E/DX2                !
 ! A9    A(2,3,9)              110.8365         estimate D2E/DX2                !
 ! A10   A(7,3,8)              107.7212         estimate D2E/DX2                !
 ! A11   A(7,3,9)              107.7278         estimate D2E/DX2                !
 ! A12   A(8,3,9)              106.4771         estimate D2E/DX2                !
 ! A13   A(1,4,10)             110.8441         estimate D2E/DX2                !
 ! A14   A(1,4,11)             112.9636         estimate D2E/DX2                !
 ! A15   A(1,4,12)             110.8413         estimate D2E/DX2                !
 ! A16   A(10,4,11)            107.7209         estimate D2E/DX2                !
 ! A17   A(10,4,12)            106.4654         estimate D2E/DX2                !
 ! A18   A(11,4,12)            107.7206         estimate D2E/DX2                !
 ! D1    D(4,1,2,3)             -0.0135         estimate D2E/DX2                !
 ! D2    D(4,1,2,6)            179.9937         estimate D2E/DX2                !
 ! D3    D(5,1,2,3)           -179.9954         estimate D2E/DX2                !
 ! D4    D(5,1,2,6)              0.0118         estimate D2E/DX2                !
 ! D5    D(2,1,4,10)          -120.9593         estimate D2E/DX2                !
 ! D6    D(2,1,4,11)             0.042          estimate D2E/DX2                !
 ! D7    D(2,1,4,12)           121.0412         estimate D2E/DX2                !
 ! D8    D(5,1,4,10)            59.0229         estimate D2E/DX2                !
 ! D9    D(5,1,4,11)          -179.9757         estimate D2E/DX2                !
 ! D10   D(5,1,4,12)           -58.9766         estimate D2E/DX2                !
 ! D11   D(1,2,3,7)              0.023          estimate D2E/DX2                !
 ! D12   D(1,2,3,8)            121.0155         estimate D2E/DX2                !
 ! D13   D(1,2,3,9)           -120.9788         estimate D2E/DX2                !
 ! D14   D(6,2,3,7)           -179.984          estimate D2E/DX2                !
 ! D15   D(6,2,3,8)            -58.9915         estimate D2E/DX2                !
 ! D16   D(6,2,3,9)             59.0141         estimate D2E/DX2                !
 --------------------------------------------------------------------------------
 Trust Radius=3.00D-01 FncErr=1.00D-07 GrdErr=1.00D-07
 Number of steps in this run=     55 maximum allowed number of steps=    100.
 GradGradGradGradGradGradGradGradGradGradGradGradGradGradGradGradGradGrad

                          Input orientation:                          
 ---------------------------------------------------------------------
 Center     Atomic      Atomic             Coordinates (Angstroms)
 Number     Number       Type             X           Y           Z
 ---------------------------------------------------------------------
      1          6           0        1.186500    1.433500    0.585900
      2          6           0        2.473700    1.067900    0.613100
      3          6           0        3.671100    1.921100    0.926800
      4          6           0        0.604900    2.792000    0.862300
      5          1           0        0.453900    0.665500    0.334600
      6          1           0        2.702500    0.026800    0.381900
      7          1           0        3.408300    2.957900    1.154200
      8          1           0        4.222400    1.519300    1.787900
      9          1           0        4.375100    1.931700    0.083500
     10          1           0       -0.107800    2.749600    1.697300
     11          1           0        1.364200    3.538700    1.110400
     12          1           0        0.044200    3.161400   -0.007200
 ---------------------------------------------------------------------
                    Distance matrix (angstroms):
                    1          2          3          4          5
     1  C    0.000000
     2  C    1.338390   0.000000
     3  C    2.554839   1.503371   0.000000
     4  C    1.503389   2.554806   3.188136   0.000000
     5  H    1.090724   2.078240   3.503942   2.196195   0.000000
     6  H    2.078143   1.090730   2.196241   3.503861   2.338028
     7  H    2.753753   2.176779   1.093494   2.823434   3.828227
     8  H    3.266321   2.154500   1.098576   3.944972   4.128274
     9  H    3.266157   2.154518   1.098582   3.944750   4.128211
    10  H    2.154656   3.266152   3.944638   1.098619   2.552632
    11  H    2.176820   2.753752   2.823495   1.093458   3.112200
    12  H    2.154589   3.266494   3.945263   1.098577   2.552293
                    6          7          8          9         10
     6  H    0.000000
     7  H    3.112226   0.000000
     8  H    2.552350   1.770284   0.000000
     9  H    2.552504   1.770364   1.760219   0.000000
    10  H    4.128160   3.563889   4.502497   4.834222   0.000000
    11  H    3.828211   2.125463   3.564588   3.564055   1.770287
    12  H    4.128399   3.564748   4.834897   4.503008   1.760115
                   11         12
    11  H    0.000000
    12  H    1.770250   0.000000
 Stoichiometry    C4H8
 Framework group  C1[X(C4H8)]
 Deg. of freedom    30
 Full point group                 C1      NOp   1
 Largest Abelian subgroup         C1      NOp   1
 Largest concise Abelian subgroup C1      NOp   1
                         Standard orientation:                         
 ---------------------------------------------------------------------
 Center     Atomic      Atomic             Coordinates (Angstroms)
 Number     Number       Type             X           Y           Z
 ---------------------------------------------------------------------
      1          6           0        0.669184    0.663703   -0.000071
      2          6           0       -0.669205    0.663659    0.000039
      3          6           0       -1.594081   -0.521555   -0.000012
      4          6           0        1.594055   -0.521536    0.000006
      5          1           0        1.169049    1.633143    0.000070
      6          1           0       -1.168979    1.633153    0.000061
      7          1           0       -1.062705   -1.477258    0.000246
      8          1           0       -2.251481   -0.504232    0.879984
      9          1           0       -2.251193   -0.504408   -0.880235
     10          1           0        2.251016   -0.504686    0.880393
     11          1           0        1.062757   -1.477242   -0.000566
     12          1           0        2.251815   -0.504095   -0.879721
 ---------------------------------------------------------------------
 Rotational constants (GHZ):     16.3177386      5.0376751      4.0415393
 Standard basis: 6-31G(d) (6D, 7F)
 There are    76 symmetry adapted cartesian basis functions of A   symmetry.
 There are    76 symmetry adapted basis functions of A   symmetry.
    76 basis functions,   144 primitive gaussians,    76 cartesian basis functions
    16 alpha electrons       16 beta electrons
       nuclear repulsion energy       117.1680350775 Hartrees.
 NAtoms=   12 NActive=   12 NUniq=   12 SFac= 1.00D+00 NAtFMM=   60 NAOKFM=F Big=F
 Integral buffers will be    131072 words long.
 Raffenetti 1 integral format.
 Two-electron integral symmetry is turned on.
 One-electron integrals computed using PRISM.
 NBasis=    76 RedAO= T EigKep=  3.35D-03  NBF=    76
 NBsUse=    76 1.00D-06 EigRej= -1.00D+00 NBFU=    76
 ExpMin= 1.61D-01 ExpMax= 3.05D+03 ExpMxC= 4.57D+02 IAcc=1 IRadAn=         1 AccDes= 0.00D+00
 Harris functional with IExCor=  205 and IRadAn=       1 diagonalized for initial guess.
 HarFok:  IExCor=  205 AccDes= 0.00D+00 IRadAn=         1 IDoV= 1 UseB2=F ITyADJ=14
 ICtDFT=  3500011 ScaDFX=  1.000000  1.000000  1.000000  1.000000
 FoFCou: FMM=F IPFlag=           0 FMFlag=      100000 FMFlg1=           0
         NFxFlg=           0 DoJE=T BraDBF=F KetDBF=T FulRan=T
         wScrn=  0.000000 ICntrl=     500 IOpCl=  0 I1Cent=   200000004 NGrid=           0
         NMat0=    1 NMatS0=      1 NMatT0=    0 NMatD0=    1 NMtDS0=    0 NMtDT0=    0
 Petite list used in FoFCou.
 Keep R1 ints in memory in canonical form, NReq=5181872.
 Requested convergence on RMS density matrix=1.00D-08 within 128 cycles.
 Requested convergence on MAX density matrix=1.00D-06.
 Requested convergence on             energy=1.00D-06.
 No special actions if energy rises.
 SCF Done:  E(RHF) =  -156.106777234     A.U. after   10 cycles
            NFock= 10  Conv=0.91D-08     -V/T= 2.0017

 **********************************************************************

            Population analysis using the SCF density.

 **********************************************************************

 Orbital symmetries:
       Occupied  (A) (A) (A) (A) (A) (A) (A) (A) (A) (A) (A) (A)
                 (A) (A) (A) (A)
       Virtual   (A) (A) (A) (A) (A) (A) (A) (A) (A) (A) (A) (A)
                 (A) (A) (A) (A) (A) (A) (A) (A) (A) (A) (A) (A)
                 (A) (A) (A) (A) (A) (A) (A) (A) (A) (A) (A) (A)
                 (A) (A) (A) (A) (A) (A) (A) (A) (A) (A) (A) (A)
                 (A) (A) (A) (A) (A) (A) (A) (A) (A) (A) (A) (A)
 The electronic state is 1-A.
 Alpha  occ. eigenvalues --  -11.22503 -11.22343 -11.21931 -11.21930  -1.07114
 Alpha  occ. eigenvalues --   -0.97475  -0.88972  -0.71740  -0.64715  -0.56832
 Alpha  occ. eigenvalues --   -0.56625  -0.54947  -0.53316  -0.50927  -0.46869
 Alpha  occ. eigenvalues --   -0.33782
 Alpha virt. eigenvalues --    0.19534   0.24234   0.26495   0.28714   0.31590
 Alpha virt. eigenvalues --    0.32419   0.34158   0.34473   0.38097   0.39715
 Alpha virt. eigenvalues --    0.48591   0.64882   0.69235   0.70959   0.73003
 Alpha virt. eigenvalues --    0.83845   0.84696   0.85304   0.86461   0.90436
 Alpha virt. eigenvalues --    0.93981   0.97320   1.02613   1.08217   1.13287
 Alpha virt. eigenvalues --    1.15328   1.16830   1.16883   1.19303   1.19818
 Alpha virt. eigenvalues --    1.23293   1.27361   1.37800   1.48172   1.50287
 Alpha virt. eigenvalues --    1.63577   1.73921   1.81504   1.84914   2.04714
 Alpha virt. eigenvalues --    2.09061   2.16787   2.26459   2.31924   2.35901
 Alpha virt. eigenvalues --    2.38517   2.42538   2.61174   2.62286   2.65968
 Alpha virt. eigenvalues --    2.75225   2.84399   2.84539   2.85189   3.18005
 Alpha virt. eigenvalues --    3.36169   4.52147   4.63807   4.72679   4.91557
          Condensed to atoms (all electrons):
               1          2          3          4          5          6
     1  C    4.945207   0.688961  -0.044042   0.339000   0.393517  -0.037494
     2  C    0.688961   4.945242   0.338997  -0.044048  -0.037484   0.393514
     3  C   -0.044042   0.338997   5.093457  -0.009137   0.003327  -0.043172
     4  C    0.339000  -0.044048  -0.009137   5.093493  -0.043177   0.003328
     5  H    0.393517  -0.037484   0.003327  -0.043177   0.516240  -0.004704
     6  H   -0.037494   0.393514  -0.043172   0.003328  -0.004704   0.516258
     7  H    0.000625  -0.040837   0.393768  -0.000480   0.000043   0.003023
     8  H   -0.000550  -0.039568   0.390108   0.000254  -0.000106  -0.000840
     9  H   -0.000555  -0.039569   0.390105   0.000255  -0.000106  -0.000837
    10  H   -0.039557  -0.000557   0.000255   0.390100  -0.000835  -0.000106
    11  H   -0.040831   0.000626  -0.000480   0.393768   0.003022   0.000043
    12  H   -0.039560  -0.000547   0.000254   0.390106  -0.000841  -0.000106
               7          8          9         10         11         12
     1  C    0.000625  -0.000550  -0.000555  -0.039557  -0.040831  -0.039560
     2  C   -0.040837  -0.039568  -0.039569  -0.000557   0.000626  -0.000547
     3  C    0.393768   0.390108   0.390105   0.000255  -0.000480   0.000254
     4  C   -0.000480   0.000254   0.000255   0.390100   0.393768   0.390106
     5  H    0.000043  -0.000106  -0.000106  -0.000835   0.003022  -0.000841
     6  H    0.003023  -0.000840  -0.000837  -0.000106   0.000043  -0.000106
     7  H    0.524011  -0.025861  -0.025850  -0.000060   0.001722  -0.000059
     8  H   -0.025861   0.541779  -0.033742   0.000038  -0.000060  -0.000018
     9  H   -0.025850  -0.033742   0.541767  -0.000019  -0.000059   0.000038
    10  H   -0.000060   0.000038  -0.000019   0.541801  -0.025858  -0.033758
    11  H    0.001722  -0.000060  -0.000059  -0.025858   0.524009  -0.025861
    12  H   -0.000059  -0.000018   0.000038  -0.033758  -0.025861   0.541799
 Mulliken charges:
               1
     1  C   -0.164722
     2  C   -0.164729
     3  C   -0.513440
     4  C   -0.513463
     5  H    0.171103
     6  H    0.171092
     7  H    0.169955
     8  H    0.168565
     9  H    0.168570
    10  H    0.168555
    11  H    0.169959
    12  H    0.168554
 Sum of Mulliken charges =  -0.00000
 Mulliken charges with hydrogens summed into heavy atoms:
               1
     1  C    0.006381
     2  C    0.006363
     3  C   -0.006349
     4  C   -0.006395
 Electronic spatial extent (au):  <R**2>=            357.4094
 Charge=             -0.0000 electrons
 Dipole moment (field-independent basis, Debye):
    X=             -0.0001    Y=             -0.1408    Z=              0.0001  Tot=              0.1408
 Quadrupole moment (field-independent basis, Debye-Ang):
   XX=            -25.3120   YY=            -26.0937   ZZ=            -28.2662
   XY=             -0.0000   XZ=              0.0001   YZ=              0.0001
 Traceless Quadrupole moment (field-independent basis, Debye-Ang):
   XX=              1.2453   YY=              0.4636   ZZ=             -1.7089
   XY=             -0.0000   XZ=              0.0001   YZ=              0.0001
 Octapole moment (field-independent basis, Debye-Ang**2):
  XXX=              0.0007  YYY=              1.3201  ZZZ=              0.0007  XYY=              0.0007
  XXY=              1.5928  XXZ=             -0.0002  XZZ=             -0.0009  YZZ=             -1.2460
  YYZ=              0.0003  XYZ=             -0.0003
 Hexadecapole moment (field-independent basis, Debye-Ang**3):
 XXXX=           -329.2482 YYYY=           -114.7080 ZZZZ=            -43.2184 XXXY=             -0.0015
 XXXZ=             -0.0033 YYYX=             -0.0000 YYYZ=              0.0013 ZZZX=              0.0027
 ZZZY=             -0.0004 XXYY=            -75.4148 XXZZ=            -58.1160 YYZZ=            -29.5356
 XXYZ=             -0.0007 YYXZ=              0.0001 ZZXY=              0.0001
 N-N= 1.171680350775D+02 E-N=-5.969454252172D+02  KE= 1.558362350599D+02
 Calling FoFJK, ICntrl=      2127 FMM=F ISym2X=0 I1Cent= 0 IOpClX= 0 NMat=1 NMatS=1 NMatT=0.
 ***** Axes restored to original set *****
 -------------------------------------------------------------------
 Center     Atomic                   Forces (Hartrees/Bohr)
 Number     Number              X              Y              Z
 -------------------------------------------------------------------
      1        6           0.013959731   -0.011020196   -0.001378760
      2        6          -0.017637094   -0.002084014   -0.002103813
      3        6           0.007305610    0.005017735    0.001876504
      4        6          -0.003694465    0.008139170    0.001645498
      5        1           0.006174862    0.005898994    0.001971472
      6        1          -0.002208377    0.008287580    0.001807266
      7        1           0.002284473   -0.007831058   -0.001697998
      8        1          -0.004461271    0.002543923   -0.005863926
      9        1          -0.005486739   -0.000207787    0.005540562
     10        1           0.005380622   -0.000262801   -0.005670110
     11        1          -0.005966662   -0.005474133   -0.001853976
     12        1           0.004349311   -0.003007413    0.005727281
 -------------------------------------------------------------------
 Cartesian Forces:  Max     0.017637094 RMS     0.006097224

 GradGradGradGradGradGradGradGradGradGradGradGradGradGradGradGradGradGrad
 Berny optimization.
 FormGI is forming the generalized inverse of G from B-inverse, IUseBI=4.
 Internal  Forces:  Max     0.021003886 RMS     0.004687677
 Search for a local minimum.
 Step number   1 out of a maximum of   55
 All quantities printed in internal units (Hartrees-Bohrs-Radians)
 Mixed Optimization -- RFO/linear search
 Second derivative matrix not updated -- first step.
 ITU=  0
     Eigenvalues ---    0.00721   0.00721   0.01617   0.01617   0.02904
     Eigenvalues ---    0.06931   0.06932   0.07264   0.07265   0.16000
     Eigenvalues ---    0.16000   0.16000   0.16000   0.16000   0.16000
     Eigenvalues ---    0.16000   0.16000   0.22000   0.22000   0.32024
     Eigenvalues ---    0.32026   0.33835   0.33839   0.33840   0.33840
     Eigenvalues ---    0.34412   0.34416   0.34728   0.34729   0.57567
 RFO step:  Lambda=-2.38311690D-03 EMin= 7.21120612D-03
 Linear search not attempted -- first point.
 Iteration  1 RMS(Cart)=  0.01650658 RMS(Int)=  0.00007104
 Iteration  2 RMS(Cart)=  0.00011160 RMS(Int)=  0.00000435
 Iteration  3 RMS(Cart)=  0.00000001 RMS(Int)=  0.00000435
 Variable       Old X    -DE/DX   Delta X   Delta X   Delta X     New X
                                 (Linear)    (Quad)   (Total)
    R1        2.52919  -0.02100   0.00000  -0.03634  -0.03634   2.49285
    R2        2.84099  -0.00060   0.00000  -0.00186  -0.00186   2.83913
    R3        2.06117  -0.00876   0.00000  -0.02504  -0.02504   2.03613
    R4        2.84096  -0.00059   0.00000  -0.00182  -0.00182   2.83914
    R5        2.06118  -0.00876   0.00000  -0.02504  -0.02504   2.03614
    R6        2.06640  -0.00833   0.00000  -0.02403  -0.02403   2.04237
    R7        2.07601  -0.00777   0.00000  -0.02279  -0.02279   2.05322
    R8        2.07602  -0.00777   0.00000  -0.02280  -0.02280   2.05322
    R9        2.07609  -0.00779   0.00000  -0.02286  -0.02286   2.05323
   R10        2.06634  -0.00830   0.00000  -0.02396  -0.02396   2.04238
   R11        2.07601  -0.00776   0.00000  -0.02278  -0.02278   2.05323
    A1        2.23339   0.00165   0.00000   0.00740   0.00740   2.24079
    A2        2.04690  -0.00123   0.00000  -0.00623  -0.00623   2.04066
    A3        2.00290  -0.00041   0.00000  -0.00117  -0.00117   2.00173
    A4        2.23347   0.00163   0.00000   0.00735   0.00735   2.24082
    A5        2.04673  -0.00121   0.00000  -0.00609  -0.00609   2.04064
    A6        2.00298  -0.00042   0.00000  -0.00125  -0.00125   2.00173
    A7        1.97151   0.00069   0.00000   0.00432   0.00433   1.97584
    A8        1.93444  -0.00081   0.00000  -0.00499  -0.00499   1.92945
    A9        1.93446  -0.00081   0.00000  -0.00500  -0.00500   1.92946
   A10        1.88009   0.00009   0.00000   0.00061   0.00061   1.88070
   A11        1.88020   0.00008   0.00000   0.00051   0.00052   1.88072
   A12        1.85838   0.00081   0.00000   0.00487   0.00486   1.86324
   A13        1.93459  -0.00083   0.00000  -0.00514  -0.00514   1.92945
   A14        1.97159   0.00069   0.00000   0.00427   0.00427   1.97586
   A15        1.93455  -0.00082   0.00000  -0.00508  -0.00508   1.92947
   A16        1.88008   0.00010   0.00000   0.00062   0.00063   1.88071
   A17        1.85817   0.00083   0.00000   0.00506   0.00505   1.86322
   A18        1.88008   0.00009   0.00000   0.00062   0.00063   1.88071
    D1       -0.00024   0.00000   0.00000   0.00022   0.00021  -0.00002
    D2        3.14148   0.00000   0.00000   0.00013   0.00013  -3.14157
    D3       -3.14151  -0.00000   0.00000  -0.00013  -0.00013   3.14154
    D4        0.00021  -0.00000   0.00000  -0.00021  -0.00021  -0.00001
    D5       -2.11114  -0.00001   0.00000  -0.00030  -0.00030  -2.11143
    D6        0.00073  -0.00000   0.00000  -0.00023  -0.00023   0.00050
    D7        2.11257   0.00000   0.00000  -0.00012  -0.00013   2.11244
    D8        1.03014  -0.00000   0.00000   0.00003   0.00004   1.03019
    D9       -3.14117   0.00000   0.00000   0.00010   0.00010  -3.14107
   D10       -1.02934   0.00001   0.00000   0.00022   0.00021  -1.02913
   D11        0.00040  -0.00000   0.00000  -0.00012  -0.00012   0.00028
   D12        2.11212   0.00001   0.00000   0.00008   0.00007   2.11219
   D13       -2.11148  -0.00001   0.00000  -0.00019  -0.00018  -2.11166
   D14       -3.14131  -0.00000   0.00000  -0.00003  -0.00003  -3.14135
   D15       -1.02960   0.00001   0.00000   0.00016   0.00016  -1.02944
   D16        1.02999  -0.00001   0.00000  -0.00011  -0.00010   1.02989
         Item               Value     Threshold  Converged?
 Maximum Force            0.021004     0.000450     NO 
 RMS     Force            0.004688     0.000300     NO 
 Maximum Displacement     0.047266     0.001800     NO 
 RMS     Displacement     0.016494     0.001200     NO 
 Predicted change in Energy=-1.198935D-03
 GradGradGradGradGradGradGradGradGradGradGradGradGradGradGradGradGradGrad

                          Input orientation:                          
 ---------------------------------------------------------------------
 Center     Atomic      Atomic             Coordinates (Angstroms)
 Number     Number       Type             X           Y           Z
 ---------------------------------------------------------------------
      1          6           0        1.197670    1.437929    0.588095
      2          6           0        2.466376    1.077567    0.614789
      3          6           0        3.669611    1.921451    0.926754
      4          6           0        0.606312    2.791555    0.862329
      5          1           0        0.478912    0.674826    0.339076
      6          1           0        2.685967    0.047921    0.385516
      7          1           0        3.422119    2.948843    1.153230
      8          1           0        4.209954    1.515510    1.777495
      9          1           0        4.361189    1.924180    0.088764
     10          1           0       -0.098792    2.739676    1.687353
     11          1           0        1.347767    3.538245    1.108876
     12          1           0        0.051914    3.147696   -0.001577
 ---------------------------------------------------------------------
                    Distance matrix (angstroms):
                    1          2          3          4          5
     1  C    0.000000
     2  C    1.319162   0.000000
     3  C    2.541451   1.502410   0.000000
     4  C    1.502403   2.541431   3.185127   0.000000
     5  H    1.077474   2.046517   3.475629   2.184163   0.000000
     6  H    2.046506   1.077478   2.184173   3.475607   2.294833
     7  H    2.747801   2.169110   1.080777   2.835160   3.807423
     8  H    3.239528   2.140967   1.086517   3.930910   4.086132
     9  H    3.239386   2.140974   1.086515   3.930629   4.086027
    10  H    2.140964   3.239303   3.930504   1.086521   2.532824
    11  H    2.169117   2.747789   2.835163   1.080781   3.089769
    12  H    2.140975   3.239594   3.931057   1.086521   2.532481
                    6          7          8          9         10
     6  H    0.000000
     7  H    3.089766   0.000000
     8  H    2.532580   1.750667   0.000000
     9  H    2.532742   1.750678   1.744046   0.000000
    10  H    4.085977   3.567331   4.480178   4.807489   0.000000
    11  H    3.807413   2.156919   3.568000   3.567429   1.750680
    12  H    4.086158   3.568109   4.808162   4.480514   1.744041
                   11         12
    11  H    0.000000
    12  H    1.750676   0.000000
 Stoichiometry    C4H8
 Framework group  C1[X(C4H8)]
 Deg. of freedom    30
 Full point group                 C1      NOp   1
 Largest Abelian subgroup         C1      NOp   1
 Largest concise Abelian subgroup C1      NOp   1
                         Standard orientation:                         
 ---------------------------------------------------------------------
 Center     Atomic      Atomic             Coordinates (Angstroms)
 Number     Number       Type             X           Y           Z
 ---------------------------------------------------------------------
      1          6           0        0.659587    0.658468    0.000001
      2          6           0       -0.659575    0.658465    0.000010
      3          6           0       -1.592570   -0.519141   -0.000004
      4          6           0        1.592557   -0.519149   -0.000003
      5          1           0        1.147430    1.619176   -0.000032
      6          1           0       -1.147402    1.619185   -0.000008
      7          1           0       -1.078468   -1.469812    0.000258
      8          1           0       -2.240347   -0.492504    0.871888
      9          1           0       -2.240001   -0.492772   -0.872158
     10          1           0        2.239831   -0.492917    0.872280
     11          1           0        1.078451   -1.469823   -0.000494
     12          1           0        2.240513   -0.492392   -0.871762
 ---------------------------------------------------------------------
 Rotational constants (GHZ):     16.5654537      5.0738074      4.0762122
 Standard basis: 6-31G(d) (6D, 7F)
 There are    76 symmetry adapted cartesian basis functions of A   symmetry.
 There are    76 symmetry adapted basis functions of A   symmetry.
    76 basis functions,   144 primitive gaussians,    76 cartesian basis functions
    16 alpha electrons       16 beta electrons
       nuclear repulsion energy       117.9467825523 Hartrees.
 NAtoms=   12 NActive=   12 NUniq=   12 SFac= 1.00D+00 NAtFMM=   60 NAOKFM=F Big=F
 Integral buffers will be    131072 words long.
 Raffenetti 1 integral format.
 Two-electron integral symmetry is turned on.
 One-electron integrals computed using PRISM.
 NBasis=    76 RedAO= T EigKep=  3.19D-03  NBF=    76
 NBsUse=    76 1.00D-06 EigRej= -1.00D+00 NBFU=    76
 Initial guess from the checkpoint file:  "2-butene-Z-opt.chk"
 B after Tr=    -0.000000    0.000000   -0.000000
         Rot=    1.000000    0.000006   -0.000000    0.000003 Ang=   0.00 deg.
 ExpMin= 1.61D-01 ExpMax= 3.05D+03 ExpMxC= 4.57D+02 IAcc=1 IRadAn=         1 AccDes= 0.00D+00
 Harris functional with IExCor=  205 and IRadAn=       1 diagonalized for initial guess.
 HarFok:  IExCor=  205 AccDes= 0.00D+00 IRadAn=         1 IDoV= 1 UseB2=F ITyADJ=14
 ICtDFT=  3500011 ScaDFX=  1.000000  1.000000  1.000000  1.000000
 FoFCou: FMM=F IPFlag=           0 FMFlag=      100000 FMFlg1=           0
         NFxFlg=           0 DoJE=T BraDBF=F KetDBF=T FulRan=T
         wScrn=  0.000000 ICntrl=     500 IOpCl=  0 I1Cent=   200000004 NGrid=           0
         NMat0=    1 NMatS0=      1 NMatT0=    0 NMatD0=    1 NMtDS0=    0 NMtDT0=    0
 Petite list used in FoFCou.
 Keep R1 ints in memory in canonical form, NReq=5181872.
 Requested convergence on RMS density matrix=1.00D-08 within 128 cycles.
 Requested convergence on MAX density matrix=1.00D-06.
 Requested convergence on             energy=1.00D-06.
 No special actions if energy rises.
 SCF Done:  E(RHF) =  -156.107824259     A.U. after    9 cycles
            NFock=  9  Conv=0.36D-08     -V/T= 2.0004
 Calling FoFJK, ICntrl=      2127 FMM=F ISym2X=0 I1Cent= 0 IOpClX= 0 NMat=1 NMatS=1 NMatT=0.
 ***** Axes restored to original set *****
 -------------------------------------------------------------------
 Center     Atomic                   Forces (Hartrees/Bohr)
 Number     Number              X              Y              Z
 -------------------------------------------------------------------
      1        6          -0.002397903    0.000798310   -0.000027473
      2        6           0.002460688   -0.000590112    0.000074677
      3        6           0.001308321   -0.000116563    0.000093480
      4        6          -0.001185055    0.000597005    0.000040635
      5        1          -0.001234192   -0.000359008   -0.000194148
      6        1           0.000869620   -0.000953121   -0.000151940
      7        1          -0.000587200    0.000827213    0.000146598
      8        1           0.000104332   -0.000321213    0.000452828
      9        1           0.000193170   -0.000084797   -0.000526154
     10        1          -0.000274398   -0.000212148    0.000444693
     11        1           0.000926616    0.000393471    0.000178389
     12        1          -0.000184000    0.000020963   -0.000531587
 -------------------------------------------------------------------
 Cartesian Forces:  Max     0.002460688 RMS     0.000800035

 GradGradGradGradGradGradGradGradGradGradGradGradGradGradGradGradGradGrad
 Berny optimization.
 Using GEDIIS/GDIIS optimizer.
 FormGI is forming the generalized inverse of G from B-inverse, IUseBI=4.
 GSVD:  received Info=                   1 from GESDD.
 Internal  Forces:  Max     0.004522754 RMS     0.000826800
 Search for a local minimum.
 Step number   2 out of a maximum of   55
 All quantities printed in internal units (Hartrees-Bohrs-Radians)
 Mixed Optimization -- En-DIIS/RFO-DIIS
 Update second derivatives using D2CorX and points    1    2
 DE= -1.05D-03 DEPred=-1.20D-03 R= 8.73D-01
 TightC=F SS=  1.41D+00  RLast= 7.87D-02 DXNew= 5.0454D-01 2.3606D-01
 Trust test= 8.73D-01 RLast= 7.87D-02 DXMaxT set to 3.00D-01
 ITU=  1  0
 Use linear search instead of GDIIS.
     Eigenvalues ---    0.00721   0.00721   0.01614   0.01614   0.02904
     Eigenvalues ---    0.06926   0.06927   0.07310   0.07311   0.15852
     Eigenvalues ---    0.16000   0.16000   0.16000   0.16000   0.16000
     Eigenvalues ---    0.16000   0.16123   0.21992   0.22000   0.31726
     Eigenvalues ---    0.32025   0.33835   0.33839   0.33840   0.33840
     Eigenvalues ---    0.34414   0.34532   0.34729   0.36114   0.63800
 RFO step:  Lambda=-2.45901601D-05 EMin= 7.21120511D-03
 Quartic linear search produced a step of -0.11581.
 Iteration  1 RMS(Cart)=  0.00294548 RMS(Int)=  0.00000415
 Iteration  2 RMS(Cart)=  0.00000453 RMS(Int)=  0.00000108
 Iteration  3 RMS(Cart)=  0.00000000 RMS(Int)=  0.00000108
 Variable       Old X    -DE/DX   Delta X   Delta X   Delta X     New X
                                 (Linear)    (Quad)   (Total)
    R1        2.49285   0.00452   0.00421   0.00224   0.00645   2.49930
    R2        2.83913   0.00103   0.00022   0.00259   0.00280   2.84193
    R3        2.03613   0.00112   0.00290  -0.00044   0.00246   2.03859
    R4        2.83914   0.00102   0.00021   0.00258   0.00279   2.84193
    R5        2.03614   0.00112   0.00290  -0.00045   0.00245   2.03859
    R6        2.04237   0.00095   0.00278  -0.00072   0.00206   2.04443
    R7        2.05322   0.00053   0.00264  -0.00163   0.00101   2.05423
    R8        2.05322   0.00053   0.00264  -0.00163   0.00101   2.05423
    R9        2.05323   0.00053   0.00265  -0.00164   0.00100   2.05423
   R10        2.04238   0.00095   0.00277  -0.00072   0.00205   2.04443
   R11        2.05323   0.00052   0.00264  -0.00164   0.00100   2.05423
    A1        2.24079  -0.00007  -0.00086   0.00071  -0.00014   2.24065
    A2        2.04066   0.00070   0.00072   0.00298   0.00370   2.04437
    A3        2.00173  -0.00063   0.00014  -0.00369  -0.00356   1.99817
    A4        2.24082  -0.00008  -0.00085   0.00069  -0.00016   2.24065
    A5        2.04064   0.00071   0.00071   0.00302   0.00373   2.04437
    A6        2.00173  -0.00063   0.00015  -0.00371  -0.00356   1.99817
    A7        1.97584  -0.00047  -0.00050  -0.00225  -0.00275   1.97309
    A8        1.92945  -0.00014   0.00058  -0.00132  -0.00074   1.92871
    A9        1.92946  -0.00014   0.00058  -0.00132  -0.00075   1.92872
   A10        1.88070   0.00029  -0.00007   0.00143   0.00136   1.88206
   A11        1.88072   0.00028  -0.00006   0.00141   0.00135   1.88207
   A12        1.86324   0.00023  -0.00056   0.00244   0.00188   1.86511
   A13        1.92945  -0.00013   0.00060  -0.00132  -0.00073   1.92872
   A14        1.97586  -0.00047  -0.00049  -0.00227  -0.00277   1.97309
   A15        1.92947  -0.00014   0.00059  -0.00135  -0.00076   1.92871
   A16        1.88071   0.00028  -0.00007   0.00143   0.00136   1.88207
   A17        1.86322   0.00023  -0.00058   0.00248   0.00190   1.86511
   A18        1.88071   0.00029  -0.00007   0.00143   0.00136   1.88206
    D1       -0.00002   0.00000  -0.00002   0.00005   0.00003   0.00000
    D2       -3.14157  -0.00000  -0.00002  -0.00002  -0.00004   3.14157
    D3        3.14154   0.00000   0.00001   0.00004   0.00005  -3.14159
    D4       -0.00001   0.00000   0.00002  -0.00003  -0.00001  -0.00002
    D5       -2.11143   0.00006   0.00003   0.00058   0.00062  -2.11082
    D6        0.00050   0.00000   0.00003  -0.00011  -0.00008   0.00042
    D7        2.11244  -0.00006   0.00001  -0.00082  -0.00080   2.11164
    D8        1.03019   0.00006  -0.00000   0.00059   0.00059   1.03077
    D9       -3.14107  -0.00000  -0.00001  -0.00010  -0.00011  -3.14117
   D10       -1.02913  -0.00006  -0.00002  -0.00081  -0.00083  -1.02996
   D11        0.00028  -0.00000   0.00001  -0.00010  -0.00009   0.00020
   D12        2.11219  -0.00006  -0.00001  -0.00077  -0.00078   2.11142
   D13       -2.11166   0.00006   0.00002   0.00060   0.00062  -2.11104
   D14       -3.14135  -0.00000   0.00000  -0.00003  -0.00002  -3.14137
   D15       -1.02944  -0.00006  -0.00002  -0.00070  -0.00071  -1.03015
   D16        1.02989   0.00006   0.00001   0.00067   0.00068   1.03057
         Item               Value     Threshold  Converged?
 Maximum Force            0.004523     0.000450     NO 
 RMS     Force            0.000827     0.000300     NO 
 Maximum Displacement     0.010726     0.001800     NO 
 RMS     Displacement     0.002946     0.001200     NO 
 Predicted change in Energy=-3.148531D-05
 GradGradGradGradGradGradGradGradGradGradGradGradGradGradGradGradGradGrad

                          Input orientation:                          
 ---------------------------------------------------------------------
 Center     Atomic      Atomic             Coordinates (Angstroms)
 Number     Number       Type             X           Y           Z
 ---------------------------------------------------------------------
      1          6           0        1.195820    1.437636    0.587857
      2          6           0        2.467808    1.076342    0.614592
      3          6           0        3.672083    1.921241    0.926907
      4          6           0        0.604083    2.792677    0.862419
      5          1           0        0.473236    0.676274    0.338954
      6          1           0        2.691573    0.046174    0.385595
      7          1           0        3.421292    2.949035    1.153131
      8          1           0        4.211759    1.515021    1.778619
      9          1           0        4.363230    1.924115    0.087869
     10          1           0       -0.100724    2.740203    1.688360
     11          1           0        1.348556    3.537935    1.108961
     12          1           0        0.050284    3.148746   -0.002565
 ---------------------------------------------------------------------
                    Distance matrix (angstroms):
                    1          2          3          4          5
     1  C    0.000000
     2  C    1.322574   0.000000
     3  C    2.545723   1.503886   0.000000
     4  C    1.503886   2.545722   3.190013   0.000000
     5  H    1.078774   2.052888   3.482564   2.184102   0.000000
     6  H    2.052889   1.078775   2.184100   3.482564   2.306560
     7  H    2.748925   2.169363   1.081866   2.836482   3.810428
     8  H    3.243423   2.142140   1.087050   3.935372   4.093004
     9  H    3.243322   2.142144   1.087050   3.935165   4.092946
    10  H    2.142151   3.243265   3.935045   1.087052   2.531824
    11  H    2.169363   2.748921   2.836480   1.081866   3.090017
    12  H    2.142136   3.243481   3.935494   1.087049   2.531530
                    6          7          8          9         10
     6  H    0.000000
     7  H    3.090017   0.000000
     8  H    2.531599   1.752846   0.000000
     9  H    2.531747   1.752853   1.746120   0.000000
    10  H    4.092909   3.568567   4.484052   4.811908   0.000000
    11  H    3.810426   2.155223   3.569111   3.568656   1.752853
    12  H    4.093046   3.569203   4.812437   4.484351   1.746121
                   11         12
    11  H    0.000000
    12  H    1.752846   0.000000
 Stoichiometry    C4H8
 Framework group  C1[X(C4H8)]
 Deg. of freedom    30
 Full point group                 C1      NOp   1
 Largest Abelian subgroup         C1      NOp   1
 Largest concise Abelian subgroup C1      NOp   1
                         Standard orientation:                         
 ---------------------------------------------------------------------
 Center     Atomic      Atomic             Coordinates (Angstroms)
 Number     Number       Type             X           Y           Z
 ---------------------------------------------------------------------
      1          6           0        0.661288    0.659181   -0.000002
      2          6           0       -0.661287    0.659180   -0.000003
      3          6           0       -1.595007   -0.519735    0.000001
      4          6           0        1.595006   -0.519735   -0.000001
      5          1           0        1.153279    1.619232    0.000001
      6          1           0       -1.153281    1.619230    0.000015
      7          1           0       -1.077613   -1.469860    0.000200
      8          1           0       -2.242228   -0.492912    0.872962
      9          1           0       -2.241973   -0.493129   -0.873158
     10          1           0        2.241824   -0.493254    0.873275
     11          1           0        1.077610   -1.469859   -0.000421
     12          1           0        2.242378   -0.492792   -0.872846
 ---------------------------------------------------------------------
 Rotational constants (GHZ):     16.5402007      5.0582352      4.0651099
 Standard basis: 6-31G(d) (6D, 7F)
 There are    76 symmetry adapted cartesian basis functions of A   symmetry.
 There are    76 symmetry adapted basis functions of A   symmetry.
    76 basis functions,   144 primitive gaussians,    76 cartesian basis functions
    16 alpha electrons       16 beta electrons
       nuclear repulsion energy       117.7996841934 Hartrees.
 NAtoms=   12 NActive=   12 NUniq=   12 SFac= 1.00D+00 NAtFMM=   60 NAOKFM=F Big=F
 Integral buffers will be    131072 words long.
 Raffenetti 1 integral format.
 Two-electron integral symmetry is turned on.
 One-electron integrals computed using PRISM.
 NBasis=    76 RedAO= T EigKep=  3.22D-03  NBF=    76
 NBsUse=    76 1.00D-06 EigRej= -1.00D+00 NBFU=    76
 Initial guess from the checkpoint file:  "2-butene-Z-opt.chk"
 B after Tr=    -0.000000    0.000000    0.000000
         Rot=    1.000000    0.000000   -0.000003   -0.000002 Ang=   0.00 deg.
 Keep R1 ints in memory in canonical form, NReq=5181872.
 Requested convergence on RMS density matrix=1.00D-08 within 128 cycles.
 Requested convergence on MAX density matrix=1.00D-06.
 Requested convergence on             energy=1.00D-06.
 No special actions if energy rises.
 SCF Done:  E(RHF) =  -156.107854948     A.U. after    8 cycles
            NFock=  8  Conv=0.35D-08     -V/T= 2.0006
 Calling FoFJK, ICntrl=      2127 FMM=F ISym2X=0 I1Cent= 0 IOpClX= 0 NMat=1 NMatS=1 NMatT=0.
 ***** Axes restored to original set *****
 -------------------------------------------------------------------
 Center     Atomic                   Forces (Hartrees/Bohr)
 Number     Number              X              Y              Z
 -------------------------------------------------------------------
      1        6           0.000629916   -0.000296253   -0.000015983
      2        6          -0.000690103    0.000077431   -0.000041006
      3        6           0.000176667    0.000187205    0.000060620
      4        6          -0.000054926    0.000253409    0.000056280
      5        1          -0.000079427   -0.000091827   -0.000027842
      6        1           0.000020201   -0.000118972   -0.000028583
      7        1          -0.000061656    0.000133150    0.000026280
      8        1          -0.000022271   -0.000077813    0.000072596
      9        1          -0.000005671   -0.000035462   -0.000102394
     10        1          -0.000024989   -0.000077275    0.000071613
     11        1           0.000121248    0.000080799    0.000030998
     12        1          -0.000008990   -0.000034394   -0.000102579
 -------------------------------------------------------------------
 Cartesian Forces:  Max     0.000690103 RMS     0.000184953

 GradGradGradGradGradGradGradGradGradGradGradGradGradGradGradGradGradGrad
 Berny optimization.
 Using GEDIIS/GDIIS optimizer.
 FormGI is forming the generalized inverse of G from B-inverse, IUseBI=4.
 GSVD:  received Info=                   1 from GESDD.
 Internal  Forces:  Max     0.000606014 RMS     0.000122895
 Search for a local minimum.
 Step number   3 out of a maximum of   55
 All quantities printed in internal units (Hartrees-Bohrs-Radians)
 Mixed Optimization -- En-DIIS/RFO-DIIS
 Swapping is turned off.
 Update second derivatives using D2CorX and points    1    2    3
 DE= -3.07D-05 DEPred=-3.15D-05 R= 9.75D-01
 TightC=F SS=  1.41D+00  RLast= 1.31D-02 DXNew= 5.0454D-01 3.9201D-02
 Trust test= 9.75D-01 RLast= 1.31D-02 DXMaxT set to 3.00D-01
 ITU=  1  1  0
     Eigenvalues ---    0.00721   0.00721   0.01618   0.01618   0.02904
     Eigenvalues ---    0.06951   0.06952   0.07318   0.07319   0.14816
     Eigenvalues ---    0.16000   0.16000   0.16000   0.16000   0.16000
     Eigenvalues ---    0.16000   0.16440   0.22000   0.22016   0.30846
     Eigenvalues ---    0.32025   0.33768   0.33836   0.33840   0.33840
     Eigenvalues ---    0.34406   0.34414   0.34729   0.34892   0.73238
 En-DIIS/RFO-DIIS IScMMF=        0 using points:     3    2
 RFO step:  Lambda=-1.07560647D-06.
 DidBck=F Rises=F RFO-DIIS coefs:    0.99316    0.00684
 Iteration  1 RMS(Cart)=  0.00110289 RMS(Int)=  0.00000030
 Iteration  2 RMS(Cart)=  0.00000053 RMS(Int)=  0.00000005
 Variable       Old X    -DE/DX   Delta X   Delta X   Delta X     New X
                                 (Linear)    (Quad)   (Total)
    R1        2.49930  -0.00061  -0.00004  -0.00081  -0.00085   2.49845
    R2        2.84193   0.00020  -0.00002   0.00073   0.00071   2.84264
    R3        2.03859   0.00012  -0.00002   0.00044   0.00042   2.03901
    R4        2.84193   0.00020  -0.00002   0.00073   0.00071   2.84264
    R5        2.03859   0.00012  -0.00002   0.00044   0.00042   2.03901
    R6        2.04443   0.00015  -0.00001   0.00049   0.00047   2.04490
    R7        2.05423   0.00007  -0.00001   0.00024   0.00024   2.05446
    R8        2.05423   0.00008  -0.00001   0.00025   0.00024   2.05447
    R9        2.05423   0.00007  -0.00001   0.00024   0.00024   2.05447
   R10        2.04443   0.00015  -0.00001   0.00049   0.00047   2.04490
   R11        2.05423   0.00007  -0.00001   0.00024   0.00024   2.05446
    A1        2.24065  -0.00017   0.00000  -0.00075  -0.00075   2.23990
    A2        2.04437   0.00008  -0.00003   0.00048   0.00046   2.04482
    A3        1.99817   0.00009   0.00002   0.00026   0.00029   1.99846
    A4        2.24065  -0.00017   0.00000  -0.00075  -0.00075   2.23990
    A5        2.04437   0.00008  -0.00003   0.00048   0.00046   2.04483
    A6        1.99817   0.00009   0.00002   0.00026   0.00029   1.99846
    A7        1.97309  -0.00000   0.00002  -0.00012  -0.00010   1.97298
    A8        1.92871  -0.00009   0.00001  -0.00058  -0.00058   1.92814
    A9        1.92872  -0.00009   0.00001  -0.00057  -0.00057   1.92815
   A10        1.88206   0.00005  -0.00001   0.00038   0.00037   1.88244
   A11        1.88207   0.00005  -0.00001   0.00038   0.00037   1.88244
   A12        1.86511   0.00009  -0.00001   0.00059   0.00058   1.86569
   A13        1.92872  -0.00009   0.00000  -0.00058  -0.00058   1.92815
   A14        1.97309  -0.00000   0.00002  -0.00012  -0.00010   1.97298
   A15        1.92871  -0.00009   0.00001  -0.00058  -0.00057   1.92814
   A16        1.88207   0.00005  -0.00001   0.00038   0.00037   1.88244
   A17        1.86511   0.00009  -0.00001   0.00059   0.00058   1.86569
   A18        1.88206   0.00005  -0.00001   0.00038   0.00037   1.88244
    D1        0.00000  -0.00000  -0.00000  -0.00002  -0.00002  -0.00002
    D2        3.14157   0.00000   0.00000   0.00002   0.00002   3.14159
    D3       -3.14159   0.00000  -0.00000  -0.00000  -0.00000  -3.14159
    D4       -0.00002   0.00000   0.00000   0.00003   0.00003   0.00002
    D5       -2.11082  -0.00000  -0.00000  -0.00006  -0.00007  -2.11088
    D6        0.00042  -0.00000   0.00000  -0.00007  -0.00007   0.00035
    D7        2.11164   0.00000   0.00001  -0.00008  -0.00007   2.11157
    D8        1.03077  -0.00000  -0.00000  -0.00008  -0.00008   1.03069
    D9       -3.14117  -0.00000   0.00000  -0.00009  -0.00009  -3.14126
   D10       -1.02996   0.00000   0.00001  -0.00009  -0.00009  -1.03004
   D11        0.00020   0.00000   0.00000  -0.00002  -0.00002   0.00017
   D12        2.11142   0.00000   0.00001  -0.00003  -0.00003   2.11139
   D13       -2.11104  -0.00000  -0.00000  -0.00002  -0.00002  -2.11106
   D14       -3.14137  -0.00000   0.00000  -0.00006  -0.00006  -3.14143
   D15       -1.03015   0.00000   0.00000  -0.00007  -0.00006  -1.03022
   D16        1.03057  -0.00000  -0.00000  -0.00005  -0.00006   1.03052
         Item               Value     Threshold  Converged?
 Maximum Force            0.000606     0.000450     NO 
 RMS     Force            0.000123     0.000300     YES
 Maximum Displacement     0.003338     0.001800     NO 
 RMS     Displacement     0.001103     0.001200     YES
 Predicted change in Energy=-9.282337D-07
 GradGradGradGradGradGradGradGradGradGradGradGradGradGradGradGradGradGrad

                          Input orientation:                          
 ---------------------------------------------------------------------
 Center     Atomic      Atomic             Coordinates (Angstroms)
 Number     Number       Type             X           Y           Z
 ---------------------------------------------------------------------
      1          6           0        1.195877    1.437001    0.587718
      2          6           0        2.467431    1.075829    0.614443
      3          6           0        3.671341    1.921835    0.926970
      4          6           0        0.605021    2.792788    0.862541
      5          1           0        0.472777    0.675809    0.338825
      6          1           0        2.691725    0.045544    0.385446
      7          1           0        3.419604    2.949687    1.153081
      8          1           0        4.210796    1.515581    1.778965
      9          1           0        4.362338    1.924752    0.087644
     10          1           0       -0.099700    2.740137    1.688707
     11          1           0        1.350323    3.537572    1.109115
     12          1           0        0.051466    3.148865   -0.002755
 ---------------------------------------------------------------------
                    Distance matrix (angstroms):
                    1          2          3          4          5
     1  C    0.000000
     2  C    1.322123   0.000000
     3  C    2.545206   1.504260   0.000000
     4  C    1.504260   2.545206   3.188264   0.000000
     5  H    1.078997   2.052955   3.482715   2.184803   0.000000
     6  H    2.052956   1.078997   2.184803   3.482715   2.307193
     7  H    2.748239   2.169818   1.082117   2.833886   3.810161
     8  H    3.242681   2.142152   1.087176   3.933536   4.092921
     9  H    3.242599   2.142162   1.087177   3.933368   4.092876
    10  H    2.142163   3.242550   3.933270   1.087177   2.532067
    11  H    2.169817   2.748238   2.833885   1.082117   3.090812
    12  H    2.142151   3.242730   3.933635   1.087175   2.531834
                    6          7          8          9         10
     6  H    0.000000
     7  H    3.090812   0.000000
     8  H    2.531892   1.753390   0.000000
     9  H    2.532006   1.753396   1.746698   0.000000
    10  H    4.092845   3.565994   4.481970   4.810202   0.000000
    11  H    3.810159   2.151620   3.566434   3.566067   1.753395
    12  H    4.092954   3.566508   4.810631   4.482214   1.746698
                   11         12
    11  H    0.000000
    12  H    1.753390   0.000000
 Stoichiometry    C4H8
 Framework group  C1[X(C4H8)]
 Deg. of freedom    30
 Full point group                 C1      NOp   1
 Largest Abelian subgroup         C1      NOp   1
 Largest concise Abelian subgroup C1      NOp   1
                         Standard orientation:                         
 ---------------------------------------------------------------------
 Center     Atomic      Atomic             Coordinates (Angstroms)
 Number     Number       Type             X           Y           Z
 ---------------------------------------------------------------------
      1          6           0        0.661062    0.659720   -0.000004
      2          6           0       -0.661061    0.659720    0.000003
      3          6           0       -1.594132   -0.520186   -0.000000
      4          6           0        1.594132   -0.520186   -0.000000
      5          1           0        1.153596    1.619743    0.000003
      6          1           0       -1.153597    1.619742   -0.000001
      7          1           0       -1.075810   -1.470091    0.000162
      8          1           0       -2.241150   -0.493339    0.873268
      9          1           0       -2.240942   -0.493515   -0.873430
     10          1           0        2.240821   -0.493612    0.873523
     11          1           0        1.075810   -1.470090   -0.000339
     12          1           0        2.241272   -0.493243   -0.873175
 ---------------------------------------------------------------------
 Rotational constants (GHZ):     16.5204016      5.0631747      4.0672337
 Standard basis: 6-31G(d) (6D, 7F)
 There are    76 symmetry adapted cartesian basis functions of A   symmetry.
 There are    76 symmetry adapted basis functions of A   symmetry.
    76 basis functions,   144 primitive gaussians,    76 cartesian basis functions
    16 alpha electrons       16 beta electrons
       nuclear repulsion energy       117.8041751455 Hartrees.
 NAtoms=   12 NActive=   12 NUniq=   12 SFac= 1.00D+00 NAtFMM=   60 NAOKFM=F Big=F
 Integral buffers will be    131072 words long.
 Raffenetti 1 integral format.
 Two-electron integral symmetry is turned on.
 One-electron integrals computed using PRISM.
 NBasis=    76 RedAO= T EigKep=  3.22D-03  NBF=    76
 NBsUse=    76 1.00D-06 EigRej= -1.00D+00 NBFU=    76
 Initial guess from the checkpoint file:  "2-butene-Z-opt.chk"
 B after Tr=     0.000000   -0.000000    0.000000
         Rot=    1.000000    0.000002   -0.000002   -0.000000 Ang=   0.00 deg.
 Keep R1 ints in memory in canonical form, NReq=5181872.
 Requested convergence on RMS density matrix=1.00D-08 within 128 cycles.
 Requested convergence on MAX density matrix=1.00D-06.
 Requested convergence on             energy=1.00D-06.
 No special actions if energy rises.
 SCF Done:  E(RHF) =  -156.107855708     A.U. after    7 cycles
            NFock=  7  Conv=0.28D-08     -V/T= 2.0006
 Calling FoFJK, ICntrl=      2127 FMM=F ISym2X=0 I1Cent= 0 IOpClX= 0 NMat=1 NMatS=1 NMatT=0.
 ***** Axes restored to original set *****
 -------------------------------------------------------------------
 Center     Atomic                   Forces (Hartrees/Bohr)
 Number     Number              X              Y              Z
 -------------------------------------------------------------------
      1        6          -0.000006828   -0.000047095   -0.000010799
      2        6          -0.000018149   -0.000042851   -0.000014000
      3        6           0.000050256    0.000042715    0.000015170
      4        6          -0.000020653    0.000062943    0.000013194
      5        1           0.000014537    0.000044949    0.000012669
      6        1           0.000010691    0.000046006    0.000012183
      7        1           0.000028847   -0.000074935   -0.000015826
      8        1          -0.000009006    0.000013576   -0.000022057
      9        1          -0.000013452    0.000001918    0.000024267
     10        1           0.000015387    0.000006172   -0.000022162
     11        1          -0.000063314   -0.000048859   -0.000016945
     12        1           0.000011684   -0.000004540    0.000024305
 -------------------------------------------------------------------
 Cartesian Forces:  Max     0.000074935 RMS     0.000031215

 GradGradGradGradGradGradGradGradGradGradGradGradGradGradGradGradGradGrad
 Berny optimization.
 Using GEDIIS/GDIIS optimizer.
 FormGI is forming the generalized inverse of G from B-inverse, IUseBI=4.
 GSVD:  received Info=                   1 from GESDD.
 Internal  Forces:  Max     0.000081903 RMS     0.000032602
 Search for a local minimum.
 Step number   4 out of a maximum of   55
 All quantities printed in internal units (Hartrees-Bohrs-Radians)
 Mixed Optimization -- En-DIIS/RFO-DIIS
 Swapping is turned off.
 Update second derivatives using D2CorX and points    1    2    3    4
 DE= -7.60D-07 DEPred=-9.28D-07 R= 8.18D-01
 Trust test= 8.18D-01 RLast= 2.66D-03 DXMaxT set to 3.00D-01
 ITU=  0  1  1  0
     Eigenvalues ---    0.00721   0.00721   0.01618   0.01618   0.02904
     Eigenvalues ---    0.06955   0.06955   0.07324   0.07329   0.13874
     Eigenvalues ---    0.16000   0.16000   0.16000   0.16000   0.16000
     Eigenvalues ---    0.16082   0.16558   0.22000   0.24760   0.28816
     Eigenvalues ---    0.32025   0.33681   0.33836   0.33840   0.33840
     Eigenvalues ---    0.34414   0.34628   0.34729   0.39863   0.73888
 En-DIIS/RFO-DIIS IScMMF=        0 using points:     4    3    2
 RFO step:  Lambda=-7.96931835D-08.
 DidBck=F Rises=F RFO-DIIS coefs:    0.84588    0.15370    0.00042
 Iteration  1 RMS(Cart)=  0.00043302 RMS(Int)=  0.00000004
 Iteration  2 RMS(Cart)=  0.00000006 RMS(Int)=  0.00000001
 Variable       Old X    -DE/DX   Delta X   Delta X   Delta X     New X
                                 (Linear)    (Quad)   (Total)
    R1        2.49845   0.00005   0.00013  -0.00010   0.00002   2.49847
    R2        2.84264   0.00004  -0.00011   0.00024   0.00013   2.84277
    R3        2.03901  -0.00004  -0.00007  -0.00003  -0.00009   2.03891
    R4        2.84264   0.00004  -0.00011   0.00024   0.00013   2.84277
    R5        2.03901  -0.00004  -0.00007  -0.00003  -0.00009   2.03891
    R6        2.04490  -0.00008  -0.00007  -0.00011  -0.00018   2.04472
    R7        2.05446  -0.00003  -0.00004  -0.00002  -0.00006   2.05440
    R8        2.05447  -0.00003  -0.00004  -0.00003  -0.00006   2.05440
    R9        2.05447  -0.00003  -0.00004  -0.00003  -0.00006   2.05441
   R10        2.04490  -0.00008  -0.00007  -0.00011  -0.00018   2.04472
   R11        2.05446  -0.00003  -0.00004  -0.00002  -0.00006   2.05440
    A1        2.23990   0.00008   0.00012   0.00017   0.00028   2.24018
    A2        2.04482  -0.00002  -0.00007   0.00005  -0.00003   2.04480
    A3        1.99846  -0.00006  -0.00004  -0.00021  -0.00026   1.99820
    A4        2.23990   0.00008   0.00012   0.00017   0.00028   2.24018
    A5        2.04483  -0.00002  -0.00007   0.00005  -0.00003   2.04480
    A6        1.99846  -0.00006  -0.00004  -0.00021  -0.00025   1.99820
    A7        1.97298   0.00001   0.00002   0.00005   0.00007   1.97305
    A8        1.92814   0.00000   0.00009  -0.00010  -0.00001   1.92812
    A9        1.92815   0.00000   0.00009  -0.00010  -0.00002   1.92813
   A10        1.88244  -0.00001  -0.00006   0.00004  -0.00002   1.88242
   A11        1.88244  -0.00001  -0.00006   0.00004  -0.00002   1.88243
   A12        1.86569  -0.00001  -0.00009   0.00007  -0.00002   1.86568
   A13        1.92815   0.00000   0.00009  -0.00010  -0.00002   1.92813
   A14        1.97298   0.00001   0.00002   0.00005   0.00007   1.97305
   A15        1.92814   0.00000   0.00009  -0.00010  -0.00001   1.92812
   A16        1.88244  -0.00001  -0.00006   0.00004  -0.00002   1.88243
   A17        1.86569  -0.00001  -0.00009   0.00007  -0.00002   1.86568
   A18        1.88244  -0.00001  -0.00006   0.00004  -0.00002   1.88242
    D1       -0.00002   0.00000   0.00000   0.00000   0.00000  -0.00001
    D2        3.14159  -0.00000  -0.00000  -0.00000  -0.00001   3.14159
    D3       -3.14159  -0.00000   0.00000   0.00000   0.00000  -3.14159
    D4        0.00002  -0.00000  -0.00001  -0.00000  -0.00001   0.00001
    D5       -2.11088  -0.00000   0.00001  -0.00009  -0.00007  -2.11096
    D6        0.00035  -0.00000   0.00001  -0.00007  -0.00006   0.00029
    D7        2.11157   0.00000   0.00001  -0.00005  -0.00004   2.11153
    D8        1.03069  -0.00000   0.00001  -0.00008  -0.00007   1.03062
    D9       -3.14126  -0.00000   0.00001  -0.00007  -0.00005  -3.14131
   D10       -1.03004   0.00000   0.00001  -0.00005  -0.00003  -1.03008
   D11        0.00017  -0.00000   0.00000  -0.00004  -0.00003   0.00014
   D12        2.11139   0.00000   0.00000  -0.00002  -0.00001   2.11138
   D13       -2.11106  -0.00000   0.00000  -0.00005  -0.00005  -2.11111
   D14       -3.14143  -0.00000   0.00001  -0.00003  -0.00002  -3.14146
   D15       -1.03022   0.00000   0.00001  -0.00001  -0.00000  -1.03022
   D16        1.03052  -0.00000   0.00001  -0.00005  -0.00004   1.03048
         Item               Value     Threshold  Converged?
 Maximum Force            0.000082     0.000450     YES
 RMS     Force            0.000033     0.000300     YES
 Maximum Displacement     0.001426     0.001800     YES
 RMS     Displacement     0.000433     0.001200     YES
 Predicted change in Energy=-6.832710D-08
 Optimization completed.
    -- Stationary point found.
                           ----------------------------
                           !   Optimized Parameters   !
                           ! (Angstroms and Degrees)  !
 --------------------------                            --------------------------
 ! Name  Definition              Value          Derivative Info.                !
 --------------------------------------------------------------------------------
 ! R1    R(1,2)                  1.3221         -DE/DX =    0.0001              !
 ! R2    R(1,4)                  1.5043         -DE/DX =    0.0                 !
 ! R3    R(1,5)                  1.079          -DE/DX =    0.0                 !
 ! R4    R(2,3)                  1.5043         -DE/DX =    0.0                 !
 ! R5    R(2,6)                  1.079          -DE/DX =    0.0                 !
 ! R6    R(3,7)                  1.0821         -DE/DX =   -0.0001              !
 ! R7    R(3,8)                  1.0872         -DE/DX =    0.0                 !
 ! R8    R(3,9)                  1.0872         -DE/DX =    0.0                 !
 ! R9    R(4,10)                 1.0872         -DE/DX =    0.0                 !
 ! R10   R(4,11)                 1.0821         -DE/DX =   -0.0001              !
 ! R11   R(4,12)                 1.0872         -DE/DX =    0.0                 !
 ! A1    A(2,1,4)              128.337          -DE/DX =    0.0001              !
 ! A2    A(2,1,5)              117.1598         -DE/DX =    0.0                 !
 ! A3    A(4,1,5)              114.5032         -DE/DX =   -0.0001              !
 ! A4    A(1,2,3)              128.337          -DE/DX =    0.0001              !
 ! A5    A(1,2,6)              117.1599         -DE/DX =    0.0                 !
 ! A6    A(3,2,6)              114.5031         -DE/DX =   -0.0001              !
 ! A7    A(2,3,7)              113.0436         -DE/DX =    0.0                 !
 ! A8    A(2,3,8)              110.474          -DE/DX =    0.0                 !
 ! A9    A(2,3,9)              110.4748         -DE/DX =    0.0                 !
 ! A10   A(7,3,8)              107.8557         -DE/DX =    0.0                 !
 ! A11   A(7,3,9)              107.8561         -DE/DX =    0.0                 !
 ! A12   A(8,3,9)              106.8964         -DE/DX =    0.0                 !
 ! A13   A(1,4,10)             110.4748         -DE/DX =    0.0                 !
 ! A14   A(1,4,11)             113.0436         -DE/DX =    0.0                 !
 ! A15   A(1,4,12)             110.474          -DE/DX =    0.0                 !
 ! A16   A(10,4,11)            107.856          -DE/DX =    0.0                 !
 ! A17   A(10,4,12)            106.8964         -DE/DX =    0.0                 !
 ! A18   A(11,4,12)            107.8557         -DE/DX =    0.0                 !
 ! D1    D(4,1,2,3)             -0.0009         -DE/DX =    0.0                 !
 ! D2    D(4,1,2,6)            179.9999         -DE/DX =    0.0                 !
 ! D3    D(5,1,2,3)           -179.9998         -DE/DX =    0.0                 !
 ! D4    D(5,1,2,6)              0.001          -DE/DX =    0.0                 !
 ! D5    D(2,1,4,10)          -120.9447         -DE/DX =    0.0                 !
 ! D6    D(2,1,4,11)             0.0201         -DE/DX =    0.0                 !
 ! D7    D(2,1,4,12)           120.984          -DE/DX =    0.0                 !
 ! D8    D(5,1,4,10)            59.0542         -DE/DX =    0.0                 !
 ! D9    D(5,1,4,11)          -179.9809         -DE/DX =    0.0                 !
 ! D10   D(5,1,4,12)           -59.0171         -DE/DX =    0.0                 !
 ! D11   D(1,2,3,7)              0.0099         -DE/DX =    0.0                 !
 ! D12   D(1,2,3,8)            120.9738         -DE/DX =    0.0                 !
 ! D13   D(1,2,3,9)           -120.955          -DE/DX =    0.0                 !
 ! D14   D(6,2,3,7)           -179.9909         -DE/DX =    0.0                 !
 ! D15   D(6,2,3,8)            -59.027          -DE/DX =    0.0                 !
 ! D16   D(6,2,3,9)             59.0442         -DE/DX =    0.0                 !
 --------------------------------------------------------------------------------
 GradGradGradGradGradGradGradGradGradGradGradGradGradGradGradGradGradGrad

                          Input orientation:                          
 ---------------------------------------------------------------------
 Center     Atomic      Atomic             Coordinates (Angstroms)
 Number     Number       Type             X           Y           Z
 ---------------------------------------------------------------------
      1          6           0        1.195877    1.437001    0.587718
      2          6           0        2.467431    1.075829    0.614443
      3          6           0        3.671341    1.921835    0.926970
      4          6           0        0.605021    2.792788    0.862541
      5          1           0        0.472777    0.675809    0.338825
      6          1           0        2.691725    0.045544    0.385446
      7          1           0        3.419604    2.949687    1.153081
      8          1           0        4.210796    1.515581    1.778965
      9          1           0        4.362338    1.924752    0.087644
     10          1           0       -0.099700    2.740137    1.688707
     11          1           0        1.350323    3.537572    1.109115
     12          1           0        0.051466    3.148865   -0.002755
 ---------------------------------------------------------------------
                    Distance matrix (angstroms):
                    1          2          3          4          5
     1  C    0.000000
     2  C    1.322123   0.000000
     3  C    2.545206   1.504260   0.000000
     4  C    1.504260   2.545206   3.188264   0.000000
     5  H    1.078997   2.052955   3.482715   2.184803   0.000000
     6  H    2.052956   1.078997   2.184803   3.482715   2.307193
     7  H    2.748239   2.169818   1.082117   2.833886   3.810161
     8  H    3.242681   2.142152   1.087176   3.933536   4.092921
     9  H    3.242599   2.142162   1.087177   3.933368   4.092876
    10  H    2.142163   3.242550   3.933270   1.087177   2.532067
    11  H    2.169817   2.748238   2.833885   1.082117   3.090812
    12  H    2.142151   3.242730   3.933635   1.087175   2.531834
                    6          7          8          9         10
     6  H    0.000000
     7  H    3.090812   0.000000
     8  H    2.531892   1.753390   0.000000
     9  H    2.532006   1.753396   1.746698   0.000000
    10  H    4.092845   3.565994   4.481970   4.810202   0.000000
    11  H    3.810159   2.151620   3.566434   3.566067   1.753395
    12  H    4.092954   3.566508   4.810631   4.482214   1.746698
                   11         12
    11  H    0.000000
    12  H    1.753390   0.000000
 Stoichiometry    C4H8
 Framework group  C1[X(C4H8)]
 Deg. of freedom    30
 Full point group                 C1      NOp   1
 Largest Abelian subgroup         C1      NOp   1
 Largest concise Abelian subgroup C1      NOp   1
                         Standard orientation:                         
 ---------------------------------------------------------------------
 Center     Atomic      Atomic             Coordinates (Angstroms)
 Number     Number       Type             X           Y           Z
 ---------------------------------------------------------------------
      1          6           0        0.661062    0.659720   -0.000004
      2          6           0       -0.661061    0.659720    0.000003
      3          6           0       -1.594132   -0.520186   -0.000000
      4          6           0        1.594132   -0.520186   -0.000000
      5          1           0        1.153596    1.619743    0.000003
      6          1           0       -1.153597    1.619742   -0.000001
      7          1           0       -1.075810   -1.470091    0.000162
      8          1           0       -2.241150   -0.493339    0.873268
      9          1           0       -2.240942   -0.493515   -0.873430
     10          1           0        2.240821   -0.493612    0.873523
     11          1           0        1.075810   -1.470090   -0.000339
     12          1           0        2.241272   -0.493243   -0.873175
 ---------------------------------------------------------------------
 Rotational constants (GHZ):     16.5204016      5.0631747      4.0672337

 **********************************************************************

            Population analysis using the SCF density.

 **********************************************************************

 Orbital symmetries:
       Occupied  (A) (A) (A) (A) (A) (A) (A) (A) (A) (A) (A) (A)
                 (A) (A) (A) (A)
       Virtual   (A) (A) (A) (A) (A) (A) (A) (A) (A) (A) (A) (A)
                 (A) (A) (A) (A) (A) (A) (A) (A) (A) (A) (A) (A)
                 (A) (A) (A) (A) (A) (A) (A) (A) (A) (A) (A) (A)
                 (A) (A) (A) (A) (A) (A) (A) (A) (A) (A) (A) (A)
                 (A) (A) (A) (A) (A) (A) (A) (A) (A) (A) (A) (A)
 The electronic state is 1-A.
 Alpha  occ. eigenvalues --  -11.22012 -11.21837 -11.21461 -11.21460  -1.07472
 Alpha  occ. eigenvalues --   -0.97702  -0.89509  -0.71910  -0.65065  -0.57182
 Alpha  occ. eigenvalues --   -0.56713  -0.55306  -0.53544  -0.51195  -0.46759
 Alpha  occ. eigenvalues --   -0.34113
 Alpha virt. eigenvalues --    0.20122   0.24408   0.26855   0.28932   0.31865
 Alpha virt. eigenvalues --    0.32615   0.34574   0.34668   0.38377   0.39674
 Alpha virt. eigenvalues --    0.48683   0.65363   0.68785   0.71141   0.72655
 Alpha virt. eigenvalues --    0.83909   0.85054   0.85260   0.86045   0.90087
 Alpha virt. eigenvalues --    0.94351   0.97106   1.02563   1.09161   1.14347
 Alpha virt. eigenvalues --    1.16054   1.17945   1.18042   1.20197   1.20571
 Alpha virt. eigenvalues --    1.24537   1.28544   1.38970   1.48745   1.50758
 Alpha virt. eigenvalues --    1.63787   1.74838   1.81447   1.85114   2.04914
 Alpha virt. eigenvalues --    2.09653   2.17641   2.27672   2.32242   2.36972
 Alpha virt. eigenvalues --    2.39229   2.43790   2.63012   2.63458   2.67474
 Alpha virt. eigenvalues --    2.76777   2.84854   2.86102   2.86576   3.19574
 Alpha virt. eigenvalues --    3.38530   4.53285   4.64420   4.73385   4.92213
          Condensed to atoms (all electrons):
               1          2          3          4          5          6
     1  C    4.936833   0.695928  -0.044240   0.341840   0.395356  -0.038685
     2  C    0.695928   4.936833   0.341840  -0.044240  -0.038685   0.395356
     3  C   -0.044240   0.341840   5.086460  -0.009150   0.003571  -0.043838
     4  C    0.341840  -0.044240  -0.009150   5.086459  -0.043838   0.003571
     5  H    0.395356  -0.038685   0.003571  -0.043838   0.517508  -0.005367
     6  H   -0.038685   0.395356  -0.043838   0.003571  -0.005367   0.517508
     7  H    0.000694  -0.040624   0.395036  -0.000218   0.000038   0.003133
     8  H   -0.000577  -0.039748   0.391799   0.000261  -0.000116  -0.000894
     9  H   -0.000579  -0.039748   0.391796   0.000262  -0.000116  -0.000892
    10  H   -0.039748  -0.000581   0.000262   0.391796  -0.000891  -0.000116
    11  H   -0.040624   0.000694  -0.000218   0.395036   0.003133   0.000038
    12  H   -0.039747  -0.000576   0.000261   0.391799  -0.000895  -0.000116
               7          8          9         10         11         12
     1  C    0.000694  -0.000577  -0.000579  -0.039748  -0.040624  -0.039747
     2  C   -0.040624  -0.039748  -0.039748  -0.000581   0.000694  -0.000576
     3  C    0.395036   0.391799   0.391796   0.000262  -0.000218   0.000261
     4  C   -0.000218   0.000261   0.000262   0.391796   0.395036   0.391799
     5  H    0.000038  -0.000116  -0.000116  -0.000891   0.003133  -0.000895
     6  H    0.003133  -0.000894  -0.000892  -0.000116   0.000038  -0.000116
     7  H    0.522096  -0.026178  -0.026177  -0.000065   0.001673  -0.000065
     8  H   -0.026178   0.539493  -0.033531   0.000038  -0.000065  -0.000019
     9  H   -0.026177  -0.033531   0.539493  -0.000019  -0.000065   0.000038
    10  H   -0.000065   0.000038  -0.000019   0.539492  -0.026177  -0.033531
    11  H    0.001673  -0.000065  -0.000065  -0.026177   0.522096  -0.026178
    12  H   -0.000065  -0.000019   0.000038  -0.033531  -0.026178   0.539493
 Mulliken charges:
               1
     1  C   -0.166450
     2  C   -0.166450
     3  C   -0.513580
     4  C   -0.513580
     5  H    0.170300
     6  H    0.170300
     7  H    0.170656
     8  H    0.169536
     9  H    0.169538
    10  H    0.169540
    11  H    0.170656
    12  H    0.169534
 Sum of Mulliken charges =  -0.00000
 Mulliken charges with hydrogens summed into heavy atoms:
               1
     1  C    0.003850
     2  C    0.003850
     3  C   -0.003850
     4  C   -0.003850
 Electronic spatial extent (au):  <R**2>=            354.9631
 Charge=              0.0000 electrons
 Dipole moment (field-independent basis, Debye):
    X=             -0.0000    Y=             -0.1361    Z=              0.0000  Tot=              0.1361
 Quadrupole moment (field-independent basis, Debye-Ang):
   XX=            -25.2726   YY=            -26.0221   ZZ=            -28.1073
   XY=             -0.0000   XZ=              0.0000   YZ=              0.0000
 Traceless Quadrupole moment (field-independent basis, Debye-Ang):
   XX=              1.1948   YY=              0.4452   ZZ=             -1.6400
   XY=             -0.0000   XZ=              0.0000   YZ=              0.0000
 Octapole moment (field-independent basis, Debye-Ang**2):
  XXX=              0.0000  YYY=              1.2257  ZZZ=              0.0003  XYY=             -0.0000
  XXY=              1.5890  XXZ=             -0.0001  XZZ=              0.0000  YZZ=             -1.2029
  YYZ=             -0.0001  XYZ=             -0.0003
 Hexadecapole moment (field-independent basis, Debye-Ang**3):
 XXXX=           -326.7267 YYYY=           -113.1041 ZZZZ=            -42.5889 XXXY=             -0.0000
 XXXZ=             -0.0024 YYYX=              0.0000 YYYZ=              0.0003 ZZZX=              0.0015
 ZZZY=             -0.0002 XXYY=            -74.7301 XXZZ=            -57.6096 YYZZ=            -29.0490
 XXYZ=             -0.0003 YYXZ=              0.0000 ZZXY=             -0.0000
 N-N= 1.178041751455D+02 E-N=-5.983779899790D+02  KE= 1.560187253094D+02
 1\1\GINC-GTX1080DELTA\FOpt\RHF\6-31G(d)\C4H8\MVEROT\16-Apr-2022\0\\# h
 f/6-31G* opt freq\\Optimisation de geometrie\\0,1\C,1.1958771554,1.437
 0009331,0.5877177316\C,2.4674313511,1.0758287919,0.6144427604\C,3.6713
 407207,1.9218352067,0.9269697266\C,0.6050206435,2.792788037,0.86254071
 43\H,0.4727772661,0.6758091899,0.3388249908\H,2.6917253953,0.045544199
 1,0.3854460172\H,3.4196043638,2.9496872057,1.1530809995\H,4.2107959846
 ,1.5155809258,1.7789651574\H,4.3623381703,1.9247515543,0.0876437881\H,
 -0.0996999492,2.7401371202,1.6887074515\H,1.3503226736,3.5375717913,1.
 1091152635\H,0.0514662249,3.1488650452,-0.0027546009\\Version=AM64L-G0
 9RevD.01\State=1-A\HF=-156.1078557\RMSD=2.766e-09\RMSF=3.121e-05\Dipol
 e=0.0139143,0.0499735,0.0133363\Quadrupole=0.8347809,0.2875999,-1.1223
 807,-0.177935,0.1411818,0.3483838\PG=C01 [X(C4H8)]\\@


 NEVER TEACH A PIG TO SING.
 IT WASTES YOUR TIME AND ANNOYS THE PIG.
     -- SEEN ON A GREETING CARD
[...]
    A6        1.99846  -0.00006   0.00000  -0.00026  -0.00026   1.99820
    A7        1.97298   0.00001   0.00000   0.00005   0.00005   1.97304
    A8        1.92814   0.00000   0.00000  -0.00001  -0.00001   1.92813
    A9        1.92815   0.00000   0.00000  -0.00002  -0.00002   1.92813
   A10        1.88244  -0.00001   0.00000  -0.00000  -0.00000   1.88243
   A11        1.88244  -0.00001   0.00000  -0.00001  -0.00001   1.88243
   A12        1.86569  -0.00001   0.00000  -0.00002  -0.00002   1.86567
   A13        1.92815   0.00000   0.00000  -0.00002  -0.00002   1.92813
   A14        1.97298   0.00001   0.00000   0.00006   0.00006   1.97304
   A15        1.92814   0.00000   0.00000  -0.00001  -0.00001   1.92813
   A16        1.88244  -0.00001   0.00000  -0.00001  -0.00001   1.88243
   A17        1.86569  -0.00001   0.00000  -0.00002  -0.00002   1.86567
   A18        1.88244  -0.00001   0.00000  -0.00000  -0.00000   1.88243
    D1       -0.00002   0.00000   0.00000   0.00002   0.00002  -0.00000
    D2        3.14159  -0.00000   0.00000   0.00000   0.00000   3.14159
    D3       -3.14159  -0.00000   0.00000  -0.00000  -0.00000   3.14159
    D4        0.00002  -0.00000   0.00000  -0.00002  -0.00002  -0.00000
    D5       -2.11088  -0.00000   0.00000  -0.00036  -0.00036  -2.11125
    D6        0.00035  -0.00000   0.00000  -0.00035  -0.00035  -0.00000
    D7        2.11157   0.00000   0.00000  -0.00032  -0.00032   2.11125
    D8        1.03069  -0.00000   0.00000  -0.00035  -0.00035   1.03034
    D9       -3.14126  -0.00000   0.00000  -0.00033  -0.00033   3.14159
   D10       -1.03004   0.00000   0.00000  -0.00031  -0.00031  -1.03035
   D11        0.00017  -0.00000   0.00000  -0.00017  -0.00017  -0.00000
   D12        2.11139   0.00000   0.00000  -0.00014  -0.00014   2.11125
   D13       -2.11106  -0.00000   0.00000  -0.00018  -0.00018  -2.11125
   D14       -3.14143  -0.00000   0.00000  -0.00016  -0.00016   3.14159
   D15       -1.03022   0.00000   0.00000  -0.00013  -0.00013  -1.03035
   D16        1.03052  -0.00000   0.00000  -0.00017  -0.00017   1.03035
         Item               Value     Threshold  Converged?
 Maximum Force            0.000082     0.000450     YES
 RMS     Force            0.000033     0.000300     YES
 Maximum Displacement     0.001282     0.001800     YES
 RMS     Displacement     0.000421     0.001200     YES
 Predicted change in Energy=-6.554232D-08
 Optimization completed.
    -- Stationary point found.
                           ----------------------------
                           !   Optimized Parameters   !
                           ! (Angstroms and Degrees)  !
 --------------------------                            --------------------------
 ! Name  Definition              Value          Derivative Info.                !
 --------------------------------------------------------------------------------
 ! R1    R(1,2)                  1.3221         -DE/DX =    0.0001              !
 ! R2    R(1,4)                  1.5043         -DE/DX =    0.0                 !
 ! R3    R(1,5)                  1.079          -DE/DX =    0.0                 !
 ! R4    R(2,3)                  1.5043         -DE/DX =    0.0                 !
 ! R5    R(2,6)                  1.079          -DE/DX =    0.0                 !
 ! R6    R(3,7)                  1.0821         -DE/DX =   -0.0001              !
 ! R7    R(3,8)                  1.0872         -DE/DX =    0.0                 !
 ! R8    R(3,9)                  1.0872         -DE/DX =    0.0                 !
 ! R9    R(4,10)                 1.0872         -DE/DX =    0.0                 !
 ! R10   R(4,11)                 1.0821         -DE/DX =   -0.0001              !
 ! R11   R(4,12)                 1.0872         -DE/DX =    0.0                 !
 ! A1    A(2,1,4)              128.337          -DE/DX =    0.0001              !
 ! A2    A(2,1,5)              117.1598         -DE/DX =    0.0                 !
 ! A3    A(4,1,5)              114.5032         -DE/DX =   -0.0001              !
 ! A4    A(1,2,3)              128.337          -DE/DX =    0.0001              !
 ! A5    A(1,2,6)              117.1599         -DE/DX =    0.0                 !
 ! A6    A(3,2,6)              114.5031         -DE/DX =   -0.0001              !
 ! A7    A(2,3,7)              113.0436         -DE/DX =    0.0                 !
 ! A8    A(2,3,8)              110.474          -DE/DX =    0.0                 !
 ! A9    A(2,3,9)              110.4748         -DE/DX =    0.0                 !
 ! A10   A(7,3,8)              107.8557         -DE/DX =    0.0                 !
 ! A11   A(7,3,9)              107.8561         -DE/DX =    0.0                 !
 ! A12   A(8,3,9)              106.8964         -DE/DX =    0.0                 !
 ! A13   A(1,4,10)             110.4748         -DE/DX =    0.0                 !
 ! A14   A(1,4,11)             113.0436         -DE/DX =    0.0                 !
 ! A15   A(1,4,12)             110.474          -DE/DX =    0.0                 !
 ! A16   A(10,4,11)            107.856          -DE/DX =    0.0                 !
 ! A17   A(10,4,12)            106.8964         -DE/DX =    0.0                 !
 ! A18   A(11,4,12)            107.8557         -DE/DX =    0.0                 !
 ! D1    D(4,1,2,3)             -0.0009         -DE/DX =    0.0                 !
 ! D2    D(4,1,2,6)            179.9999         -DE/DX =    0.0                 !
 ! D3    D(5,1,2,3)            180.0002         -DE/DX =    0.0                 !
 ! D4    D(5,1,2,6)              0.001          -DE/DX =    0.0                 !
 ! D5    D(2,1,4,10)          -120.9447         -DE/DX =    0.0                 !
 ! D6    D(2,1,4,11)             0.0201         -DE/DX =    0.0                 !
 ! D7    D(2,1,4,12)           120.984          -DE/DX =    0.0                 !
 ! D8    D(5,1,4,10)            59.0542         -DE/DX =    0.0                 !
 ! D9    D(5,1,4,11)           180.0191         -DE/DX =    0.0                 !
 ! D10   D(5,1,4,12)           -59.0171         -DE/DX =    0.0                 !
 ! D11   D(1,2,3,7)              0.0099         -DE/DX =    0.0                 !
 ! D12   D(1,2,3,8)            120.9738         -DE/DX =    0.0                 !
 ! D13   D(1,2,3,9)           -120.955          -DE/DX =    0.0                 !
 ! D14   D(6,2,3,7)            180.0091         -DE/DX =    0.0                 !
 ! D15   D(6,2,3,8)            -59.027          -DE/DX =    0.0                 !
 ! D16   D(6,2,3,9)             59.0442         -DE/DX =    0.0                 !
 --------------------------------------------------------------------------------
 GradGradGradGradGradGradGradGradGradGradGradGradGradGradGradGradGradGrad

 1\1\GINC-GTX1080DELTA\Freq\RHF\6-31G(d)\C4H8\MVEROT\16-Apr-2022\0\\#N 
 Geom=AllCheck Guess=TCheck SCRF=Check GenChk RHF/6-31G(d) Freq\\Optimi
 sation de geometrie\\0,1\C,1.1958771554,1.4370009331,0.5877177316\C,2.
 4674313511,1.0758287919,0.6144427604\C,3.6713407207,1.9218352067,0.926
 9697266\C,0.6050206435,2.792788037,0.8625407143\H,0.4727772661,0.67580
 91899,0.3388249908\H,2.6917253953,0.0455441991,0.3854460172\H,3.419604
 3638,2.9496872057,1.1530809995\H,4.2107959846,1.5155809258,1.778965157
 4\H,4.3623381703,1.9247515543,0.0876437881\H,-0.0996999492,2.740137120
 2,1.6887074515\H,1.3503226736,3.5375717913,1.1091152635\H,0.0514662249
 ,3.1488650452,-0.0027546009\\Version=AM64L-G09RevD.01\State=1-A\HF=-15
 6.1078557\RMSD=5.515e-10\RMSF=3.121e-05\ZeroPoint=0.1158931\Thermal=0.
 1211922\Dipole=0.0139144,0.0499736,0.0133363\DipoleDeriv=0.0653201,0.0
 045467,0.0281176,-0.1310138,0.1665463,0.0855585,-0.0047253,0.0977128,-
 0.2126598,0.146366,0.0030037,0.0350109,0.1385879,0.0838701,0.0897269,0
 .0677637,0.077591,-0.2110289,0.0853755,-0.0419627,-0.0237603,-0.001029
 2,0.0745136,-0.0393938,-0.0138257,-0.0430756,0.2254139,0.1022234,0.026
 8499,-0.005611,-0.014115,0.0573246,-0.0447211,-0.0154282,-0.0410726,0.
 225755,-0.0883768,-0.0732164,-0.0372849,-0.075759,-0.0944126,-0.061028
 4,-0.0378944,-0.060808,0.1118246,-0.0232031,0.0320237,-0.0059951,0.034
 5626,-0.1608959,-0.0672187,-0.0053729,-0.0674436,0.1131344,0.0216391,0
 .0629434,0.0122544,-0.0012,-0.1443353,-0.0483063,-0.0032651,-0.0425507
 ,0.0443089,-0.065968,0.0268356,-0.0845787,0.0031127,0.0234742,0.080737
 2,-0.1338957,0.0647495,-0.085077,-0.1047267,-0.0098347,0.0900576,-0.05
 03062,0.0626903,-0.0191232,0.1238506,0.0026184,-0.0855509,-0.0647682,0
 .0233172,0.1149128,0.0459081,0.012237,0.024956,0.148217,-0.0154664,-0.
 075062,-0.0495864,-0.1189969,-0.0380823,-0.054844,-0.0717109,-0.035498
 8,-0.0225961,-0.0412399,0.0429101,-0.0242947,0.0644904,-0.0850409,0.10
 6096,-0.0093014,0.0343115,-0.1028278,0.068985,-0.0939683\Polar=56.5232
 962,-5.5181923,38.8372381,1.1850873,2.0212866,29.0262287\PolarDeriv=-1
 3.9545369,5.9007321,1.2678573,0.9122287,0.8974642,-0.4814847,7.2552753
 ,-0.7714921,1.7340769,2.2768863,0.048923,0.0511543,1.8315617,2.0014312
 ,-0.1857838,-6.7520365,1.6507367,-0.6421488,16.2162923,-4.5796542,-0.7
 306175,-0.3400403,-0.4880069,0.4175873,-2.3029067,0.2788727,3.4752651,
 -1.7975212,1.6545958,-0.3897145,-0.3743227,-1.8215024,2.0493749,6.6265
 311,-2.277996,-0.0588908,-6.6495983,1.2481921,2.5976457,0.7219451,1.57
 99455,-3.6347928,0.6969238,0.9077598,-4.0149898,1.8723009,-1.7329255,1
 .58525,0.8695001,1.9282167,-1.5633538,-6.6941552,1.4839007,-0.4143016,
 3.8771177,-4.2396838,-2.0543836,-1.7036204,-1.7332616,3.8431461,-3.805
 4946,-0.3215858,-0.989277,-2.0647064,0.4557335,-0.7304016,-1.8352692,-
 1.9502539,0.7145326,6.3956175,-2.4124849,0.2919913,-5.4169132,-2.76288
 98,-2.5406437,-1.1144596,-0.6993657,-0.3418903,-2.3326068,-3.644834,-4
 .1743451,-0.9982527,-0.9345707,-0.3593355,-0.9903012,-0.9129727,-0.501
 6182,-0.6352864,-1.7134823,-0.9120576,2.0686268,-1.7599384,1.3601689,-
 0.1967096,0.2981138,0.1108073,-0.8205044,2.0903525,-8.9955675,0.569405
 8,-1.5891443,-0.412742,0.0773335,0.6013499,-1.3415443,-0.3475351,-1.73
 20237,-0.8917803,-1.1140251,1.6634393,-0.5889676,0.2042368,-0.2388115,
 0.3497432,0.5518828,0.2095693,6.5119694,-0.0731479,1.1800394,0.3032762
 ,-0.0864067,-0.1035583,0.7575412,0.629125,1.7387134,0.9901277,5.89685,
 -1.4685581,-0.1211274,3.1344758,-0.599758,1.8975813,-1.5856508,1.39511
 35,-1.3806749,-0.8627615,2.2572954,-1.0786021,2.5965152,-0.8417097,0.7
 652484,4.3298227,-1.5902348,5.4976813,7.6200212,0.085902,-0.1439465,-3
 .4138258,-0.383617,1.7352837,-0.1572681,1.6123391,0.5579144,-0.6159608
 ,-1.441624,-0.294543,-3.4153366,-0.5697464,-0.1485056,4.2254021,-0.128
 6869,-4.735613,-6.5635052,1.515144,-0.3184907,3.5396507,-0.1958555,-2.
 1067467,0.5816827,-1.5968449,0.0056845,0.0517878,1.7973446,0.1024754,2
 .9383409,-0.4541466,0.5279095,-4.4702587,0.9310273,5.0467594,3.0851584
 ,1.7543283,2.0099349,0.704454,0.5622493,-0.138084,0.3908382,1.8986025,
 4.7182746,0.4038679,0.8164739,0.4666286,0.3267116,0.4036414,0.4971763,
 0.3678517,1.8446856,0.9662857,-5.0654878,2.6429866,-0.7374298,-2.44833
 54,1.0009035,-1.6511504,1.5278286,-2.0578526,2.5516694,1.2381016,-2.51
 2141,0.7565541,-1.9383267,1.7192508,-1.5709773,-3.6750783,2.2058451,-5
 .1380531\HyperPolar=-5.2355208,-5.8652317,0.3114596,-12.2421162,-2.071
 3667,-0.9982696,-4.5849792,0.4403624,2.0042205,2.3616503\PG=C01 [X(C4H
 8)]\NImag=0\\0.98043238,-0.07084248,0.64822941,0.05473748,0.10706912,0
 .20991943,-0.61421438,0.13260438,-0.01714799,0.95006692,0.14036751,-0.
 17383493,-0.01359325,-0.12105978,0.67920542,-0.01527134,-0.01428976,-0
 .07036755,0.03987392,0.11005639,0.20930915,-0.02451681,-0.02081604,-0.
 00786753,-0.19888024,-0.06674906,-0.02612299,0.58307482,0.00523474,0.0
 1617460,0.00266508,-0.06688091,-0.16196075,-0.02398740,-0.03737124,0.6
 4426332,-0.00157029,0.00033028,0.00703432,-0.02615505,-0.02397827,-0.0
 9570266,-0.01119226,0.00562924,0.60749846,-0.12959934,0.04769162,0.007
 76047,-0.00664849,0.03478415,0.00717874,0.00166515,0.00065084,0.000925
 97,0.63241708,0.04782342,-0.23263784,-0.03078943,0.00873419,-0.0020522
 7,-0.00142904,-0.00067491,0.00179770,0.00204322,0.04422864,0.59393590,
 0.00779413,-0.03079581,-0.09430647,0.00087806,0.00090586,0.00739286,0.
 00060465,0.00216109,-0.00632599,0.01296043,0.00076266,0.60848439,-0.19
 912225,-0.13710818,-0.04667177,-0.02381886,-0.02835110,-0.00957672,-0.
 00251540,0.00457730,-0.00047073,0.01228640,0.01195289,0.00361678,0.213
 88633,-0.14253857,-0.21782682,-0.05375974,0.01005801,0.00982713,0.0016
 9925,0.00194931,0.00098124,-0.00323173,-0.02312601,-0.01977612,-0.0078
 6048,0.14849666,0.22843704,-0.04798439,-0.05327392,-0.06553687,-0.0002
 9063,-0.00174549,0.00608188,-0.00110601,-0.00299636,0.01424686,-0.0048
 6474,-0.00471571,0.00258888,0.05227091,0.06095732,0.05082577,-0.006639
 28,0.03846840,0.00812010,-0.08013596,0.05423487,0.01026311,0.00862537,
 -0.02918016,-0.00665655,-0.00436433,-0.00110828,-0.00201124,0.00051813
 ,0.00038759,0.00104172,0.08598379,0.00005968,-0.00769823,-0.00343489,0
 .05966481,-0.33920800,-0.06497452,0.00589863,-0.01604066,-0.00435692,0
 .00151953,0.00286714,-0.00281413,0.00007063,0.00148872,0.00279666,-0.0
 6302189,0.35891297,-0.00116743,0.00001011,0.00642770,0.01157692,-0.065
 46148,-0.06314218,0.00182521,-0.00750280,0.00251439,-0.00137528,-0.003
 04956,0.01420989,0.00096514,0.00282501,-0.00928203,-0.01034195,0.07353
 715,0.04825259,0.00106428,0.00116460,0.00038774,0.01380878,-0.03191739
 ,-0.00640087,-0.07779880,0.06948497,0.01514833,-0.00144617,0.00035308,
 -0.00002759,0.00044208,0.00026880,0.00010817,-0.00524857,-0.00374854,-
 0.00152365,0.08248699,0.00086976,0.00002250,0.00011181,0.00655376,-0.0
 1842008,-0.00364411,0.06570123,-0.32178390,-0.05762757,0.00011868,-0.0
 0102257,-0.00019065,-0.00011136,0.00019911,0.00004685,-0.00368477,-0.0
 0072113,-0.00089962,-0.07588046,0.34877194,0.00031607,0.00013789,-0.00
 005499,0.00290638,-0.00709084,-0.00238023,0.01423276,-0.05728888,-0.07
 183645,-0.00008467,-0.00017108,-0.00023463,0.00001582,0.00008089,-0.00
 001432,-0.00150769,-0.00090481,0.00127780,-0.01580988,0.06449859,0.068
 24977,-0.00063571,-0.00423910,-0.00121619,-0.01935240,0.01373720,-0.02
 440226,-0.12190832,0.05315164,-0.10917860,0.00011897,0.00000018,-0.001
 12917,-0.00127360,-0.00050363,0.00234692,0.00101237,-0.00053194,0.0008
 7860,-0.00473048,0.00351146,-0.00684325,0.13291678,-0.00135977,-0.0024
 0664,-0.00045577,-0.01193515,0.01176340,-0.01961451,0.05226102,-0.1009
 4870,0.08253439,-0.00008428,-0.00054826,-0.00035964,-0.00062247,-0.000
 30337,0.00165609,0.00110905,0.00050059,0.00059336,0.01639772,-0.012095
 57,0.02962228,-0.05533043,0.10291864,0.00059247,-0.00168158,-0.0002271
 7,-0.00327014,0.00229246,-0.00212188,-0.10808042,0.08349222,-0.2304284
 0,0.00002829,-0.00010052,-0.00019255,-0.00034692,0.00003363,0.00030768
 ,-0.00019651,-0.00063040,0.00014469,0.00527206,-0.00249458,0.00898826,
 0.12048941,-0.09344664,0.24762799,-0.00049031,-0.00441477,-0.00099085,
 -0.02334863,0.00203616,0.02353028,-0.16624270,0.00058402,0.13932597,-0
 .00006707,-0.00051213,0.00101284,-0.00086203,0.00066777,-0.00244326,0.
 00107635,-0.00022405,-0.00089798,-0.00559757,0.00040515,0.00648730,0.0
 1398630,-0.00075919,-0.01451937,0.18168890,-0.00086731,-0.00260331,-0.
 00099109,-0.01452494,0.00230494,0.01832318,0.00013983,-0.06038678,-0.0
 0085601,-0.00010592,-0.00063681,0.00006465,-0.00038467,0.00050666,-0.0
 0154652,0.00093068,0.00037924,-0.00026271,0.02257504,0.00252054,-0.029
 46840,-0.01003271,-0.00001982,0.01219950,0.00198136,0.05682960,-0.0012
 4556,-0.00034185,-0.00017363,-0.00781711,0.00020246,0.01133402,0.13790
 343,-0.00169589,-0.22665204,-0.00006673,-0.00022483,0.00008147,-0.0000
 3208,0.00018113,-0.00091375,0.00085334,0.00071081,0.00020019,0.0028528
 0,-0.00049255,-0.00476050,0.01902574,-0.00072643,-0.02414097,-0.151568
 26,0.00213106,0.24493976,-0.01209751,0.00078360,0.01005196,0.00139992,
 0.00195020,0.00083603,-0.00005518,-0.00031025,0.00077966,-0.17380463,-
 0.01361620,0.13860144,0.00063426,0.00048251,-0.00042115,-0.00046854,0.
 00061889,-0.00116296,0.00021853,0.00021225,0.00016161,-0.00002233,0.00
 008077,-0.00006549,-0.00023799,0.00018247,-0.00002516,0.18586763,0.027
 50329,0.00365048,-0.02853648,-0.00095565,-0.00444208,-0.00101742,-0.00
 020232,-0.00041197,-0.00090660,-0.01267408,-0.05932688,0.01045696,-0.0
 0121669,0.00090202,0.00091208,0.00064429,-0.00104703,0.00268488,0.0001
 4722,0.00049562,0.00008406,0.00007634,0.00023530,0.00006279,0.00017207
 ,0.00031308,0.00004075,0.01020226,0.06138679,0.00329380,0.00019594,-0.
 00126236,-0.00131518,-0.00099665,-0.00022446,-0.00006876,-0.00008021,-
 0.00015509,0.13816062,0.01181702,-0.22014781,-0.00013155,-0.00063005,0
 .00011852,0.00027547,-0.00011482,0.00024656,0.00005000,0.00012504,0.00
 000289,0.00008587,0.00001980,0.00002799,0.00000655,0.00016443,0.000014
 82,-0.15412074,-0.01372877,0.23620177,0.01631817,0.01070496,0.00412780
 ,-0.00011544,-0.00108128,-0.00026136,-0.00153434,-0.00002715,-0.000127
 63,-0.20222737,-0.14007770,-0.04662617,-0.00073232,0.00378407,0.000703
 30,0.00030545,-0.00033743,-0.00005051,-0.00343154,0.00205512,0.0001299
 7,0.00013715,0.00007021,0.00002765,0.00011869,0.00006860,0.00003353,-0
 .01623302,-0.01508271,-0.00659666,0.22010266,-0.02776950,-0.02098116,-
 0.00733042,-0.00078628,0.00122601,0.00025338,0.00020728,-0.00093268,-0
 .00016216,-0.13629356,-0.19490985,-0.04495922,0.00372011,-0.00532826,-
 0.00134854,0.00004303,0.00033870,0.00009367,0.00102055,0.00157192,0.00
 031467,0.00000464,0.00058336,0.00012689,-0.00004584,0.00057309,0.00016
 194,-0.00109632,-0.00091080,0.00071714,0.15170663,0.20845030,-0.005169
 09,-0.00389246,-0.00232861,-0.00019004,0.00022824,-0.00007878,-0.00007
 076,-0.00018207,-0.00023634,-0.04571177,-0.04529680,-0.07428211,0.0006
 8772,-0.00134442,0.00136868,0.00004078,0.00006013,-0.00001728,-0.00012
 021,0.00040654,0.00073886,-0.00008793,0.00015246,-0.00000285,0.0001058
 3,0.00015173,0.00002526,0.02043956,0.02115600,0.00930597,0.05149892,0.
 05086446,0.07095598,-0.01049925,0.00600301,-0.01129122,0.00123878,0.00
 204852,0.00035346,0.00008646,0.00008620,-0.00082882,-0.12833019,0.0428
 9682,-0.11567416,0.00055726,0.00007349,0.00063917,-0.00066477,0.000031
 68,0.00127389,0.00023247,0.00024918,-0.00000441,-0.00024872,0.00017253
 ,0.00006898,-0.00002393,0.00003758,0.00008605,0.01479885,-0.00861403,0
 .02036057,-0.01270808,0.00928927,-0.02142301,0.13556111,0.02151923,-0.
 01008806,0.02904506,-0.00147244,-0.00440878,-0.00137542,-0.00034373,-0
 .00075142,0.00058212,0.04329039,-0.08769014,0.07262871,-0.00102311,0.0
 0089265,-0.00074246,0.00117719,0.00022770,-0.00256801,0.00013443,0.000
 46164,0.00018563,0.00015635,0.00032108,0.00014624,0.00010945,0.0002195
 7,0.00005340,0.00050982,-0.00084452,0.00251112,-0.01178333,0.01031938,
 -0.02230381,-0.05227424,0.09134090,0.00567415,-0.00346796,0.01087620,0
 .00095086,-0.00081943,-0.00010016,-0.00005731,-0.00021402,0.00004294,-
 0.11491132,0.07115407,-0.23726793,-0.00032659,0.00104920,0.00020870,0.
 00011941,0.00012575,-0.00083231,0.00006310,0.00016023,0.00002355,0.000
 03085,0.00002462,0.00001720,-0.00004905,0.00009018,0.00004539,-0.01507
 476,0.00879175,-0.02412881,-0.00285885,0.00126819,-0.00544878,0.126439
 51,-0.07816258,0.25656401\\0.00000681,0.00004709,0.00001080,0.00001816
 ,0.00004284,0.00001400,-0.00005025,-0.00004272,-0.00001517,0.00002065,
 -0.00006294,-0.00001319,-0.00001454,-0.00004495,-0.00001267,-0.0000106
 9,-0.00004600,-0.00001218,-0.00002885,0.00007494,0.00001583,0.00000901
 ,-0.00001358,0.00002206,0.00001345,-0.00000192,-0.00002427,-0.00001539
 ,-0.00000617,0.00002216,0.00006332,0.00004886,0.00001695,-0.00001168,0
 .00000454,-0.00002431\\\@


 REVOLUTIONS HAVE NEVER LIGHTENED THE BURDEN OF TYRANNY:
 THEY HAVE MERELY SHIFTED IT TO OTHER SHOULDERS.
                                   -- G. B. SHAW (1903)
 Job cpu time:       0 days  0 hours  0 minutes  6.8 seconds.
 File lengths (MBytes):  RWF=    132 Int=      0 D2E=      0 Chk=      3 Scr=      2
 Normal termination of Gaussian 09 at Sat Apr 16 11:53:55 2022.
