 Entering Gaussian System, Link 0=g09
 Input=/scratch/mverot/binap-dedoubl-opt-pm6-freq/binap-dedoubl-opt-pm6-freq.com
 Output=/scratch/mverot/binap-dedoubl-opt-pm6-freq/binap-dedoubl-opt-pm6-freq.log
 Initial command:
 /opt/g09/l1.exe "/scratch/mverot/binap-dedoubl-opt-pm6-freq/Gau-1960568.inp" -scrdir="/scratch/mverot/binap-dedoubl-opt-pm6-freq/"
 Entering Link 1 = /opt/g09/l1.exe PID=   1960570.
  
 Copyright (c) 1988,1990,1992,1993,1995,1998,2003,2009,2013,
            Gaussian, Inc.  All Rights Reserved.
  
 This is part of the Gaussian(R) 09 program.  It is based on
 the Gaussian(R) 03 system (copyright 2003, Gaussian, Inc.),
 the Gaussian(R) 98 system (copyright 1998, Gaussian, Inc.),
 the Gaussian(R) 94 system (copyright 1995, Gaussian, Inc.),
 the Gaussian 92(TM) system (copyright 1992, Gaussian, Inc.),
 the Gaussian 90(TM) system (copyright 1990, Gaussian, Inc.),
 the Gaussian 88(TM) system (copyright 1988, Gaussian, Inc.),
 the Gaussian 86(TM) system (copyright 1986, Carnegie Mellon
 University), and the Gaussian 82(TM) system (copyright 1983,
 Carnegie Mellon University). Gaussian is a federally registered
 trademark of Gaussian, Inc.
  
 This software contains proprietary and confidential information,
 including trade secrets, belonging to Gaussian, Inc.
  
 This software is provided under written license and may be
 used, copied, transmitted, or stored only in accord with that
 written license.
  
 The following legend is applicable only to US Government
 contracts under FAR:
  
                    RESTRICTED RIGHTS LEGEND
  
 Use, reproduction and disclosure by the US Government is
 subject to restrictions as set forth in subparagraphs (a)
 and (c) of the Commercial Computer Software - Restricted
 Rights clause in FAR 52.227-19.
  
 Gaussian, Inc.
 340 Quinnipiac St., Bldg. 40, Wallingford CT 06492
  
  
 ---------------------------------------------------------------
 Warning -- This program may not be used in any manner that
 competes with the business of Gaussian, Inc. or will provide
 assistance to any competitor of Gaussian, Inc.  The licensee
 of this program is prohibited from giving any competitor of
 Gaussian, Inc. access to this program.  By using this program,
 the user acknowledges that Gaussian, Inc. is engaged in the
 business of creating and licensing software in the field of
 computational chemistry and represents and warrants to the
 licensee that it is not a competitor of Gaussian, Inc. and that
 it will not use this program in any manner prohibited above.
 ---------------------------------------------------------------
  

 Cite this work as:
 Gaussian 09, Revision D.01,
 M. J. Frisch, G. W. Trucks, H. B. Schlegel, G. E. Scuseria, 
 M. A. Robb, J. R. Cheeseman, G. Scalmani, V. Barone, B. Mennucci, 
 G. A. Petersson, H. Nakatsuji, M. Caricato, X. Li, H. P. Hratchian, 
 A. F. Izmaylov, J. Bloino, G. Zheng, J. L. Sonnenberg, M. Hada, 
 M. Ehara, K. Toyota, R. Fukuda, J. Hasegawa, M. Ishida, T. Nakajima, 
 Y. Honda, O. Kitao, H. Nakai, T. Vreven, J. A. Montgomery, Jr., 
 J. E. Peralta, F. Ogliaro, M. Bearpark, J. J. Heyd, E. Brothers, 
 K. N. Kudin, V. N. Staroverov, T. Keith, R. Kobayashi, J. Normand, 
 K. Raghavachari, A. Rendell, J. C. Burant, S. S. Iyengar, J. Tomasi, 
 M. Cossi, N. Rega, J. M. Millam, M. Klene, J. E. Knox, J. B. Cross, 
 V. Bakken, C. Adamo, J. Jaramillo, R. Gomperts, R. E. Stratmann, 
 O. Yazyev, A. J. Austin, R. Cammi, C. Pomelli, J. W. Ochterski, 
 R. L. Martin, K. Morokuma, V. G. Zakrzewski, G. A. Voth, 
 P. Salvador, J. J. Dannenberg, S. Dapprich, A. D. Daniels, 
 O. Farkas, J. B. Foresman, J. V. Ortiz, J. Cioslowski, 
 and D. J. Fox, Gaussian, Inc., Wallingford CT, 2013.
 
 ******************************************
 Gaussian 09:  AM64L-G09RevD.01 24-Apr-2013
                18-Apr-2022 
 ******************************************
 %chk=binap-dedoubl-opt-freq
 -----------
 #n PM6 freq
 -----------
 1/10=4,30=1,38=1/1,3;
 2/12=2,17=6,18=5,40=1/2;
 3/5=2,16=1,25=1,41=3900000,71=2,140=1/1,2,3;
 4/35=1/1;
 5/5=2,35=1,38=5,98=1/2;
 8/6=4,10=90,11=11/1;
 11/6=1,8=1,9=11,15=111,16=1/1,2,10;
 10/6=1/2;
 6/7=2,8=2,9=2,10=2,18=1,28=1/1;
 7/8=1,10=1,25=1/1,2,3,16;
 1/10=4,30=1/3;
 99//99;
 ----------
 UV-spectra
 ----------
 Symbolic Z-matrix:
 Charge =  0 Multiplicity = 1
 Cl                   -5.18963  -3.59275  -2.47478 
 O                    -4.73232  -7.61283  -1.32981 
 O                    -1.0162   -8.57615  -2.46583 
 O                    -3.32727  -5.67946  -2.33375 
 N                    -5.39547  -7.59143  -4.32859 
 N                    -3.69835  -12.27566   0.01996 
 C                    -6.20301  -8.07975  -5.5451 
 C                    -7.50732  -8.7557   -5.09455 
 C                    -7.7382   -8.46216  -3.59922 
 C                    -6.62429  -9.14181  -2.7855 
 C                    -5.23671  -8.80363  -3.37303 
 C                    -7.65638  -6.92588  -3.39421 
 C                    -6.18902  -6.48829  -3.61975 
 C                    -8.14708  -6.49821  -2.03436 
 C                    -8.1854   -5.22691  -1.64302 
 C                    -4.03359  -7.07061  -4.78852 
 C                    -4.10007  -6.19135  -6.00599 
 C                    -3.95403  -6.75014  -7.28761 
 C                    -3.99676  -5.93015  -8.4167 
 C                    -4.17576  -4.54892  -8.2765 
 C                    -4.29643  -3.98901  -7.00209 
 C                    -4.25284  -4.80541  -5.86734 
 C                    -4.19794  -8.57322  -2.22708 
 C                    -4.00638  -9.87659  -1.46537 
 C                    -3.33245  -10.99814  -2.0619 
 C                    -2.76982  -10.99715  -3.3758 
 C                    -2.14616  -12.11295  -3.87615 
 C                    -2.04173  -13.30064  -3.09363 
 C                    -2.5566   -13.34045  -1.82441 
 C                    -3.20921  -12.18391  -1.28004 
 C                    -4.29139  -11.20742   0.54298 
 C                    -4.46838  -9.98188  -0.17491 
 C                    -0.819    -7.88562  -3.64318 
 C                    -0.63437  -8.59572  -4.86566 
 C                    -0.51543  -7.88852  -6.03592 
 C                    -0.58687  -6.46232  -6.03534 
 C                    -0.47805  -5.71846  -7.25548 
 C                    -0.53629  -4.34925  -7.2443 
 C                    -0.70636  -3.64729  -6.01294 
 C                    -0.81288  -4.33211  -4.83111 
 C                    -0.75653  -5.76546  -4.80767 
 C                    -0.85879  -6.49879  -3.57765 
 C                    -0.94387  -5.79028  -2.29062 
 C                    -2.16622  -5.39776  -1.74846 
 C                    -2.21676  -4.66393  -0.50735 
 C                    -1.06674  -4.37167   0.1644 
 C                     0.20758  -4.78037  -0.35187 
 C                     1.41311  -4.4806    0.3514 
 C                     2.63264  -4.86465  -0.15111 
 C                     2.69981  -5.56805  -1.38659 
 C                     1.55576  -5.87063  -2.08262 
 C                     0.2681   -5.48813  -1.58239 
 H                    -6.42403  -7.20201  -6.19591 
 H                    -5.57933  -8.7732   -6.14556 
 H                    -8.35729  -8.38899  -5.70103 
 H                    -7.46665  -9.8475   -5.2686 
 H                    -8.73385  -8.84171  -3.28127 
 H                    -6.75958  -10.23701  -2.74962 
 H                    -6.67227  -8.7931   -1.72574 
 H                    -8.30493  -6.42872  -4.16091 
 H                    -5.68694  -6.28203  -2.63038 
 H                    -6.13785  -5.54426  -4.20217 
 H                    -8.47624  -7.30464  -1.37889 
 H                    -7.84552  -4.39167  -2.24547 
 H                    -8.53593  -4.91849  -0.66726 
 H                    -3.78555  -7.81776  -7.40603 
 H                    -3.88162  -6.36427  -9.40843 
 H                    -4.20874  -3.91131  -9.15858 
 H                    -4.41531  -2.91127  -6.88446 
 H                    -4.31427  -4.35013  -4.87263 
 H                    -3.20659  -8.20689  -2.60586 
 H                    -2.82989  -10.0886  -3.97419 
 H                    -1.71904  -12.1127  -4.87821 
 H                    -1.54273  -14.16957  -3.52237 
 H                    -2.48547  -14.23206  -1.19697 
 H                    -4.65712  -11.29239   1.5753 
 H                    -4.95573  -9.12918   0.31026 
 H                    -4.15094  -6.74576  -1.36913 
 H                    -0.55994  -9.67895  -4.84829 
 H                    -0.35633  -8.40467  -6.98199 
 H                    -0.34765  -6.26448  -8.18752 
 H                    -0.45394  -3.77599  -8.16532 
 H                    -0.7487   -2.55911  -6.03253 
 H                    -0.94281  -3.80506  -3.88184 
 H                    -3.19412  -4.35436  -0.14136 
 H                    -1.09416  -3.82052   1.10459 
 H                     1.34563  -3.94082   1.29472 
 H                     3.55401  -4.64023   0.37898 
 H                     3.67611  -5.86069  -1.76882 
 H                     1.60991  -6.40732  -3.02846 
 H                    -0.72119  -9.51767  -2.53273 
 H                    -4.19721  -4.57299  -2.30738 
 H                    -4.87697  -9.6586   -4.00342 
 H                    -3.54871  -6.47985  -3.92043 
 H                    -3.34322  -7.92467  -4.96582 
 

 GradGradGradGradGradGradGradGradGradGradGradGradGradGradGradGradGradGrad
 Berny optimization.
 Initialization pass.
 Trust Radius=3.00D-01 FncErr=1.00D-07 GrdErr=1.00D-07
 Number of steps in this run=      2 maximum allowed number of steps=      2.
 GradGradGradGradGradGradGradGradGradGradGradGradGradGradGradGradGradGrad

 Stoichiometry    C46H43ClN2O3
 Framework group  C1[X(C46H43ClN2O3)]
 Deg. of freedom   279
 Full point group                 C1      NOp   1
 Largest Abelian subgroup         C1      NOp   1
 Largest concise Abelian subgroup C1      NOp   1
                         Standard orientation:                         
 ---------------------------------------------------------------------
 Center     Atomic      Atomic             Coordinates (Angstroms)
 Number     Number       Type             X           Y           Z
 ---------------------------------------------------------------------
      1         17           0       -0.901078   -2.424741    3.350044
      2          8           0        1.769951    0.472786    1.883377
      3          8           0       -0.329259    2.491546   -0.863622
      4          8           0       -0.720032   -0.208658    1.647451
      5          7           0        1.743362   -1.843096   -0.133777
      6          7           0        4.520154    4.156891    0.013443
      7          6           0        2.455564   -2.879766   -1.021779
      8          6           0        3.909123   -3.078350   -0.564759
      9          6           0        4.101604   -2.411921    0.811579
     10          6           0        3.928051   -0.892264    0.652282
     11          6           0        2.630747   -0.570255   -0.121189
     12          6           0        3.003477   -2.954761    1.764653
     13          6           0        1.638305   -2.401353    1.289741
     14          6           0        3.262074   -2.596925    3.206162
     15          6           0        2.462403   -2.970990    4.201858
     16          6           0        0.356553   -1.542052   -0.702673
     17          6           0       -0.403995   -2.767283   -1.127104
     18          6           0       -0.318137   -3.225778   -2.453198
     19          6           0       -1.039858   -4.352575   -2.851318
     20          6           0       -1.857923   -5.023821   -1.934967
     21          6           0       -1.963400   -4.554813   -0.623069
     22          6           0       -1.243885   -3.425593   -0.219037
     23          6           0        1.926271    0.685266    0.489310
     24          6           0        2.823817    1.898478    0.293804
     25          6           0        3.042952    2.462948   -1.010517
     26          6           0        2.441918    1.976717   -2.212692
     27          6           0        2.707322    2.568456   -3.422535
     28          6           0        3.588118    3.686834   -3.507888
     29          6           0        4.175881    4.192421   -2.378057
     30          6           0        3.909174    3.591568   -1.102254
     31          6           0        4.270199    3.620714    1.203575
     32          6           0        3.423816    2.480819    1.384991
     33          6           0       -1.135558    1.542626   -1.456334
     34          6           0       -0.961544    1.216473   -2.833342
     35          6           0       -1.723761    0.216089   -3.382918
     36          6           0       -2.670366   -0.498567   -2.587700
     37          6           0       -3.459033   -1.554001   -3.151603
     38          6           0       -4.373349   -2.227010   -2.383922
     39          6           0       -4.550430   -1.882469   -1.009931
     40          6           0       -3.810684   -0.877641   -0.444102
     41          6           0       -2.844755   -0.153704   -1.219413
     42          6           0       -2.066459    0.907059   -0.644764
     43          6           0       -2.298607    1.336012    0.743681
     44          6           0       -1.634324    0.743032    1.815706
     45          6           0       -1.915523    1.152236    3.170294
     46          6           0       -2.815829    2.146890    3.413816
     47          6           0       -3.500973    2.795836    2.333570
     48          6           0       -4.440275    3.841040    2.584616
     49          6           0       -5.102234    4.453405    1.548233
     50          6           0       -4.853003    4.043662    0.208197
     51          6           0       -3.953488    3.042163   -0.061485
     52          6           0       -3.243273    2.387202    0.997392
     53          1           0        1.893527   -3.840610   -0.960738
     54          1           0        2.410010   -2.550124   -2.079919
     55          1           0        4.149965   -4.157324   -0.514120
     56          1           0        4.616101   -2.649771   -1.299928
     57          1           0        5.111727   -2.644161    1.214280
     58          1           0        4.793370   -0.437369    0.139103
     59          1           0        3.885478   -0.415060    1.660967
     60          1           0        2.987314   -4.072701    1.690068
     61          1           0        1.300381   -1.563511    1.965987
     62          1           0        0.850864   -3.182763    1.338207
     63          1           0        4.158878   -2.004924    3.389468
     64          1           0        1.546374   -3.536405    4.070325
     65          1           0        2.645782   -2.713991    5.236473
     66          1           0        0.291577   -2.694799   -3.180192
     67          1           0       -0.973710   -4.705245   -3.879182
     68          1           0       -2.419949   -5.902450   -2.247754
     69          1           0       -2.614914   -5.060572    0.090536
     70          1           0       -1.361829   -3.047973    0.802727
     71          1           0        0.918754    0.882588    0.034963
     72          1           0        1.754347    1.133504   -2.154522
     73          1           0        2.250669    2.196649   -4.338927
     74          1           0        3.779316    4.131097   -4.484576
     75          1           0        4.848500    5.052845   -2.409148
     76          1           0        4.748005    4.089277    2.074669
     77          1           0        3.244743    2.087072    2.391419
     78          1           0        0.752261    0.397303    2.106924
     79          1           0       -0.253828    1.782948   -3.431238
     80          1           0       -1.623737   -0.042057   -4.436541
     81          1           0       -3.315891   -1.806859   -4.200130
     82          1           0       -4.977037   -3.029109   -2.803314
     83          1           0       -5.284339   -2.432943   -0.422853
     84          1           0       -3.938166   -0.604674    0.607092
     85          1           0       -1.392071    0.637381    3.973990
     86          1           0       -3.033109    2.465801    4.433403
     87          1           0       -4.621158    4.142646    3.615190
     88          1           0       -5.818023    5.249757    1.731960
     89          1           0       -5.390119    4.539616   -0.598298
     90          1           0       -3.765859    2.729312   -1.087396
     91          1           0        0.112212    3.073601   -1.530168
     92          1           0       -0.882059   -1.247421    2.583658
     93          1           0        2.877457   -0.345805   -1.191951
     94          1           0       -0.257225   -0.972479    0.095163
     95          1           0        0.443626   -0.827985   -1.551194
 ---------------------------------------------------------------------
 Rotational constants (GHZ):      0.0630898      0.0561273      0.0459433
 Standard basis: VSTO-6G (5D, 7F)
 There are   257 symmetry adapted cartesian basis functions of A   symmetry.
 There are   256 symmetry adapted basis functions of A   symmetry.
   256 basis functions,  1542 primitive gaussians,   257 cartesian basis functions
   131 alpha electrons      131 beta electrons
       nuclear repulsion energy      3838.4646536215 Hartrees.
 Integral buffers will be    131072 words long.
 Regular integral format.
 Two-electron integral symmetry is turned off.
 Do NDO integrals.
 One-electron integrals computed using PRISM.
 NBasis=   256 RedAO= F EigKep=  0.00D+00  NBF=   256
 NBsUse=   256 1.00D-04 EigRej=  0.00D+00 NBFU=   256
 Nonelectrostatic core Hamiltonian diagonalized for initial guess.
 Overlap will be assumed to be unity.
 Keep J ints in memory in canonical form, NReq=2312328.
 Requested convergence on RMS density matrix=1.00D-08 within 128 cycles.
 Requested convergence on MAX density matrix=1.00D-06.
 Requested convergence on             energy=1.00D-06.
 No special actions if energy rises.
 SCF Done:  E(RPM6) = -0.440597983652E-02 A.U. after   28 cycles
            NFock= 27  Conv=0.57D-08     -V/T= 1.0000
 Range of M.O.s used for correlation:     1   256
 NBasis=   256 NAE=   131 NBE=   131 NFC=     0 NFV=     0
 NROrb=    256 NOA=   131 NOB=   131 NVA=   125 NVB=   125
 Symmetrizing basis deriv contribution to polar:
 IMax=3 JMax=2 DiffMx= 0.00D+00
 G2DrvN: will do    96 centers at a time, making    1 passes.
 Calling FoFCou, ICntrl=  3107 FMM=F I1Cent=   0 AccDes= 0.00D+00.
 End of G2Drv F.D. properties file   721 does not exist.
 End of G2Drv F.D. properties file   722 does not exist.
 End of G2Drv F.D. properties file   788 does not exist.
          IDoAtm=11111111111111111111111111111111111111111111111111
          IDoAtm=111111111111111111111111111111111111111111111
          Differentiating once with respect to electric field.
                with respect to dipole field.
          Differentiating once with respect to nuclear coordinates.
          Electric field/nuclear overlap derivatives assumed to be zero.
 Keep J ints in memory in canonical form, NReq=2127692.
          There are   288 degrees of freedom in the 1st order CPHF.  IDoFFX=5 NUNeed=   288.
 LinEq1:  Iter=  0 NonCon=   288 RMS=1.26D-01 Max=5.52D+00 NDo=   288
 AX will form   288 AO Fock derivatives at one time.
 LinEq1:  Iter=  1 NonCon=   288 RMS=2.76D-02 Max=8.73D-01 NDo=   288
 LinEq1:  Iter=  2 NonCon=   288 RMS=7.25D-03 Max=4.51D-01 NDo=   288
 LinEq1:  Iter=  3 NonCon=   288 RMS=2.88D-03 Max=1.61D-01 NDo=   288
 LinEq1:  Iter=  4 NonCon=   288 RMS=8.97D-04 Max=2.92D-02 NDo=   288
 LinEq1:  Iter=  5 NonCon=   288 RMS=2.92D-04 Max=1.31D-02 NDo=   288
 LinEq1:  Iter=  6 NonCon=   288 RMS=8.73D-05 Max=3.13D-03 NDo=   288
 LinEq1:  Iter=  7 NonCon=   288 RMS=2.64D-05 Max=9.55D-04 NDo=   288
 LinEq1:  Iter=  8 NonCon=   284 RMS=7.20D-06 Max=2.49D-04 NDo=   288
 LinEq1:  Iter=  9 NonCon=   179 RMS=1.89D-06 Max=6.95D-05 NDo=   288
 LinEq1:  Iter= 10 NonCon=    64 RMS=4.87D-07 Max=1.63D-05 NDo=   288
 LinEq1:  Iter= 11 NonCon=     3 RMS=1.32D-07 Max=4.08D-06 NDo=   288
 LinEq1:  Iter= 12 NonCon=     3 RMS=3.02D-08 Max=8.67D-07 NDo=   288
 LinEq1:  Iter= 13 NonCon=     3 RMS=8.20D-09 Max=2.45D-07 NDo=   288
 LinEq1:  Iter= 14 NonCon=     0 RMS=2.37D-09 Max=7.39D-08 NDo=   288
 Linear equations converged to 1.000D-08 1.000D-07 after    14 iterations.
 Isotropic polarizability for W=    0.000000      423.94 Bohr**3.
 End of Minotr F.D. properties file   721 does not exist.
 End of Minotr F.D. properties file   722 does not exist.
 End of Minotr F.D. properties file   788 does not exist.

 **********************************************************************

            Population analysis using the SCF density.

 **********************************************************************

 Orbital symmetries:
       Occupied  (A) (A) (A) (A) (A) (A) (A) (A) (A) (A) (A) (A)
                 (A) (A) (A) (A) (A) (A) (A) (A) (A) (A) (A) (A)
                 (A) (A) (A) (A) (A) (A) (A) (A) (A) (A) (A) (A)
                 (A) (A) (A) (A) (A) (A) (A) (A) (A) (A) (A) (A)
                 (A) (A) (A) (A) (A) (A) (A) (A) (A) (A) (A) (A)
                 (A) (A) (A) (A) (A) (A) (A) (A) (A) (A) (A) (A)
                 (A) (A) (A) (A) (A) (A) (A) (A) (A) (A) (A) (A)
                 (A) (A) (A) (A) (A) (A) (A) (A) (A) (A) (A) (A)
                 (A) (A) (A) (A) (A) (A) (A) (A) (A) (A) (A) (A)
                 (A) (A) (A) (A) (A) (A) (A) (A) (A) (A) (A) (A)
                 (A) (A) (A) (A) (A) (A) (A) (A) (A) (A) (A)
       Virtual   (A) (A) (A) (A) (A) (A) (A) (A) (A) (A) (A) (A)
                 (A) (A) (A) (A) (A) (A) (A) (A) (A) (A) (A) (A)
                 (A) (A) (A) (A) (A) (A) (A) (A) (A) (A) (A) (A)
                 (A) (A) (A) (A) (A) (A) (A) (A) (A) (A) (A) (A)
                 (A) (A) (A) (A) (A) (A) (A) (A) (A) (A) (A) (A)
                 (A) (A) (A) (A) (A) (A) (A) (A) (A) (A) (A) (A)
                 (A) (A) (A) (A) (A) (A) (A) (A) (A) (A) (A) (A)
                 (A) (A) (A) (A) (A) (A) (A) (A) (A) (A) (A) (A)
                 (A) (A) (A) (A) (A) (A) (A) (A) (A) (A) (A) (A)
                 (A) (A) (A) (A) (A) (A) (A) (A) (A) (A) (A) (A)
                 (A) (A) (A) (A) (A)
 The electronic state is 1-A.
 Alpha  occ. eigenvalues --   -1.24674  -1.18227  -1.13137  -1.11874  -1.10640
 Alpha  occ. eigenvalues --   -1.10529  -1.10252  -1.09447  -1.08450  -1.06215
 Alpha  occ. eigenvalues --   -1.05761  -1.04447  -1.02922  -1.01569  -1.00773
 Alpha  occ. eigenvalues --   -1.00424  -0.98945  -0.97317  -0.97024  -0.96160
 Alpha  occ. eigenvalues --   -0.96006  -0.95506  -0.95143  -0.93280  -0.92344
 Alpha  occ. eigenvalues --   -0.90525  -0.90362  -0.89846  -0.88227  -0.85085
 Alpha  occ. eigenvalues --   -0.84549  -0.83696  -0.82463  -0.81148  -0.80430
 Alpha  occ. eigenvalues --   -0.80012  -0.79767  -0.78572  -0.77256  -0.77141
 Alpha  occ. eigenvalues --   -0.75827  -0.75389  -0.73267  -0.71993  -0.70183
 Alpha  occ. eigenvalues --   -0.69009  -0.68561  -0.67445  -0.66578  -0.66367
 Alpha  occ. eigenvalues --   -0.66086  -0.64346  -0.64205  -0.63740  -0.63381
 Alpha  occ. eigenvalues --   -0.62387  -0.62151  -0.60969  -0.60045  -0.59433
 Alpha  occ. eigenvalues --   -0.59105  -0.58593  -0.57878  -0.57518  -0.57422
 Alpha  occ. eigenvalues --   -0.56707  -0.56626  -0.56525  -0.56085  -0.55074
 Alpha  occ. eigenvalues --   -0.55008  -0.54901  -0.54641  -0.54308  -0.54229
 Alpha  occ. eigenvalues --   -0.53861  -0.53372  -0.53197  -0.52824  -0.52679
 Alpha  occ. eigenvalues --   -0.52429  -0.52183  -0.51848  -0.51841  -0.51456
 Alpha  occ. eigenvalues --   -0.51220  -0.50503  -0.50374  -0.50228  -0.49709
 Alpha  occ. eigenvalues --   -0.49440  -0.49017  -0.48308  -0.47930  -0.47736
 Alpha  occ. eigenvalues --   -0.47370  -0.47148  -0.46624  -0.46536  -0.46185
 Alpha  occ. eigenvalues --   -0.45894  -0.45788  -0.45664  -0.45172  -0.44547
 Alpha  occ. eigenvalues --   -0.44456  -0.44067  -0.43615  -0.43212  -0.42872
 Alpha  occ. eigenvalues --   -0.42220  -0.41945  -0.41355  -0.40725  -0.39096
 Alpha  occ. eigenvalues --   -0.38965  -0.38298  -0.37933  -0.37895  -0.37674
 Alpha  occ. eigenvalues --   -0.37368  -0.37180  -0.36855  -0.36303  -0.36007
 Alpha  occ. eigenvalues --   -0.35653  -0.35430  -0.33878  -0.31452  -0.31060
 Alpha  occ. eigenvalues --   -0.28533
 Alpha virt. eigenvalues --   -0.03728  -0.02211  -0.02096  -0.01706  -0.00318
 Alpha virt. eigenvalues --    0.00033   0.00540   0.00762   0.01416   0.02897
 Alpha virt. eigenvalues --    0.03571   0.03745   0.04792   0.05680   0.06426
 Alpha virt. eigenvalues --    0.06521   0.06804   0.07723   0.08265   0.08580
 Alpha virt. eigenvalues --    0.08789   0.08803   0.09124   0.09466   0.10102
 Alpha virt. eigenvalues --    0.10274   0.10638   0.10836   0.11024   0.11205
 Alpha virt. eigenvalues --    0.11420   0.11731   0.12003   0.12355   0.12752
 Alpha virt. eigenvalues --    0.13036   0.13616   0.13717   0.13817   0.14295
 Alpha virt. eigenvalues --    0.14372   0.14566   0.14602   0.14645   0.15172
 Alpha virt. eigenvalues --    0.15210   0.15569   0.15651   0.15719   0.16002
 Alpha virt. eigenvalues --    0.16243   0.16318   0.16361   0.16686   0.16830
 Alpha virt. eigenvalues --    0.16868   0.16915   0.17045   0.17316   0.17339
 Alpha virt. eigenvalues --    0.17444   0.17750   0.17780   0.17880   0.17908
 Alpha virt. eigenvalues --    0.17965   0.18153   0.18371   0.18493   0.18597
 Alpha virt. eigenvalues --    0.18687   0.18747   0.18919   0.18928   0.19113
 Alpha virt. eigenvalues --    0.19250   0.19358   0.19421   0.19504   0.19646
 Alpha virt. eigenvalues --    0.19846   0.19934   0.20035   0.20126   0.20214
 Alpha virt. eigenvalues --    0.20264   0.20322   0.20430   0.20551   0.20659
 Alpha virt. eigenvalues --    0.20716   0.20952   0.20965   0.21076   0.21116
 Alpha virt. eigenvalues --    0.21198   0.21366   0.21488   0.21579   0.21607
 Alpha virt. eigenvalues --    0.21761   0.21816   0.21993   0.22016   0.22383
 Alpha virt. eigenvalues --    0.22421   0.22622   0.22898   0.22959   0.23280
 Alpha virt. eigenvalues --    0.23365   0.23607   0.23750   0.23947   0.24062
 Alpha virt. eigenvalues --    0.24254   0.24478   0.25078   0.25296   0.25373
 Alpha virt. eigenvalues --    3.47258   3.47549   3.47784   3.50127   3.50149
          Condensed to atoms (all electrons):
 Mulliken charges:
               1
     1  Cl  -0.534722
     2  O   -0.602580
     3  O   -0.472223
     4  O   -0.798151
     5  N    0.136169
     6  N   -0.317369
     7  C   -0.207959
     8  C   -0.311588
     9  C   -0.072954
    10  C   -0.313228
    11  C   -0.074478
    12  C   -0.104885
    13  C   -0.226092
    14  C   -0.150266
    15  C   -0.304096
    16  C   -0.307706
    17  C    0.003587
    18  C   -0.184326
    19  C   -0.135962
    20  C   -0.140025
    21  C   -0.123480
    22  C   -0.146161
    23  C    0.135370
    24  C    0.022824
    25  C   -0.098706
    26  C   -0.170352
    27  C   -0.148509
    28  C   -0.139316
    29  C   -0.140987
    30  C    0.144173
    31  C    0.048796
    32  C   -0.236250
    33  C    0.229420
    34  C   -0.327347
    35  C   -0.093534
    36  C   -0.052911
    37  C   -0.147261
    38  C   -0.147747
    39  C   -0.135725
    40  C   -0.145276
    41  C    0.053196
    42  C   -0.029583
    43  C   -0.273823
    44  C    0.442340
    45  C   -0.339084
    46  C   -0.044293
    47  C   -0.118097
    48  C   -0.099586
    49  C   -0.207268
    50  C   -0.100660
    51  C   -0.217082
    52  C    0.154575
    53  H    0.178229
    54  H    0.156329
    55  H    0.155664
    56  H    0.152960
    57  H    0.141868
    58  H    0.152936
    59  H    0.193160
    60  H    0.143303
    61  H    0.227179
    62  H    0.181810
    63  H    0.143140
    64  H    0.170400
    65  H    0.154513
    66  H    0.142301
    67  H    0.145617
    68  H    0.149147
    69  H    0.156405
    70  H    0.186164
    71  H    0.172448
    72  H    0.146191
    73  H    0.147772
    74  H    0.153872
    75  H    0.175985
    76  H    0.169844
    77  H    0.199401
    78  H    0.379763
    79  H    0.160434
    80  H    0.143903
    81  H    0.142741
    82  H    0.143969
    83  H    0.147963
    84  H    0.175052
    85  H    0.176325
    86  H    0.138980
    87  H    0.138304
    88  H    0.144637
    89  H    0.135903
    90  H    0.157433
    91  H    0.324295
    92  H    0.363930
    93  H    0.149074
    94  H    0.276950
    95  H    0.174904
 Sum of Mulliken charges =  -0.00000
 Mulliken charges with hydrogens summed into heavy atoms:
               1
     1  Cl  -0.170792
     2  O   -0.222816
     3  O   -0.147928
     4  O   -0.798151
     5  N    0.136169
     6  N   -0.317369
     7  C    0.126600
     8  C   -0.002964
     9  C    0.068914
    10  C    0.032867
    11  C    0.074596
    12  C    0.038418
    13  C    0.182897
    14  C   -0.007126
    15  C    0.020818
    16  C    0.144148
    17  C    0.003587
    18  C   -0.042026
    19  C    0.009655
    20  C    0.009121
    21  C    0.032925
    22  C    0.040003
    23  C    0.307818
    24  C    0.022824
    25  C   -0.098706
    26  C   -0.024161
    27  C   -0.000737
    28  C    0.014555
    29  C    0.034998
    30  C    0.144173
    31  C    0.218641
    32  C   -0.036848
    33  C    0.229420
    34  C   -0.166912
    35  C    0.050368
    36  C   -0.052911
    37  C   -0.004520
    38  C   -0.003778
    39  C    0.012238
    40  C    0.029776
    41  C    0.053196
    42  C   -0.029583
    43  C   -0.273823
    44  C    0.442340
    45  C   -0.162759
    46  C    0.094687
    47  C   -0.118097
    48  C    0.038718
    49  C   -0.062631
    50  C    0.035243
    51  C   -0.059649
    52  C    0.154575
 APT charges:
               1
     1  Cl  -0.897947
     2  O   -0.809622
     3  O   -0.792150
     4  O   -1.904194
     5  N    0.015593
     6  N   -0.435430
     7  C   -0.199694
     8  C   -0.339646
     9  C    0.008651
    10  C   -0.351379
    11  C   -0.021360
    12  C   -0.031844
    13  C   -0.271643
    14  C   -0.130996
    15  C   -0.379778
    16  C   -0.259711
    17  C   -0.002247
    18  C   -0.181979
    19  C   -0.182993
    20  C   -0.163048
    21  C   -0.138937
    22  C   -0.189847
    23  C    0.385394
    24  C    0.116301
    25  C   -0.197417
    26  C   -0.188515
    27  C   -0.167184
    28  C   -0.190132
    29  C   -0.178109
    30  C    0.138928
    31  C    0.225995
    32  C   -0.458550
    33  C    0.508270
    34  C   -0.348264
    35  C   -0.038976
    36  C   -0.144581
    37  C   -0.161154
    38  C   -0.204147
    39  C   -0.102891
    40  C   -0.216092
    41  C    0.142410
    42  C   -0.045448
    43  C   -0.623373
    44  C    1.187614
    45  C   -0.525993
    46  C    0.159880
    47  C   -0.394419
    48  C    0.052007
    49  C   -0.419547
    50  C   -0.007280
    51  C   -0.275514
    52  C    0.345470
    53  H    0.155971
    54  H    0.134352
    55  H    0.156348
    56  H    0.148433
    57  H    0.126650
    58  H    0.140247
    59  H    0.192986
    60  H    0.100745
    61  H    0.247047
    62  H    0.170389
    63  H    0.139894
    64  H    0.202128
    65  H    0.194823
    66  H    0.144927
    67  H    0.171396
    68  H    0.190774
    69  H    0.177708
    70  H    0.203287
    71  H    0.151767
    72  H    0.181689
    73  H    0.179202
    74  H    0.201771
    75  H    0.224980
    76  H    0.203194
    77  H    0.236604
    78  H    0.670742
    79  H    0.198027
    80  H    0.171050
    81  H    0.162152
    82  H    0.181894
    83  H    0.172794
    84  H    0.178553
    85  H    0.206966
    86  H    0.163696
    87  H    0.161986
    88  H    0.197287
    89  H    0.157889
    90  H    0.160109
    91  H    0.358265
    92  H    1.123674
    93  H    0.102706
    94  H    0.398694
    95  H    0.141734
 Sum of APT charges =   0.00001
 APT charges with hydrogens summed into heavy atoms:
               1
     1  Cl   0.225727
     2  O   -0.138879
     3  O   -0.433885
     4  O   -1.904194
     5  N    0.015593
     6  N   -0.435430
     7  C    0.090630
     8  C   -0.034865
     9  C    0.135300
    10  C   -0.018147
    11  C    0.081346
    12  C    0.068900
    13  C    0.145792
    14  C    0.008897
    15  C    0.017173
    16  C    0.280717
    17  C   -0.002247
    18  C   -0.037053
    19  C   -0.011596
    20  C    0.027725
    21  C    0.038771
    22  C    0.013440
    23  C    0.537161
    24  C    0.116301
    25  C   -0.197417
    26  C   -0.006827
    27  C    0.012018
    28  C    0.011639
    29  C    0.046872
    30  C    0.138928
    31  C    0.429189
    32  C   -0.221946
    33  C    0.508270
    34  C   -0.150237
    35  C    0.132074
    36  C   -0.144581
    37  C    0.000997
    38  C   -0.022252
    39  C    0.069903
    40  C   -0.037539
    41  C    0.142410
    42  C   -0.045448
    43  C   -0.623373
    44  C    1.187614
    45  C   -0.319027
    46  C    0.323576
    47  C   -0.394419
    48  C    0.213993
    49  C   -0.222261
    50  C    0.150609
    51  C   -0.115405
    52  C    0.345470
 Charge=              0.0000 electrons
 Dipole moment (field-independent basis, Debye):
    X=              6.5793    Y=             -5.4405    Z=             -8.6468  Tot=             12.1513
 N-N= 3.838464653621D+03 E-N=-7.297034285614D+03  KE=-2.098785317983D+02
  Exact polarizability: 372.673  59.327 421.847  -5.196  13.181 477.287
 Approx polarizability: 281.471  67.717 324.533 -11.523   6.507 441.258
 Calling FoFJK, ICntrl=    100127 FMM=F ISym2X=0 I1Cent= 0 IOpClX= 0 NMat=1 NMatS=1 NMatT=0.
 Full mass-weighted force constant matrix:
 Low frequencies ---   -0.5847   -0.2940   -0.1259   -0.0343    0.9599    1.1187
 Low frequencies ---   10.0442   15.1641   16.4415
 Diagonal vibrational polarizability:
      265.5309036     199.0764942     139.0742951
 Harmonic frequencies (cm**-1), IR intensities (KM/Mole), Raman scattering
 activities (A**4/AMU), depolarization ratios for plane and unpolarized
 incident light, reduced masses (AMU), force constants (mDyne/A),
 and normal coordinates:
                      1                      2                      3
                      A                      A                      A
 Frequencies --     10.0439                15.1641                16.4414
 Red. masses --      6.3150                 6.3770                 6.2090
 Frc consts  --      0.0004                 0.0009                 0.0010
 IR Inten    --      0.2611                 0.5016                 0.0751
  Atom  AN      X      Y      Z        X      Y      Z        X      Y      Z
     1  17     0.10   0.07   0.08     0.06   0.04   0.02    -0.01   0.02  -0.00
     2   8    -0.01  -0.03  -0.02     0.01  -0.02   0.00     0.04   0.06  -0.00
     3   8     0.01   0.06   0.05     0.01  -0.11  -0.07     0.01  -0.03   0.04
     4   8    -0.01   0.02   0.00     0.01   0.02  -0.01     0.04   0.02   0.00
     5   7    -0.02  -0.02  -0.02     0.02   0.02  -0.02     0.02   0.03   0.01
     6   7     0.00  -0.02   0.03     0.08  -0.02   0.11     0.14  -0.05  -0.09
     7   6    -0.04  -0.01  -0.04     0.01   0.03  -0.05     0.02   0.00   0.04
     8   6    -0.02  -0.00  -0.09     0.02   0.03  -0.07     0.00  -0.02   0.07
     9   6     0.01  -0.01  -0.09     0.03   0.00  -0.05    -0.01  -0.00   0.06
    10   6     0.00  -0.01  -0.07     0.03   0.00  -0.02     0.02  -0.00   0.04
    11   6    -0.02  -0.01  -0.04     0.02   0.02  -0.01     0.04   0.01   0.02
    12   6     0.04  -0.03  -0.06     0.04  -0.02  -0.06    -0.03   0.03   0.05
    13   6     0.03  -0.02  -0.01     0.03  -0.00  -0.03    -0.02   0.04   0.02
    14   6     0.09  -0.04  -0.06     0.05  -0.06  -0.05    -0.06   0.05   0.05
    15   6     0.10  -0.03  -0.04     0.05  -0.07  -0.05    -0.05   0.03   0.05
    16   6    -0.03  -0.02   0.02     0.02   0.03  -0.01     0.03   0.05  -0.01
    17   6    -0.05  -0.03   0.08    -0.00   0.03   0.01     0.02   0.06  -0.01
    18   6    -0.09  -0.07   0.09    -0.01   0.01   0.02     0.03   0.05  -0.01
    19   6    -0.11  -0.07   0.14    -0.03   0.01   0.04     0.01   0.06  -0.01
    20   6    -0.09  -0.04   0.18    -0.05   0.05   0.05    -0.02   0.09  -0.02
    21   6    -0.05  -0.00   0.17    -0.04   0.08   0.04    -0.04   0.10  -0.03
    22   6    -0.03   0.00   0.12    -0.02   0.07   0.02    -0.02   0.09  -0.02
    23   6    -0.01  -0.02  -0.02     0.03   0.01   0.01     0.05   0.03  -0.01
    24   6    -0.00  -0.02  -0.01     0.04   0.01   0.05     0.07   0.01  -0.03
    25   6     0.01  -0.01   0.00     0.05   0.04   0.06     0.07  -0.01  -0.04
    26   6     0.02   0.00  -0.01     0.03   0.09   0.05     0.03  -0.00  -0.02
    27   6     0.03   0.02  -0.00     0.04   0.12   0.07     0.03  -0.03  -0.03
    28   6     0.03   0.02   0.02     0.06   0.11   0.10     0.07  -0.07  -0.07
    29   6     0.02   0.01   0.03     0.07   0.06   0.11     0.11  -0.07  -0.08
    30   6     0.01  -0.00   0.02     0.07   0.03   0.09     0.10  -0.04  -0.07
    31   6    -0.00  -0.03   0.02     0.07  -0.05   0.09     0.14  -0.02  -0.07
    32   6    -0.01  -0.03   0.00     0.06  -0.04   0.06     0.11   0.01  -0.05
    33   6     0.03   0.06   0.02    -0.03  -0.10  -0.05    -0.00  -0.01   0.02
    34   6     0.06   0.09   0.02    -0.05  -0.14  -0.04    -0.01   0.01   0.02
    35   6     0.08   0.09  -0.02    -0.08  -0.13  -0.01    -0.02   0.03   0.00
    36   6     0.07   0.07  -0.05    -0.09  -0.08   0.01    -0.03   0.03  -0.01
    37   6     0.09   0.07  -0.09    -0.13  -0.07   0.04    -0.04   0.06  -0.03
    38   6     0.08   0.05  -0.12    -0.14  -0.03   0.06    -0.06   0.06  -0.05
    39   6     0.05   0.02  -0.12    -0.12   0.01   0.06    -0.05   0.04  -0.04
    40   6     0.03   0.02  -0.08    -0.09  -0.00   0.03    -0.04   0.02  -0.02
    41   6     0.04   0.04  -0.05    -0.07  -0.05   0.00    -0.03   0.01  -0.01
    42   6     0.02   0.03  -0.01    -0.04  -0.05  -0.03    -0.01  -0.01   0.01
    43   6    -0.02   0.01  -0.01    -0.02  -0.02  -0.03    -0.02  -0.02   0.02
    44   6    -0.03   0.00  -0.00     0.00   0.02  -0.03     0.02  -0.00   0.01
    45   6    -0.07  -0.02  -0.00     0.03   0.06  -0.04     0.02  -0.01   0.01
    46   6    -0.09  -0.04  -0.01     0.02   0.07  -0.05    -0.02  -0.05   0.02
    47   6    -0.08  -0.04  -0.01    -0.00   0.03  -0.06    -0.07  -0.08   0.03
    48   6    -0.11  -0.06  -0.02    -0.01   0.03  -0.08    -0.12  -0.13   0.05
    49   6    -0.09  -0.06  -0.02    -0.03  -0.01  -0.08    -0.17  -0.17   0.05
    50   6    -0.05  -0.03  -0.02    -0.05  -0.05  -0.07    -0.16  -0.15   0.05
    51   6    -0.03  -0.01  -0.02    -0.05  -0.05  -0.06    -0.11  -0.10   0.04
    52   6    -0.04  -0.01  -0.01    -0.02  -0.02  -0.05    -0.06  -0.07   0.03
    53   1    -0.03  -0.02  -0.02     0.02   0.03  -0.06    -0.00   0.02   0.04
    54   1    -0.08  -0.01  -0.04     0.00   0.05  -0.04     0.04  -0.00   0.03
    55   1    -0.01  -0.00  -0.10     0.02   0.03  -0.09    -0.02  -0.02   0.09
    56   1    -0.05   0.01  -0.10     0.01   0.05  -0.06     0.03  -0.04   0.08
    57   1     0.02  -0.01  -0.12     0.03  -0.01  -0.07    -0.02  -0.02   0.08
    58   1    -0.01  -0.00  -0.09     0.02   0.02  -0.01     0.04  -0.03   0.05
    59   1     0.02  -0.02  -0.07     0.03  -0.02  -0.01     0.02   0.01   0.03
    60   1     0.04  -0.02  -0.07     0.03  -0.02  -0.08    -0.05   0.03   0.07
    61   1     0.06  -0.02   0.00     0.05  -0.01  -0.02    -0.02   0.05   0.00
    62   1     0.02  -0.01   0.02     0.03   0.00  -0.03    -0.03   0.05   0.01
    63   1     0.10  -0.07  -0.08     0.06  -0.07  -0.04    -0.09   0.09   0.05
    64   1     0.09  -0.01  -0.02     0.04  -0.05  -0.06    -0.03  -0.01   0.04
    65   1     0.14  -0.05  -0.05     0.06  -0.10  -0.05    -0.07   0.04   0.05
    66   1    -0.11  -0.09   0.05     0.00  -0.02   0.01     0.06   0.03  -0.00
    67   1    -0.14  -0.10   0.14    -0.04  -0.01   0.05     0.02   0.05  -0.01
    68   1    -0.10  -0.05   0.22    -0.07   0.06   0.07    -0.04   0.10  -0.03
    69   1    -0.03   0.02   0.20    -0.05   0.11   0.05    -0.06   0.13  -0.04
    70   1    -0.00   0.03   0.11    -0.01   0.09   0.01    -0.03   0.10  -0.03
    71   1    -0.01  -0.00  -0.02     0.03   0.03   0.00     0.06   0.03  -0.01
    72   1     0.03  -0.00  -0.02     0.01   0.10   0.03    -0.01   0.02   0.00
    73   1     0.04   0.02  -0.01     0.02   0.16   0.06    -0.00  -0.03  -0.02
    74   1     0.03   0.03   0.02     0.06   0.13   0.11     0.07  -0.09  -0.08
    75   1     0.02   0.01   0.04     0.09   0.05   0.13     0.14  -0.10  -0.11
    76   1    -0.01  -0.04   0.03     0.09  -0.08   0.10     0.17  -0.03  -0.09
    77   1    -0.01  -0.04  -0.00     0.05  -0.06   0.05     0.11   0.02  -0.04
    78   1    -0.01   0.02  -0.02     0.01   0.00  -0.01     0.04   0.05  -0.01
    79   1     0.07   0.11   0.04    -0.03  -0.17  -0.06     0.00   0.02   0.03
    80   1     0.11   0.11  -0.02    -0.09  -0.16  -0.01    -0.02   0.05  -0.00
    81   1     0.12   0.09  -0.09    -0.14  -0.10   0.05    -0.05   0.07  -0.04
    82   1     0.10   0.05  -0.15    -0.17  -0.02   0.08    -0.07   0.07  -0.06
    83   1     0.04   0.00  -0.14    -0.14   0.04   0.07    -0.06   0.04  -0.05
    84   1     0.00  -0.00  -0.08    -0.07   0.03   0.02    -0.04  -0.00  -0.02
    85   1    -0.08  -0.03   0.00     0.05   0.09  -0.03     0.05   0.01   0.01
    86   1    -0.12  -0.06  -0.01     0.04   0.10  -0.06    -0.02  -0.06   0.03
    87   1    -0.13  -0.08  -0.02     0.01   0.06  -0.08    -0.13  -0.15   0.05
    88   1    -0.11  -0.07  -0.02    -0.03  -0.01  -0.10    -0.21  -0.21   0.06
    89   1    -0.05  -0.03  -0.03    -0.07  -0.08  -0.08    -0.19  -0.18   0.06
    90   1     0.00   0.01  -0.02    -0.06  -0.09  -0.05    -0.10  -0.09   0.04
    91   1     0.04   0.05   0.07    -0.05  -0.08  -0.09     0.00  -0.01   0.05
    92   1     0.04   0.04   0.04     0.02   0.03   0.01     0.04   0.01  -0.00
    93   1    -0.05  -0.01  -0.04     0.02   0.03  -0.01     0.06  -0.00   0.02
    94   1    -0.01  -0.00   0.03     0.03   0.04  -0.01     0.03   0.06  -0.02
    95   1    -0.06  -0.04   0.00     0.02   0.02  -0.02     0.06   0.04  -0.01
                      4                      5                      6
                      A                      A                      A
 Frequencies --     22.9585                30.5356                32.4916
 Red. masses --      4.4160                 5.5657                 5.3071
 Frc consts  --      0.0014                 0.0031                 0.0033
 IR Inten    --      0.1261                 0.6621                 0.0508
  Atom  AN      X      Y      Z        X      Y      Z        X      Y      Z
     1  17     0.02  -0.04   0.01    -0.01  -0.05   0.01     0.05  -0.01   0.01
     2   8     0.00   0.02  -0.01    -0.07   0.04  -0.06    -0.02  -0.00   0.00
     3   8     0.02  -0.03  -0.01    -0.07   0.02  -0.01     0.03  -0.06   0.02
     4   8     0.01  -0.07  -0.04    -0.07  -0.07  -0.02    -0.02  -0.02   0.01
     5   7     0.03   0.01  -0.03    -0.03   0.03  -0.03     0.01   0.00   0.01
     6   7    -0.06   0.06  -0.01     0.14  -0.09   0.03    -0.09   0.06   0.01
     7   6     0.06   0.01  -0.00    -0.02   0.02  -0.01     0.02   0.02  -0.00
     8   6     0.04   0.01   0.04    -0.02   0.03   0.00     0.03   0.05  -0.03
     9   6    -0.00   0.01   0.05    -0.02   0.07  -0.02     0.03   0.04  -0.02
    10   6     0.01   0.01   0.04    -0.03   0.06  -0.06     0.00   0.04  -0.01
    11   6     0.03   0.01   0.01    -0.04   0.04  -0.05    -0.01   0.02   0.00
    12   6    -0.03   0.01   0.01    -0.01   0.09   0.00     0.05   0.02  -0.01
    13   6    -0.02   0.01  -0.03    -0.02   0.05  -0.02     0.04  -0.00   0.01
    14   6    -0.09   0.02   0.02    -0.02   0.16  -0.01     0.07   0.01  -0.01
    15   6    -0.07  -0.09   0.00     0.01   0.16   0.01     0.08   0.01  -0.01
    16   6     0.05   0.02  -0.07    -0.03   0.00  -0.03     0.00  -0.01   0.02
    17   6     0.02   0.02  -0.01    -0.01  -0.01  -0.01     0.02  -0.02   0.01
    18   6     0.08  -0.12   0.04    -0.00  -0.05   0.00    -0.01   0.03  -0.01
    19   6     0.04  -0.11   0.10     0.02  -0.07   0.03     0.00   0.03  -0.03
    20   6    -0.06   0.02   0.11     0.03  -0.06   0.04     0.03  -0.01  -0.03
    21   6    -0.12   0.16   0.06     0.01  -0.03   0.03     0.06  -0.06  -0.01
    22   6    -0.09   0.16  -0.00    -0.01  -0.00   0.00     0.05  -0.06   0.01
    23   6     0.01   0.01  -0.01    -0.04   0.04  -0.05    -0.02   0.01   0.00
    24   6    -0.01   0.02  -0.01    -0.01   0.02  -0.02    -0.05   0.03   0.00
    25   6    -0.01   0.02  -0.01     0.04   0.03  -0.01     0.01  -0.02  -0.01
    26   6     0.01  -0.00  -0.01     0.00   0.09  -0.02     0.09  -0.08  -0.02
    27   6     0.00  -0.00  -0.01     0.06   0.09  -0.01     0.17  -0.14  -0.03
    28   6    -0.03   0.02  -0.01     0.15   0.01   0.01     0.18  -0.14  -0.03
    29   6    -0.05   0.04  -0.01     0.18  -0.04   0.02     0.09  -0.08  -0.01
    30   6    -0.04   0.04  -0.01     0.12  -0.03   0.01     0.00  -0.01  -0.00
    31   6    -0.06   0.06  -0.01     0.09  -0.08   0.02    -0.16   0.11   0.02
    32   6    -0.03   0.04  -0.01     0.01  -0.03  -0.00    -0.14   0.09   0.02
    33   6     0.01  -0.02  -0.02    -0.06   0.01  -0.01     0.01  -0.04   0.01
    34   6     0.01  -0.02  -0.02    -0.06   0.02  -0.01     0.01  -0.05   0.02
    35   6    -0.00  -0.01  -0.03    -0.05   0.00  -0.01    -0.02  -0.02   0.01
    36   6    -0.01   0.00  -0.03    -0.02  -0.02   0.00    -0.06   0.02  -0.00
    37   6    -0.03   0.02  -0.04     0.00  -0.05   0.01    -0.10   0.06  -0.01
    38   6    -0.04   0.03  -0.05     0.03  -0.07   0.02    -0.14   0.10  -0.02
    39   6    -0.05   0.03  -0.05     0.03  -0.07   0.02    -0.14   0.10  -0.02
    40   6    -0.03   0.01  -0.04     0.00  -0.05   0.01    -0.10   0.07  -0.01
    41   6    -0.01  -0.00  -0.03    -0.02  -0.03   0.00    -0.06   0.03  -0.00
    42   6     0.01  -0.02  -0.02    -0.04  -0.01  -0.00    -0.02  -0.01   0.01
    43   6     0.02  -0.04  -0.01    -0.04  -0.02   0.00    -0.02  -0.01   0.01
    44   6     0.01  -0.06  -0.02    -0.07  -0.07  -0.00    -0.03  -0.02   0.01
    45   6     0.02  -0.09  -0.02    -0.09  -0.11   0.01    -0.04  -0.04   0.01
    46   6     0.03  -0.08   0.00    -0.07  -0.09   0.02    -0.04  -0.04   0.01
    47   6     0.05  -0.04   0.01    -0.02  -0.03   0.03    -0.02  -0.02   0.01
    48   6     0.07  -0.03   0.03     0.02  -0.00   0.04    -0.01  -0.01   0.02
    49   6     0.09   0.01   0.04     0.07   0.06   0.04     0.01   0.01   0.02
    50   6     0.08   0.03   0.04     0.08   0.10   0.04     0.02   0.03   0.01
    51   6     0.05   0.01   0.02     0.04   0.07   0.02     0.02   0.02   0.01
    52   6     0.04  -0.02   0.01    -0.01   0.00   0.02    -0.01  -0.00   0.01
    53   1     0.05   0.01  -0.02    -0.01   0.02  -0.00     0.04   0.01   0.00
    54   1     0.09   0.02  -0.00    -0.01   0.01  -0.01    -0.01   0.02  -0.00
    55   1     0.04   0.01   0.05    -0.02   0.03   0.03     0.05   0.05  -0.04
    56   1     0.07   0.01   0.07    -0.01   0.00  -0.01     0.01   0.07  -0.03
    57   1    -0.02   0.01   0.08    -0.02   0.08  -0.02     0.04   0.06  -0.04
    58   1     0.02   0.01   0.07    -0.04   0.05  -0.09    -0.01   0.06  -0.01
    59   1    -0.02   0.01   0.04    -0.01   0.09  -0.07     0.00   0.03  -0.01
    60   1    -0.03   0.01   0.01     0.01   0.09   0.05     0.07   0.02  -0.02
    61   1    -0.04   0.01  -0.04    -0.05   0.05  -0.03     0.04  -0.01   0.02
    62   1    -0.02   0.01  -0.06     0.00   0.03  -0.01     0.05  -0.01   0.02
    63   1    -0.16   0.12   0.05    -0.05   0.22  -0.04     0.08  -0.01  -0.02
    64   1    -0.00  -0.18  -0.03     0.04   0.10   0.04     0.07   0.02   0.00
    65   1    -0.12  -0.08   0.01     0.00   0.21  -0.00     0.09   0.01  -0.01
    66   1     0.16  -0.22   0.03    -0.01  -0.06  -0.01    -0.03   0.06  -0.00
    67   1     0.09  -0.22   0.14     0.03  -0.10   0.04    -0.02   0.07  -0.04
    68   1    -0.09   0.02   0.16     0.05  -0.08   0.06     0.04  -0.01  -0.05
    69   1    -0.20   0.26   0.07     0.02  -0.02   0.04     0.08  -0.09  -0.01
    70   1    -0.13   0.26  -0.05    -0.02   0.02  -0.01     0.07  -0.09   0.02
    71   1     0.01  -0.01  -0.02    -0.02   0.06  -0.08    -0.03  -0.01   0.00
    72   1     0.03  -0.02  -0.01    -0.07   0.15  -0.03     0.08  -0.07  -0.03
    73   1     0.02  -0.02  -0.01     0.03   0.14  -0.02     0.23  -0.18  -0.05
    74   1    -0.03   0.02  -0.01     0.20   0.01   0.02     0.25  -0.19  -0.04
    75   1    -0.07   0.06  -0.01     0.25  -0.10   0.04     0.09  -0.08  -0.01
    76   1    -0.07   0.07  -0.01     0.10  -0.11   0.03    -0.23   0.16   0.03
    77   1    -0.03   0.04  -0.01    -0.02  -0.03  -0.01    -0.18   0.12   0.02
    78   1     0.00  -0.04  -0.02    -0.07  -0.01  -0.08    -0.02  -0.00   0.00
    79   1     0.02  -0.02  -0.01    -0.08   0.03  -0.02     0.05  -0.08   0.03
    80   1     0.00  -0.00  -0.03    -0.05   0.00  -0.01    -0.01  -0.03   0.01
    81   1    -0.02   0.02  -0.04     0.00  -0.04   0.01    -0.10   0.05  -0.01
    82   1    -0.06   0.04  -0.06     0.05  -0.09   0.02    -0.18   0.13  -0.03
    83   1    -0.06   0.04  -0.06     0.05  -0.09   0.03    -0.17   0.14  -0.03
    84   1    -0.03   0.01  -0.04     0.00  -0.05   0.01    -0.09   0.07  -0.01
    85   1     0.01  -0.11  -0.03    -0.13  -0.15   0.00    -0.06  -0.05   0.01
    86   1     0.04  -0.09   0.01    -0.09  -0.13   0.03    -0.06  -0.05   0.02
    87   1     0.08  -0.04   0.04     0.00  -0.03   0.05    -0.03  -0.02   0.02
    88   1     0.11   0.02   0.06     0.10   0.09   0.05     0.01   0.02   0.02
    89   1     0.09   0.06   0.05     0.12   0.15   0.04     0.04   0.05   0.01
    90   1     0.05   0.03   0.01     0.05   0.09   0.02     0.03   0.04   0.01
    91   1     0.02  -0.03  -0.01    -0.10   0.05  -0.02     0.05  -0.07   0.02
    92   1     0.02  -0.06  -0.02    -0.04  -0.06  -0.01     0.00  -0.01   0.01
    93   1     0.06   0.02   0.01    -0.06   0.03  -0.05    -0.02   0.02  -0.00
    94   1     0.05   0.07  -0.10    -0.04   0.01  -0.04    -0.00  -0.03   0.03
    95   1     0.08  -0.03  -0.10    -0.04  -0.01  -0.04    -0.02   0.00   0.03
                      7                      8                      9
                      A                      A                      A
 Frequencies --     35.6010                40.1141                42.7901
 Red. masses --      4.7377                 5.2350                 5.8541
 Frc consts  --      0.0035                 0.0050                 0.0063
 IR Inten    --      0.0305                 0.1115                 0.7468
  Atom  AN      X      Y      Z        X      Y      Z        X      Y      Z
     1  17    -0.02  -0.02   0.01    -0.09  -0.02  -0.09    -0.03   0.04  -0.06
     2   8     0.03  -0.03  -0.02     0.02  -0.05  -0.02    -0.03  -0.01  -0.01
     3   8     0.05  -0.06   0.02     0.00   0.03  -0.00    -0.03   0.04  -0.00
     4   8     0.02  -0.03  -0.00     0.03   0.03  -0.02    -0.02   0.04  -0.06
     5   7     0.01  -0.04   0.02    -0.01  -0.02  -0.04     0.02  -0.02  -0.01
     6   7    -0.02   0.01   0.02    -0.07   0.04   0.06     0.05  -0.06   0.00
     7   6    -0.01  -0.07   0.04    -0.02  -0.03  -0.03     0.05  -0.01  -0.00
     8   6    -0.02  -0.09   0.05    -0.02  -0.04  -0.03     0.05   0.02   0.00
     9   6     0.01  -0.02   0.01    -0.01  -0.01  -0.05     0.02   0.00   0.02
    10   6     0.04  -0.03  -0.06     0.01  -0.01  -0.08    -0.00   0.00   0.03
    11   6     0.01  -0.04  -0.02    -0.01  -0.02  -0.05     0.01  -0.01   0.00
    12   6     0.03   0.05   0.06     0.00   0.02  -0.02     0.01  -0.03  -0.01
    13   6     0.02  -0.00   0.04    -0.01  -0.01  -0.04     0.02  -0.02  -0.01
    14   6     0.05   0.16   0.03     0.02   0.09  -0.04    -0.00  -0.07   0.00
    15   6     0.05   0.26   0.07    -0.01   0.21  -0.02    -0.04  -0.06  -0.02
    16   6     0.01  -0.04   0.02    -0.01  -0.02  -0.03     0.02  -0.04  -0.02
    17   6     0.01  -0.04   0.01    -0.03  -0.02  -0.02     0.05  -0.07  -0.00
    18   6    -0.03  -0.00   0.00     0.02  -0.08   0.01     0.12  -0.14   0.03
    19   6    -0.03   0.01  -0.01     0.01  -0.08   0.03     0.19  -0.20   0.06
    20   6    -0.01  -0.02  -0.01    -0.06  -0.02   0.02     0.19  -0.19   0.07
    21   6     0.02  -0.05   0.01    -0.10   0.05  -0.01     0.11  -0.12   0.04
    22   6     0.03  -0.06   0.02    -0.09   0.05  -0.03     0.04  -0.06   0.00
    23   6     0.03  -0.03  -0.02    -0.00  -0.03  -0.02    -0.01  -0.01  -0.01
    24   6     0.03  -0.04  -0.01    -0.02  -0.01  -0.00    -0.00  -0.02  -0.00
    25   6     0.00   0.00   0.00     0.02  -0.01   0.01    -0.01  -0.01   0.00
    26   6    -0.00   0.01  -0.00     0.08  -0.02  -0.02    -0.04   0.02   0.01
    27   6    -0.06   0.07   0.01     0.12  -0.02  -0.01    -0.05   0.03   0.01
    28   6    -0.11   0.11   0.03     0.10  -0.00   0.03    -0.03   0.01   0.01
    29   6    -0.10   0.09   0.03     0.04   0.02   0.05     0.01  -0.02   0.01
    30   6    -0.04   0.03   0.02    -0.01   0.02   0.04     0.01  -0.03   0.00
    31   6     0.03  -0.04   0.01    -0.11   0.03   0.06     0.05  -0.06  -0.00
    32   6     0.05  -0.06  -0.01    -0.08   0.01   0.02     0.02  -0.04  -0.00
    33   6     0.03  -0.04   0.00     0.02   0.01   0.01    -0.03   0.04  -0.01
    34   6     0.02  -0.02  -0.00     0.04  -0.02   0.02    -0.03   0.04  -0.00
    35   6    -0.01   0.02  -0.02     0.06  -0.04   0.03    -0.03   0.04  -0.01
    36   6    -0.03   0.03  -0.04     0.05  -0.03   0.03    -0.04   0.05  -0.01
    37   6    -0.08   0.08  -0.06     0.07  -0.05   0.05    -0.04   0.06  -0.02
    38   6    -0.11   0.10  -0.08     0.06  -0.03   0.05    -0.06   0.07  -0.02
    39   6    -0.09   0.08  -0.07     0.03   0.00   0.04    -0.08   0.09  -0.03
    40   6    -0.05   0.03  -0.05     0.01   0.03   0.03    -0.08   0.08  -0.03
    41   6    -0.02   0.01  -0.03     0.02   0.01   0.02    -0.06   0.06  -0.02
    42   6     0.01  -0.02  -0.01     0.01   0.02   0.01    -0.05   0.06  -0.01
    43   6     0.02  -0.03  -0.01     0.02   0.03   0.01    -0.04   0.05  -0.01
    44   6     0.02  -0.03  -0.01     0.05   0.05  -0.00    -0.01   0.05  -0.03
    45   6     0.02  -0.03  -0.01     0.10   0.08  -0.00     0.04   0.06  -0.02
    46   6     0.02  -0.02  -0.01     0.10   0.07   0.01     0.05   0.06   0.00
    47   6     0.02  -0.02  -0.01     0.04   0.03   0.02     0.00   0.05   0.02
    48   6     0.03  -0.01  -0.01     0.00  -0.01   0.04     0.00   0.04   0.05
    49   6     0.04  -0.01  -0.01    -0.07  -0.06   0.05    -0.05   0.02   0.07
    50   6     0.03  -0.01  -0.01    -0.11  -0.08   0.05    -0.09   0.02   0.07
    51   6     0.03  -0.02  -0.01    -0.07  -0.05   0.04    -0.09   0.03   0.04
    52   6     0.02  -0.02  -0.01    -0.00   0.01   0.02    -0.04   0.04   0.02
    53   1    -0.03  -0.06   0.06    -0.03  -0.02  -0.04     0.07  -0.02  -0.00
    54   1    -0.00  -0.09   0.04    -0.01  -0.02  -0.03     0.05  -0.01  -0.00
    55   1    -0.05  -0.10   0.11    -0.04  -0.05  -0.00     0.08   0.03  -0.01
    56   1    -0.01  -0.15   0.02    -0.01  -0.08  -0.04     0.05   0.05   0.02
    57   1     0.02  -0.02   0.01    -0.00  -0.01  -0.05     0.02   0.02   0.03
    58   1     0.03  -0.07  -0.12    -0.00  -0.04  -0.12    -0.00   0.03   0.06
    59   1     0.09   0.02  -0.08     0.04   0.01  -0.09    -0.04  -0.01   0.04
    60   1     0.03   0.04   0.15     0.01   0.02   0.03     0.02  -0.03  -0.04
    61   1    -0.01   0.01   0.01    -0.03  -0.02  -0.04     0.02  -0.02  -0.01
    62   1     0.03  -0.02   0.05     0.01  -0.03  -0.04     0.01  -0.02  -0.01
    63   1     0.06   0.16  -0.03     0.06   0.04  -0.07     0.02  -0.11   0.04
    64   1     0.04   0.27   0.14    -0.05   0.26   0.02    -0.06  -0.02  -0.05
    65   1     0.07   0.35   0.05     0.01   0.26  -0.03    -0.05  -0.10  -0.01
    66   1    -0.04   0.02  -0.00     0.07  -0.14   0.01     0.11  -0.15   0.02
    67   1    -0.06   0.04  -0.02     0.05  -0.14   0.05     0.25  -0.25   0.08
    68   1    -0.02  -0.01  -0.02    -0.07  -0.01   0.04     0.25  -0.24   0.10
    69   1     0.04  -0.07   0.01    -0.15   0.11  -0.01     0.11  -0.11   0.04
    70   1     0.06  -0.09   0.03    -0.13   0.10  -0.05    -0.02  -0.00  -0.03
    71   1     0.03  -0.02  -0.02    -0.01  -0.02  -0.00    -0.01  -0.02  -0.02
    72   1     0.05  -0.03  -0.02     0.10  -0.04  -0.04    -0.06   0.03   0.01
    73   1    -0.06   0.08   0.01     0.17  -0.04  -0.03    -0.07   0.05   0.01
    74   1    -0.16   0.16   0.04     0.14  -0.01   0.03    -0.03   0.02   0.01
    75   1    -0.13   0.12   0.05     0.02   0.03   0.08     0.03  -0.03   0.01
    76   1     0.05  -0.07   0.01    -0.16   0.05   0.07     0.07  -0.08  -0.00
    77   1     0.08  -0.09  -0.01    -0.10   0.00   0.01     0.02  -0.05  -0.00
    78   1     0.02  -0.02  -0.02     0.02  -0.03  -0.00    -0.03   0.01  -0.02
    79   1     0.04  -0.03   0.01     0.05  -0.03   0.02    -0.02   0.03  -0.00
    80   1    -0.01   0.03  -0.03     0.08  -0.07   0.04    -0.02   0.04  -0.00
    81   1    -0.08   0.10  -0.07     0.09  -0.08   0.06    -0.03   0.05  -0.01
    82   1    -0.14   0.14  -0.10     0.08  -0.05   0.07    -0.07   0.08  -0.03
    83   1    -0.12   0.10  -0.09     0.02   0.02   0.04    -0.10   0.10  -0.04
    84   1    -0.04   0.01  -0.04    -0.01   0.06   0.01    -0.09   0.09  -0.03
    85   1     0.01  -0.03  -0.01     0.15   0.11  -0.01     0.07   0.07  -0.04
    86   1     0.02  -0.02  -0.01     0.14   0.10   0.01     0.08   0.07   0.01
    87   1     0.04  -0.01  -0.01     0.03   0.01   0.04     0.04   0.05   0.06
    88   1     0.05  -0.00  -0.01    -0.10  -0.09   0.07    -0.05   0.02   0.09
    89   1     0.04  -0.01  -0.01    -0.17  -0.13   0.06    -0.13   0.00   0.08
    90   1     0.02  -0.02  -0.01    -0.10  -0.06   0.04    -0.12   0.02   0.03
    91   1     0.05  -0.05   0.03     0.05  -0.01  -0.01    -0.02   0.03   0.00
    92   1     0.00  -0.03   0.00    -0.02   0.01  -0.05    -0.02   0.04  -0.07
    93   1    -0.02  -0.05  -0.03    -0.04  -0.01  -0.05     0.02  -0.01   0.01
    94   1     0.00  -0.04   0.02    -0.00  -0.00  -0.04     0.01  -0.04  -0.04
    95   1     0.01  -0.04   0.02    -0.01  -0.03  -0.05     0.02  -0.06  -0.04
                     10                     11                     12
                      A                      A                      A
 Frequencies --     47.4557                54.3743                58.8458
 Red. masses --      4.6764                 4.6430                 4.9936
 Frc consts  --      0.0062                 0.0081                 0.0102
 IR Inten    --      0.5899                 1.6830                 0.3574
  Atom  AN      X      Y      Z        X      Y      Z        X      Y      Z
     1  17     0.01  -0.01   0.05    -0.06  -0.08  -0.08     0.08  -0.01   0.01
     2   8    -0.00   0.01   0.03     0.00  -0.01   0.06    -0.05   0.01  -0.02
     3   8    -0.03  -0.02   0.01    -0.01  -0.01   0.04    -0.08  -0.01   0.11
     4   8     0.02  -0.05  -0.00    -0.01   0.00   0.05    -0.06  -0.01   0.00
     5   7    -0.02   0.02  -0.00     0.03   0.00   0.03     0.00  -0.00   0.01
     6   7     0.00  -0.01   0.02     0.04  -0.05  -0.03     0.03  -0.03  -0.02
     7   6    -0.01   0.03  -0.00     0.03   0.04  -0.01     0.01  -0.01   0.02
     8   6    -0.02   0.03   0.01     0.05   0.07  -0.05     0.01   0.01   0.01
     9   6    -0.02   0.03   0.01     0.07   0.04  -0.04     0.01   0.02   0.01
    10   6    -0.02   0.03   0.00     0.02   0.04   0.01    -0.00   0.02   0.00
    11   6    -0.03   0.03   0.01     0.00   0.02   0.04    -0.00   0.00  -0.00
    12   6    -0.02   0.03   0.00     0.10  -0.01  -0.03     0.02   0.01   0.01
    13   6    -0.03   0.02  -0.00     0.08  -0.03   0.02     0.01   0.00   0.02
    14   6    -0.04   0.04   0.00     0.16  -0.04  -0.03     0.02   0.02   0.01
    15   6    -0.01  -0.01   0.00     0.10   0.11  -0.02     0.05  -0.02   0.02
    16   6    -0.02   0.01  -0.01     0.02  -0.00   0.06     0.00  -0.01   0.02
    17   6    -0.02   0.01   0.00     0.01   0.01   0.04     0.00  -0.00  -0.00
    18   6    -0.06   0.03  -0.00     0.08  -0.03   0.06     0.02   0.01  -0.01
    19   6    -0.05   0.02   0.01     0.06  -0.01   0.04     0.00   0.04  -0.04
    20   6     0.00  -0.02   0.03    -0.04   0.06  -0.00    -0.04   0.05  -0.07
    21   6     0.05  -0.04   0.04    -0.11   0.10  -0.02    -0.05   0.03  -0.06
    22   6     0.04  -0.03   0.03    -0.08   0.07   0.00    -0.02   0.00  -0.03
    23   6    -0.03   0.02   0.03    -0.02   0.00   0.06    -0.01   0.00  -0.02
    24   6    -0.04   0.02   0.03    -0.02   0.00   0.05    -0.00  -0.00  -0.02
    25   6    -0.02   0.01   0.03    -0.04  -0.02   0.03    -0.00  -0.00  -0.02
    26   6    -0.03   0.01   0.03    -0.09  -0.02   0.06    -0.01   0.00  -0.02
    27   6     0.01  -0.02   0.02    -0.10  -0.06   0.04    -0.02   0.01  -0.01
    28   6     0.06  -0.06   0.01    -0.05  -0.10  -0.00    -0.02   0.01  -0.01
    29   6     0.06  -0.06   0.01    -0.01  -0.10  -0.03    -0.00  -0.00  -0.02
    30   6     0.01  -0.02   0.02    -0.00  -0.06  -0.01     0.01  -0.01  -0.02
    31   6    -0.03   0.02   0.03     0.04  -0.02  -0.02     0.03  -0.03  -0.02
    32   6    -0.05   0.03   0.03     0.01   0.01   0.02     0.01  -0.02  -0.02
    33   6    -0.04   0.01  -0.01    -0.01   0.00   0.02    -0.03  -0.03   0.07
    34   6    -0.08   0.08  -0.03    -0.03   0.04   0.01     0.08  -0.06   0.09
    35   6    -0.09   0.11  -0.06    -0.04   0.05  -0.01     0.15  -0.09   0.07
    36   6    -0.05   0.05  -0.07    -0.02   0.03  -0.01     0.08  -0.07   0.01
    37   6    -0.05   0.07  -0.10    -0.03   0.04  -0.03     0.14  -0.09  -0.03
    38   6     0.00  -0.00  -0.10    -0.02   0.02  -0.04     0.05  -0.05  -0.10
    39   6     0.06  -0.09  -0.07     0.01  -0.02  -0.02    -0.09   0.01  -0.13
    40   6     0.05  -0.11  -0.04     0.02  -0.04  -0.00    -0.14   0.02  -0.09
    41   6    -0.00  -0.03  -0.04    -0.00  -0.01   0.00    -0.04  -0.02  -0.02
    42   6    -0.01  -0.04  -0.02    -0.00  -0.02   0.01    -0.07  -0.03   0.02
    43   6     0.01  -0.06  -0.01    -0.01  -0.02   0.01    -0.09  -0.03   0.02
    44   6     0.04  -0.02  -0.01    -0.02  -0.00   0.03    -0.06  -0.01   0.01
    45   6     0.13   0.06  -0.02    -0.04   0.01   0.02    -0.01   0.03   0.01
    46   6     0.18   0.09  -0.02    -0.04   0.02  -0.00     0.04   0.08   0.01
    47   6     0.11   0.04  -0.01    -0.02   0.01  -0.02     0.02   0.06   0.02
    48   6     0.14   0.07  -0.01    -0.00   0.03  -0.05     0.09   0.13   0.02
    49   6     0.06  -0.00   0.00     0.02   0.03  -0.06     0.06   0.11   0.03
    50   6    -0.05  -0.10   0.01     0.03   0.01  -0.05    -0.05   0.01   0.04
    51   6    -0.07  -0.12   0.01     0.01  -0.01  -0.03    -0.11  -0.04   0.04
    52   6     0.01  -0.05  -0.00    -0.01  -0.01  -0.01    -0.07  -0.01   0.03
    53   1    -0.01   0.03  -0.01     0.06   0.02  -0.01     0.01  -0.01   0.03
    54   1    -0.01   0.04  -0.00    -0.00   0.06  -0.00    -0.00  -0.02   0.01
    55   1    -0.02   0.03   0.01     0.09   0.08  -0.09     0.02   0.01   0.02
    56   1    -0.01   0.02   0.01     0.02   0.12  -0.06     0.00   0.01   0.01
    57   1    -0.02   0.03   0.01     0.08   0.06  -0.07     0.01   0.03   0.01
    58   1    -0.03   0.02  -0.01     0.00   0.08   0.02    -0.01   0.02   0.00
    59   1    -0.02   0.03   0.00     0.02   0.01   0.03    -0.01   0.02   0.00
    60   1    -0.02   0.03   0.01     0.13  -0.01  -0.05     0.02   0.01   0.02
    61   1    -0.04   0.01  -0.00     0.07  -0.06   0.05     0.01   0.01   0.01
    62   1    -0.02   0.01  -0.01     0.09  -0.05   0.02     0.02   0.00   0.02
    63   1    -0.07   0.10   0.00     0.28  -0.22  -0.03    -0.01   0.07   0.00
    64   1     0.02  -0.06   0.01    -0.00   0.28  -0.00     0.08  -0.07   0.03
    65   1    -0.03   0.00   0.00     0.16   0.08  -0.02     0.05  -0.02   0.02
    66   1    -0.10   0.05  -0.02     0.15  -0.08   0.09     0.05   0.01   0.01
    67   1    -0.09   0.04  -0.00     0.12  -0.04   0.05     0.01   0.05  -0.04
    68   1     0.01  -0.02   0.04    -0.07   0.08  -0.02    -0.06   0.07  -0.09
    69   1     0.09  -0.06   0.06    -0.19   0.15  -0.05    -0.08   0.04  -0.08
    70   1     0.07  -0.04   0.04    -0.13   0.10  -0.02    -0.03  -0.01  -0.02
    71   1    -0.04   0.01   0.05    -0.02  -0.01   0.08    -0.00   0.00  -0.04
    72   1    -0.07   0.05   0.04    -0.13   0.01   0.09    -0.01   0.00  -0.02
    73   1     0.00  -0.02   0.02    -0.14  -0.05   0.06    -0.03   0.02  -0.01
    74   1     0.09  -0.09   0.00    -0.05  -0.13  -0.02    -0.03   0.02  -0.01
    75   1     0.09  -0.08   0.00     0.03  -0.13  -0.06     0.00  -0.01  -0.02
    76   1    -0.04   0.03   0.03     0.07  -0.01  -0.03     0.04  -0.04  -0.02
    77   1    -0.06   0.05   0.03     0.02   0.03   0.03     0.01  -0.02  -0.02
    78   1     0.01  -0.06   0.04     0.00  -0.01   0.07    -0.05   0.01  -0.05
    79   1    -0.10   0.12  -0.02    -0.04   0.06   0.01     0.11  -0.06   0.13
    80   1    -0.12   0.17  -0.08    -0.05   0.08  -0.02     0.24  -0.13   0.08
    81   1    -0.09   0.13  -0.12    -0.04   0.07  -0.04     0.25  -0.14  -0.00
    82   1     0.00   0.01  -0.12    -0.02   0.03  -0.05     0.09  -0.07  -0.12
    83   1     0.10  -0.15  -0.07     0.02  -0.04  -0.03    -0.17   0.05  -0.19
    84   1     0.09  -0.17  -0.02     0.03  -0.07   0.01    -0.24   0.07  -0.12
    85   1     0.17   0.09  -0.02    -0.05   0.02   0.03     0.01   0.04   0.01
    86   1     0.25   0.17  -0.02    -0.05   0.03  -0.01     0.10   0.12   0.01
    87   1     0.23   0.14  -0.02    -0.01   0.05  -0.05     0.17   0.19   0.02
    88   1     0.09   0.02   0.00     0.04   0.05  -0.08     0.12   0.16   0.03
    89   1    -0.12  -0.17   0.02     0.04   0.00  -0.07    -0.08  -0.01   0.05
    90   1    -0.16  -0.20   0.02     0.02  -0.04  -0.02    -0.19  -0.11   0.04
    91   1    -0.06   0.03   0.03    -0.04   0.03   0.05    -0.03  -0.02   0.12
    92   1    -0.01  -0.04   0.03    -0.03  -0.02   0.00    -0.02  -0.00   0.02
    93   1    -0.04   0.04   0.01    -0.02   0.04   0.04    -0.00  -0.01  -0.00
    94   1    -0.03   0.02  -0.01     0.03  -0.02   0.08    -0.00  -0.02   0.02
    95   1    -0.02   0.01  -0.01    -0.00   0.01   0.07    -0.00   0.00   0.02
                     13                     14                     15
                      A                      A                      A
 Frequencies --     63.4299                70.8951                73.3493
 Red. masses --      6.6895                 5.0762                 4.8087
 Frc consts  --      0.0159                 0.0150                 0.0152
 IR Inten    --      0.5928                 0.9926                 3.7984
  Atom  AN      X      Y      Z        X      Y      Z        X      Y      Z
     1  17     0.20   0.10   0.01     0.11  -0.10  -0.02     0.09  -0.04   0.01
     2   8    -0.02  -0.09   0.01    -0.01   0.01  -0.05     0.02  -0.01   0.08
     3   8    -0.05   0.06  -0.08     0.04  -0.02   0.08     0.03   0.04  -0.04
     4   8    -0.01   0.04  -0.08    -0.04   0.00   0.11     0.03  -0.01   0.02
     5   7     0.05  -0.06   0.00    -0.03  -0.01   0.00    -0.05   0.04  -0.03
     6   7    -0.04  -0.05   0.05    -0.02   0.02   0.00     0.04  -0.07  -0.00
     7   6     0.07  -0.07   0.03    -0.05  -0.04   0.02    -0.04   0.06  -0.05
     8   6     0.05  -0.07   0.07    -0.05  -0.05   0.02    -0.05   0.03  -0.03
     9   6     0.04  -0.02   0.05    -0.03  -0.02   0.00    -0.05   0.04  -0.03
    10   6     0.04  -0.02  -0.00    -0.01  -0.02  -0.04    -0.04   0.04  -0.05
    11   6     0.03  -0.05   0.01    -0.02  -0.02  -0.03    -0.07   0.05   0.00
    12   6     0.04   0.01   0.06    -0.03   0.01   0.02    -0.05   0.06  -0.02
    13   6     0.03  -0.04   0.01    -0.03   0.01   0.01    -0.06   0.01  -0.04
    14   6     0.00   0.11   0.04    -0.05   0.06   0.01    -0.08   0.14  -0.03
    15   6     0.06   0.05   0.07     0.05  -0.09   0.03     0.00   0.01  -0.02
    16   6     0.06  -0.06  -0.02    -0.04  -0.01   0.02    -0.06   0.03  -0.03
    17   6     0.04  -0.04  -0.04    -0.03  -0.01  -0.00    -0.04   0.02  -0.03
    18   6     0.07  -0.04  -0.04     0.07  -0.05   0.02    -0.01  -0.00  -0.02
    19   6    -0.00   0.01  -0.07     0.12  -0.07  -0.00     0.03  -0.04  -0.01
    20   6    -0.09   0.07  -0.11     0.06  -0.05  -0.04     0.05  -0.05  -0.00
    21   6    -0.10   0.06  -0.10    -0.05  -0.00  -0.07     0.02  -0.03  -0.01
    22   6    -0.02   0.00  -0.07    -0.09   0.02  -0.05    -0.03   0.01  -0.03
    23   6    -0.01  -0.07   0.01     0.00  -0.00  -0.05    -0.06   0.02   0.08
    24   6    -0.04  -0.05   0.03     0.02  -0.01  -0.05    -0.06   0.02   0.06
    25   6    -0.04  -0.05   0.04     0.03   0.01  -0.04    -0.06  -0.01   0.05
    26   6    -0.05  -0.04   0.04     0.06   0.01  -0.05    -0.11   0.00   0.07
    27   6    -0.03  -0.05   0.04     0.06   0.03  -0.04    -0.12  -0.03   0.06
    28   6    -0.01  -0.07   0.04     0.03   0.06  -0.01    -0.06  -0.08   0.02
    29   6    -0.01  -0.07   0.04     0.00   0.06   0.00     0.00  -0.10  -0.00
    30   6    -0.03  -0.06   0.04     0.00   0.03  -0.01    -0.01  -0.06   0.02
    31   6    -0.06  -0.05   0.05    -0.01  -0.00  -0.01     0.03  -0.03   0.01
    32   6    -0.05  -0.05   0.04     0.00  -0.02  -0.03    -0.02   0.02   0.05
    33   6    -0.06   0.06  -0.06     0.02   0.00   0.07     0.06   0.00  -0.02
    34   6    -0.09   0.07  -0.07    -0.01   0.05   0.05     0.08  -0.04  -0.00
    35   6    -0.09   0.06  -0.05    -0.05   0.08   0.03     0.09  -0.07   0.02
    36   6    -0.05   0.03  -0.02    -0.03   0.06   0.03     0.07  -0.03   0.02
    37   6    -0.03  -0.00   0.01    -0.06   0.09   0.01     0.04  -0.02   0.04
    38   6     0.03  -0.04   0.04    -0.03   0.05   0.02    -0.02   0.06   0.03
    39   6     0.06  -0.04   0.05     0.04  -0.02   0.05    -0.06   0.12   0.01
    40   6     0.03  -0.01   0.02     0.06  -0.05   0.06    -0.02   0.09   0.00
    41   6    -0.02   0.03  -0.02     0.02  -0.00   0.05     0.04   0.02   0.01
    42   6    -0.04   0.05  -0.04     0.02  -0.01   0.06     0.07   0.01  -0.00
    43   6    -0.02   0.05  -0.04    -0.00  -0.00   0.05     0.07   0.01  -0.00
    44   6    -0.01   0.03  -0.05    -0.03   0.02   0.08     0.05   0.00   0.01
    45   6    -0.00   0.00  -0.04    -0.05   0.07   0.06     0.04   0.01   0.00
    46   6    -0.01  -0.01  -0.02    -0.04   0.09   0.01     0.03   0.00  -0.01
    47   6    -0.02   0.01   0.00    -0.03   0.05  -0.02     0.02  -0.02  -0.02
    48   6    -0.03  -0.01   0.03    -0.03   0.07  -0.08    -0.02  -0.06  -0.03
    49   6    -0.04   0.01   0.05    -0.02   0.02  -0.12    -0.03  -0.08  -0.04
    50   6    -0.04   0.05   0.04    -0.01  -0.05  -0.10     0.02  -0.05  -0.04
    51   6    -0.03   0.07   0.01    -0.00  -0.05  -0.04     0.07  -0.01  -0.03
    52   6    -0.02   0.04  -0.01    -0.01   0.00  -0.00     0.06  -0.00  -0.01
    53   1     0.06  -0.06   0.02    -0.06  -0.03   0.03    -0.05   0.06  -0.09
    54   1     0.10  -0.07   0.03    -0.04  -0.05   0.01    -0.02   0.10  -0.04
    55   1     0.04  -0.07   0.12    -0.07  -0.06   0.05    -0.08   0.03  -0.01
    56   1     0.08  -0.10   0.07    -0.04  -0.09   0.01    -0.03   0.01  -0.02
    57   1     0.04   0.00   0.07    -0.03  -0.02   0.00    -0.05   0.04  -0.03
    58   1     0.03  -0.04  -0.03    -0.01  -0.05  -0.06    -0.06   0.02  -0.10
    59   1     0.05   0.01  -0.02     0.01   0.01  -0.05     0.01   0.06  -0.06
    60   1     0.06   0.01   0.13    -0.04   0.01   0.05    -0.02   0.06   0.02
    61   1     0.00  -0.03  -0.01    -0.02   0.02  -0.00    -0.10  -0.00  -0.04
    62   1     0.05  -0.06  -0.00    -0.03   0.01   0.01    -0.03  -0.02  -0.07
    63   1    -0.08   0.25   0.01    -0.15   0.22  -0.01    -0.20   0.32  -0.06
    64   1     0.14  -0.09   0.10     0.14  -0.25   0.04     0.11  -0.17   0.01
    65   1     0.03   0.13   0.05     0.02  -0.06   0.02    -0.04   0.07  -0.02
    66   1     0.14  -0.09  -0.01     0.12  -0.06   0.04    -0.03   0.01  -0.02
    67   1     0.01   0.01  -0.07     0.21  -0.11   0.02     0.06  -0.05   0.00
    68   1    -0.16   0.12  -0.14     0.10  -0.07  -0.05     0.09  -0.08   0.01
    69   1    -0.16   0.10  -0.13    -0.10   0.02  -0.10     0.02  -0.04  -0.01
    70   1    -0.02  -0.00  -0.06    -0.17   0.05  -0.06    -0.05   0.02  -0.03
    71   1    -0.01  -0.09   0.01     0.01   0.01  -0.06    -0.08   0.02   0.14
    72   1    -0.08  -0.01   0.04     0.09  -0.02  -0.08    -0.15   0.04   0.11
    73   1    -0.04  -0.04   0.04     0.09   0.03  -0.05    -0.16  -0.02   0.08
    74   1     0.01  -0.08   0.04     0.03   0.08  -0.00    -0.05  -0.11   0.01
    75   1     0.01  -0.08   0.04    -0.02   0.08   0.03     0.05  -0.14  -0.03
    76   1    -0.07  -0.04   0.05    -0.03  -0.01   0.00     0.06  -0.03  -0.01
    77   1    -0.06  -0.05   0.04    -0.01  -0.03  -0.04    -0.02   0.04   0.05
    78   1    -0.02  -0.03   0.01    -0.02   0.02  -0.05     0.04  -0.07   0.13
    79   1    -0.12   0.08  -0.09    -0.02   0.06   0.06     0.08  -0.06  -0.02
    80   1    -0.12   0.07  -0.05    -0.08   0.12   0.02     0.12  -0.11   0.03
    81   1    -0.05   0.00   0.00    -0.11   0.14  -0.01     0.07  -0.07   0.05
    82   1     0.05  -0.07   0.07    -0.05   0.08   0.01    -0.05   0.08   0.03
    83   1     0.11  -0.08   0.07     0.07  -0.06   0.06    -0.12   0.18  -0.00
    84   1     0.05  -0.01   0.02     0.11  -0.10   0.08    -0.04   0.13  -0.01
    85   1     0.01  -0.01  -0.06    -0.06   0.10   0.09     0.05   0.03   0.01
    86   1    -0.00  -0.03  -0.01    -0.05   0.13  -0.01     0.02   0.01  -0.01
    87   1    -0.03  -0.04   0.04    -0.04   0.12  -0.10    -0.06  -0.07  -0.03
    88   1    -0.05  -0.00   0.07    -0.03   0.02  -0.16    -0.07  -0.11  -0.05
    89   1    -0.04   0.07   0.05    -0.01  -0.09  -0.13     0.02  -0.06  -0.04
    90   1    -0.03   0.10  -0.00     0.01  -0.10  -0.03     0.11   0.01  -0.03
    91   1    -0.05   0.05  -0.09     0.03  -0.01   0.09     0.02   0.03  -0.05
    92   1     0.06   0.06  -0.06     0.00  -0.01   0.10     0.02  -0.03   0.03
    93   1     0.02  -0.04   0.01    -0.03  -0.04  -0.04    -0.11   0.09   0.00
    94   1     0.05  -0.04  -0.04    -0.03  -0.04   0.05    -0.06   0.02  -0.02
    95   1     0.08  -0.06  -0.03    -0.06   0.02   0.04    -0.06   0.03  -0.03
                     16                     17                     18
                      A                      A                      A
 Frequencies --     84.3546                89.9133               100.4960
 Red. masses --      6.0032                 5.9867                 5.1699
 Frc consts  --      0.0252                 0.0285                 0.0308
 IR Inten    --      1.6484                 1.0675                 4.0819
  Atom  AN      X      Y      Z        X      Y      Z        X      Y      Z
     1  17    -0.02   0.15   0.14    -0.07   0.07   0.21    -0.06   0.04   0.10
     2   8     0.07  -0.05   0.04    -0.05   0.05  -0.04    -0.04  -0.07  -0.05
     3   8     0.03  -0.10   0.08    -0.02   0.06  -0.07     0.04  -0.02   0.10
     4   8     0.04   0.05   0.01    -0.01  -0.07   0.01    -0.04  -0.02   0.03
     5   7    -0.02   0.02  -0.04    -0.04  -0.01   0.04     0.08  -0.02  -0.08
     6   7    -0.03   0.03   0.00     0.02  -0.03   0.00     0.00  -0.06   0.00
     7   6    -0.06   0.02  -0.07    -0.03  -0.02   0.05     0.14   0.01  -0.07
     8   6    -0.07  -0.06  -0.07    -0.00   0.06  -0.02     0.13   0.03   0.00
     9   6    -0.04  -0.07  -0.07    -0.00   0.05  -0.01     0.06   0.03   0.01
    10   6     0.02  -0.07  -0.07    -0.06   0.04   0.01     0.03   0.03   0.01
    11   6     0.01  -0.01  -0.02    -0.06   0.00  -0.00     0.05  -0.00  -0.04
    12   6    -0.05  -0.03  -0.06     0.03  -0.01  -0.00     0.03   0.01  -0.03
    13   6    -0.04  -0.00  -0.05     0.01   0.01   0.06     0.03  -0.04  -0.09
    14   6    -0.01   0.01  -0.07     0.09  -0.09   0.01    -0.08   0.05  -0.02
    15   6    -0.04   0.13  -0.05     0.06  -0.02   0.01    -0.15   0.04  -0.08
    16   6    -0.02   0.08  -0.03    -0.05  -0.06   0.06     0.09  -0.04  -0.10
    17   6    -0.02   0.09  -0.05    -0.01  -0.06   0.01     0.08  -0.05  -0.07
    18   6     0.08   0.04  -0.03     0.10  -0.06   0.02     0.00  -0.05  -0.07
    19   6     0.18  -0.03  -0.01     0.10  -0.04  -0.06    -0.08  -0.01  -0.04
    20   6     0.17  -0.03  -0.02    -0.02  -0.00  -0.14    -0.08   0.03  -0.00
    21   6     0.04   0.04  -0.06    -0.13  -0.01  -0.15     0.03   0.02   0.01
    22   6    -0.05   0.11  -0.07    -0.11  -0.05  -0.06     0.11  -0.02  -0.02
    23   6     0.04  -0.02   0.04    -0.06   0.02  -0.04    -0.02  -0.04  -0.04
    24   6     0.03  -0.01   0.04    -0.04   0.01  -0.04    -0.05  -0.01  -0.02
    25   6     0.01  -0.02   0.03    -0.01   0.02  -0.03    -0.04  -0.01  -0.02
    26   6     0.01  -0.06   0.04    -0.01   0.05  -0.05    -0.07   0.03  -0.02
    27   6     0.00  -0.08   0.03     0.01   0.08  -0.04    -0.05   0.04  -0.01
    28   6    -0.02  -0.06   0.01     0.03   0.06  -0.01    -0.00  -0.00  -0.00
    29   6    -0.04  -0.02  -0.00     0.03   0.02   0.00     0.03  -0.04  -0.00
    30   6    -0.02  -0.00   0.01     0.01   0.00  -0.01    -0.00  -0.04  -0.01
    31   6    -0.00   0.03   0.01    -0.01  -0.03  -0.01    -0.04  -0.04   0.00
    32   6     0.03   0.00   0.03    -0.04  -0.01  -0.03    -0.06  -0.02  -0.01
    33   6    -0.01  -0.04   0.04     0.02   0.02  -0.04     0.04  -0.01   0.07
    34   6    -0.02  -0.01   0.03     0.01  -0.00  -0.03     0.05  -0.01   0.08
    35   6    -0.03   0.02   0.01     0.02  -0.02  -0.01     0.04   0.01   0.06
    36   6    -0.02  -0.00  -0.01     0.02  -0.01  -0.00     0.02   0.02   0.05
    37   6    -0.00  -0.01  -0.03    -0.01   0.01   0.00    -0.02   0.06   0.03
    38   6     0.02  -0.05  -0.04    -0.03   0.05   0.01    -0.03   0.07   0.02
    39   6     0.01  -0.08  -0.03    -0.01   0.05   0.01     0.01   0.01   0.04
    40   6    -0.02  -0.06  -0.02     0.03   0.02   0.01     0.04  -0.02   0.06
    41   6    -0.03  -0.03  -0.00     0.04  -0.00  -0.00     0.03  -0.01   0.06
    42   6    -0.04  -0.04   0.02     0.05  -0.00  -0.01     0.03  -0.01   0.06
    43   6    -0.04  -0.03   0.02     0.06  -0.01  -0.01    -0.00   0.00   0.04
    44   6    -0.01   0.00   0.02     0.03  -0.03  -0.01    -0.02  -0.00   0.05
    45   6    -0.04  -0.02   0.02     0.05  -0.02  -0.00    -0.04   0.02   0.04
    46   6    -0.06  -0.04   0.02     0.07  -0.01  -0.00    -0.03   0.04   0.01
    47   6    -0.03  -0.02   0.01     0.05  -0.02   0.00    -0.02   0.03  -0.00
    48   6     0.01   0.02   0.01     0.02  -0.05   0.01    -0.02   0.04  -0.05
    49   6     0.05   0.06  -0.00    -0.01  -0.07   0.01    -0.01   0.01  -0.07
    50   6     0.04   0.05   0.00     0.00  -0.06   0.01    -0.01  -0.03  -0.06
    51   6    -0.01  -0.00   0.01     0.04  -0.02   0.00    -0.00  -0.04  -0.02
    52   6    -0.04  -0.03   0.01     0.06  -0.01  -0.00    -0.01   0.00   0.01
    53   1    -0.10   0.04  -0.10     0.01  -0.04   0.11     0.16  -0.00  -0.12
    54   1    -0.04   0.05  -0.06    -0.09  -0.05   0.04     0.18   0.03  -0.07
    55   1    -0.13  -0.08  -0.07     0.07   0.08  -0.05     0.14   0.04   0.01
    56   1    -0.05  -0.10  -0.07    -0.06   0.12  -0.03     0.15   0.05   0.03
    57   1    -0.04  -0.12  -0.09     0.01   0.07  -0.03     0.04   0.05   0.05
    58   1     0.03  -0.11  -0.10    -0.07   0.09   0.04     0.04   0.05   0.04
[...]
 319,0.00000931,0.00002826,0.00004881,0.00008513,-0.00020638,0.00001090
 ,-0.00001006,0.00014238,-0.00022995,0.00040516,-0.00013694,-0.00088417
 ,-0.00052957,0.00003292,0.00033439,-0.00007071,0.00015686,-0.00032036,
 -0.00002180,-0.00024739,-0.00005269,-0.00003763,-0.00001889,-0.0002007
 3,-0.00004734,-0.00008534,0.00002711,-0.00002239,0.00009289,-0.0000629
 2,0.00022041,0.00010145,-0.00015529,-0.00005260,-0.00010026,-0.0001316
 8,0.00046005,0.00058635,0.00080025,0.00155504,-0.00046399,-0.00020430,
 -0.00829279,-0.00081802,-0.00196388,0.00131576,0.00096507,0.00162764,-
 0.00069310,0.00014800,0.00002784,0.00052733,0.00009274,0.00023699,-0.0
 0041195,-0.00005607,-0.00013582,0.00033640,-0.00006971,-0.00006515,0.0
 0002140,0.00005613,0.00010269,0.00011302,-0.00004533,-0.00010856,-0.00
 057320,-0.00024004,-0.00044724,-0.00012669,0.00014353,-0.00005323,-0.0
 0009228,-0.00010829,-0.00005744,-0.00005998,0.00003010,-0.00003201,-0.
 00001832,-0.00004522,-0.00003133,-0.00004432,-0.00002707,0.00002407,0.
 00004462,-0.00007471,0.00000595,0.00002322,0.00009082,0.00014180,-0.00
 001901,0.00003314,0.00000232,0.00049351,0.00054549,0.00022389,0.000485
 56,0.00029261,0.00015855,0.00002124,0.00002179,-0.00001866,0.00011754,
 0.00012303,-0.00003565,0.00000840,0.00002213,0.00005834,0.00010812,-0.
 00011989,-0.00020448,0.00003388,-0.00007663,0.00002435,0.00002716,0.00
 008977,-0.00013573,0.00002860,0.00010377,0.00006768,0.00039473,-0.0005
 8339,0.00118880,0.00048799,-0.00016517,0.00075927,0.00013140,-0.000264
 44,0.00010900,0.00004913,-0.00000309,-0.00002494,0.00002998,-0.0000228
 9,-0.00000956,0.00001530,-0.00003948,0.00003434,-0.00000774,0.00000809
 ,0.00005823,-0.00001295,0.00010504,0.00006315,0.00140922,0.00261527,-0
 .00060096,0.00015948,0.00006254,0.00002895,0.00007678,0.00006089,0.000
 08547,0.00004296,0.00003995,0.00007637,0.00003239,-0.00000511,0.000023
 52,0.00000551,-0.00005299,0.00002182,-0.00018189,-0.00003387,0.0002364
 4,0.00012867,-0.00001102,-0.00014080,0.00005751,-0.00003806,-0.0000406
 5,-0.00000126,-0.00001503,-0.00003940,-0.00008664,-0.00002092,-0.00005
 678,-0.00004822,0.00001968,0.00002534,0.00001796,0.00004327,0.00010750
 ,0.00025324,0.00025699,0.00001472,0.00278231,-0.00315665,-0.00057771,-
 0.00014502,-0.00023244,-0.00003720,0.03759380,0.08247969,-0.00294156,0
 .00254657,-0.00096239,-0.00107977,-0.00295036,-0.00060325,-0.00014760,
 -0.00048178,0.00009615,0.00815559,0.00399527,0.00264006,-0.00529072,-0
 .00048400,0.00840692,-0.00002914,-0.00007698,-0.00005681,0.00177539,0.
 00059242,-0.00145730,0.00040213,0.00018246,0.00044485,0.00011252,0.000
 05332,0.00016464,-0.00015902,0.00030629,-0.00071467,0.00067352,-0.0011
 7957,0.00065390,0.00004705,-0.00014466,-0.00021374,-0.00058427,0.00065
 807,-0.00033430,-0.00003789,-0.00004058,0.00006273,-0.00008252,-0.0001
 2820,-0.00017798,-0.03937809,-0.05067200,-0.10522876,-0.01052210,0.001
 66529,-0.03470509,-0.00018510,0.00093172,-0.00091610,0.00024166,-0.000
 49635,0.00003692,0.00001942,0.00000851,0.00056250,0.00011739,-0.000328
 16,-0.00029884,-0.00037063,0.00075696,-0.00123206,0.00045075,0.0025661
 6,0.00106569,-0.00028231,-0.00017612,-0.00017748,-0.00001143,-0.000042
 18,0.00002578,-0.00016767,0.00007381,-0.00011078,-0.00000906,-0.000043
 23,-0.00006585,-0.00000397,0.00000869,-0.00004810,-0.00002385,-0.00000
 153,-0.00001813,0.00005252,0.00005177,0.00002915,0.00004537,0.00003230
 ,0.00002600,-0.00001547,-0.00011719,-0.00007069,-0.00001534,-0.0009446
 5,-0.00018538,-0.00050704,0.00017393,0.00023427,-0.00014612,0.00020495
 ,-0.00050473,-0.00006994,-0.00040986,-0.00009144,-0.00013592,0.0000754
 9,-0.00023944,-0.00010917,-0.00014875,-0.00005630,-0.00010327,0.000128
 30,0.00004845,0.00000461,0.00018151,-0.00041680,0.00001409,-0.00051545
 ,0.00017752,0.00046034,0.00142368,0.00099499,0.00247873,-0.00029895,-0
 .00065069,-0.01375171,-0.00126869,-0.00293639,0.00231880,0.00162169,0.
 00272159,-0.00113692,0.00018992,0.00013717,0.00085170,0.00017495,0.000
 37089,-0.00066311,-0.00007355,-0.00022385,0.00054948,-0.00010079,-0.00
 011461,0.00004761,0.00008990,0.00015973,0.00019286,-0.00006341,-0.0001
 8222,-0.00095349,-0.00045254,-0.00067283,-0.00027300,0.00018344,-0.000
 15212,-0.00007308,-0.00031916,-0.00017090,-0.00003067,0.00008711,-0.00
 009400,0.00003205,-0.00011771,-0.00002362,-0.00008417,-0.00002081,0.00
 001839,0.00010219,-0.00006564,0.00005213,0.00011638,0.00014602,0.00023
 903,-0.00002526,0.00004995,0.00003173,0.00128977,0.00022483,0.00089945
 ,-0.00004858,0.00019123,0.00045933,0.00006074,0.00000322,0.00000344,0.
 00014841,0.00013733,0.00000697,0.00002432,0.00002126,0.00009750,0.0000
 0307,-0.00022656,-0.00011634,0.00006850,-0.00008111,-0.00018860,-0.000
 01608,0.00020696,-0.00028174,-0.00001304,0.00027855,0.00017020,-0.0002
 1645,0.00097196,0.00107551,0.00006323,0.00048056,0.00036949,0.00013277
 ,-0.00016221,0.00020603,0.00003900,-0.00001185,0.00004754,0.00001667,0
 .00001598,0.00001168,0.00001972,-0.00000309,0.00001466,0.00001766,0.00
 000117,0.00001985,0.00004340,0.00013600,0.00000894,0.00216566,0.002757
 91,-0.00219847,0.00015022,0.00001917,0.00003553,0.00013667,0.00010111,
 0.00016036,0.00011789,0.00004207,0.00009365,0.00009746,-0.00000414,0.0
 0004891,0.00007927,-0.00005694,0.00003012,-0.00002247,-0.00002973,0.00
 037041,0.00021265,-0.00012066,-0.00017971,0.00010181,-0.00007140,-0.00
 006989,-0.00000323,-0.00003647,-0.00006093,-0.00014433,-0.00004297,-0.
 00008969,-0.00008475,0.00002855,0.00004918,0.00002607,0.00007564,0.000
 18939,0.00018079,0.00028714,-0.00004868,0.00570745,-0.00650071,0.00111
 814,-0.00008683,-0.00007847,-0.00006333,0.04805374,0.05506560,0.136603
 34,-0.00007573,-0.00002589,-0.00016775,-0.00014496,-0.00002081,-0.0001
 6910,0.00018289,-0.00021806,0.00032573,-0.00147335,-0.00024226,-0.0009
 4792,-0.03825736,0.01526796,0.01384463,-0.00004457,0.00002615,0.000029
 08,-0.00132463,0.00000793,-0.00044467,0.00007520,-0.00002180,-0.000020
 80,0.00007057,0.00008980,0.00003811,-0.00004208,0.00021243,-0.00025916
 ,-0.00128328,-0.00161265,0.00249567,-0.00021793,0.00056910,0.00034206,
 -0.00225736,-0.00169432,0.00018171,-0.00011590,-0.00004395,0.00001406,
 0.00000494,-0.00000693,-0.00002577,-0.08970355,0.07752790,0.01382904,-
 0.00123434,0.01188480,-0.00528306,-0.00001680,0.00026731,-0.00045130,0
 .00001573,-0.00018953,0.00010125,0.00002413,0.00000016,0.00029013,-0.0
 0020159,0.00008026,-0.00003487,0.00028556,0.00012920,-0.00022495,0.000
 16309,0.00000065,0.00055091,-0.00005741,-0.00006789,-0.00009061,-0.000
 00519,-0.00001692,-0.00000439,-0.00009017,-0.00011613,-0.00000962,-0.0
 0004625,0.00001013,0.00004848,-0.00000600,-0.00002729,0.00002964,-0.00
 000970,-0.00002067,0.00001436,0.00003877,-0.00001796,-0.00000279,0.000
 02560,-0.00002236,0.00000410,-0.00004814,0.00005338,0.00000401,-0.0007
 3150,0.00046753,-0.00069794,0.00074418,0.00020921,-0.00023645,-0.00006
 556,-0.00050207,0.00038668,0.00001129,0.00031921,0.00008340,-0.0000252
 3,-0.00005995,0.00007713,-0.00005160,0.00016517,-0.00004202,-0.0000328
 6,0.00006084,-0.00007711,-0.00004841,0.00004361,0.00000109,-0.00000816
 ,-0.00015830,-0.00002736,-0.00015315,-0.00036920,-0.00025348,-0.000224
 74,0.00010958,0.00014553,0.00114490,0.00011620,0.00033266,-0.00023414,
 -0.00011535,-0.00022498,0.00019712,0.00000170,0.00003427,-0.00015120,0
 .00002665,0.00003160,0.00010855,0.00001834,0.00004618,-0.00005996,0.00
 004133,0.00006466,-0.00000723,-0.00004076,-0.00007302,0.00009104,0.000
 01564,0.00006245,-0.00009154,0.00004180,0.00002106,-0.00016712,0.00005
 967,0.00001753,-0.00035191,-0.00035729,-0.00021791,-0.00002559,0.00002
 264,-0.00001606,0.00000400,-0.00004410,-0.00000955,-0.00002094,-0.0000
 0604,0.00000160,0.00005559,-0.00004423,0.00000379,0.00001651,0.0000308
 7,0.00006661,-0.00002185,-0.00001972,0.00002498,-0.00007983,-0.0000476
 4,0.00010633,-0.00011972,-0.00018640,0.00004792,-0.00000097,0.00001086
 ,0.00002029,-0.00000850,-0.00000318,0.00001244,0.00000410,0.00000166,0
 .00001566,0.00026394,-0.00023433,-0.00025486,0.00004653,-0.00005202,-0
 .00004784,0.00002054,0.00009680,-0.00012666,0.00001961,0.00008862,0.00
 002314,0.00003981,0.00013741,0.00017685,0.00046334,-0.00000336,0.00005
 335,0.00019947,0.00016971,-0.00008361,0.00001315,0.00004515,-0.0000098
 9,0.00000307,0.00000727,0.00000912,0.00000349,0.00002356,-0.00001190,0
 .00000783,0.00000879,-0.00001233,0.00002449,-0.00002197,0.00001003,0.0
 0014755,0.00005490,0.00007008,-0.00027310,0.00009866,-0.00002764,-0.00
 009703,0.00003809,0.00010527,0.00001831,0.00001522,0.00005193,0.000028
 32,-0.00003682,0.00008504,0.00003706,-0.00007991,-0.00000288,0.0000440
 0,-0.00002688,-0.00008409,0.00003277,-0.00000601,0.00000798,-0.0000002
 8,-0.00001255,-0.00002291,0.00000103,-0.00000901,-0.00001435,-0.000004
 67,-0.00000174,-0.00000371,-0.00001295,0.00000341,0.00000253,-0.000031
 49,-0.00001313,-0.00004532,-0.00016572,0.00010984,-0.00005192,0.000269
 15,-0.00012030,0.00015518,-0.00016250,-0.00049728,0.00005081,0.0053388
 1,0.00024355,0.00181787,0.12980119,-0.00010089,0.00013699,0.00000561,0
 .00004363,-0.00044964,-0.00001751,-0.00016932,-0.00035098,0.00010298,0
 .00049895,0.00066988,0.00128908,-0.00185971,0.00730871,0.00040669,0.00
 002183,-0.00001064,-0.00005769,-0.00056776,-0.00023502,0.00035018,-0.0
 0006442,-0.00015844,-0.00022170,0.00000219,0.00007173,0.00000174,0.000
 07747,-0.00028479,0.00008124,-0.00123358,0.00000258,0.00068098,-0.0001
 1762,0.00039325,0.00022673,-0.00136060,-0.00094403,0.00031420,-0.00009
 272,-0.00005306,-0.00000771,-0.00003591,0.00000907,0.00004424,0.091168
 50,-0.13815417,-0.02207729,0.01242772,-0.02376099,0.01156727,0.0003029
 0,0.00003144,0.00075576,-0.00010250,-0.00006045,-0.00027874,0.00000920
 ,-0.00007502,-0.00009962,-0.00028507,-0.00022193,0.00010469,0.00022002
 ,-0.00050837,0.00091281,-0.00018224,0.00029793,0.00046982,-0.00006504,
 0.00002244,0.00002574,-0.00000544,0.00004064,-0.00000966,-0.00006971,0
 .00003227,-0.00001210,0.00001289,-0.00001286,-0.00006743,-0.00000284,0
 .00003755,-0.00003309,0.00000169,0.00002923,-0.00003075,-0.00002084,0.
 00004494,0.00002822,0.00001029,-0.00002062,0.00000788,0.00005108,-0.00
 003526,-0.00006043,-0.00003392,0.00010370,-0.00036025,-0.00074237,-0.0
 0030531,0.00033425,-0.00002620,0.00037437,-0.00030244,0.00007308,-0.00
 030976,-0.00001825,0.00002451,0.00007460,-0.00011015,0.00002412,-0.000
 10128,-0.00005325,-0.00000336,0.00001145,0.00009706,0.00004452,0.00011
 124,-0.00003988,-0.00008682,-0.00009392,0.00008280,0.00011058,0.000143
 23,0.00007430,0.00022526,-0.00002917,0.00002264,-0.00080240,-0.0001368
 8,-0.00036689,0.00012263,0.00009495,0.00019368,-0.00008596,0.00000757,
 -0.00000258,0.00007074,0.00001117,0.00003258,-0.00005608,-0.00000840,-
 0.00001985,0.00004549,-0.00001219,-0.00000966,0.00000204,0.00000668,0.
 00001372,0.00001237,-0.00000989,-0.00001979,-0.00008038,-0.00003143,-0
 .00005598,-0.00000962,0.00001170,0.00006822,-0.00022225,0.00012492,0.0
 0002455,-0.00001745,-0.00000376,0.00003632,-0.00004266,0.00004413,0.00
 001086,0.00002237,0.00000290,-0.00000596,-0.00004261,0.00002853,0.0000
 1407,-0.00001231,0.00004222,-0.00002139,-0.00000218,-0.00003009,0.0000
 2464,-0.00004394,-0.00002091,-0.00010488,-0.00000101,-0.00017604,0.000
 00946,0.00000313,0.00002612,0.00000337,0.00000598,-0.00001768,-0.00000
 426,0.00001801,-0.00000424,-0.00002059,0.00008913,0.00027630,0.0001899
 9,0.00000356,0.00006288,0.00000111,0.00003919,-0.00001502,0.00002754,0
 .00001579,-0.00003242,0.00002180,0.00010539,0.00004041,0.00003264,0.00
 010653,0.00036308,-0.00011132,0.00011124,-0.00021161,0.00017031,0.0000
 3517,-0.00003760,0.00000325,0.00001465,-0.00001169,-0.00001149,0.00000
 526,-0.00003850,0.00002643,-0.00000889,-0.00000815,0.00003134,-0.00002
 549,0.00005713,0.00000611,0.00013699,0.00022534,-0.00020002,0.00021438
 ,0.00006809,0.00002560,0.00003805,0.00002946,0.00000875,-0.00001273,0.
 00002006,0.00000870,-0.00001061,-0.00000165,0.00000044,-0.00001245,-0.
 00000472,-0.00000043,-0.00003336,-0.00000360,0.00000914,0.00000690,0.0
 0000338,-0.00001167,0.00000444,-0.00000156,-0.00000543,-0.00000021,-0.
 00000005,-0.00000392,-0.00001083,-0.00000157,-0.00000752,-0.00000570,0
 .00000361,0.00000279,0.00000759,0.00000628,0.00001867,0.00012525,0.000
 12177,0.00006723,0.00020826,-0.00026077,-0.00000156,-0.00044406,-0.000
 19152,0.00015031,0.00388824,-0.01376022,-0.01061670,-0.10159577,0.1695
 8199,-0.00017141,0.00012862,-0.00008257,-0.00020323,0.00022997,0.00018
 595,0.00031077,0.00013981,-0.00013033,0.00004799,0.00089298,0.00039922
 ,0.01136818,-0.00466751,-0.00024408,0.00001753,-0.00008856,0.00000321,
 -0.00017520,-0.00012929,0.00002390,-0.00003981,-0.00001197,-0.00014714
 ,0.00002788,-0.00004193,0.00008594,-0.00007952,0.00002262,-0.00011865,
 0.00157883,0.00050307,-0.00088972,0.00007131,-0.00017853,-0.00012788,0
 .00075003,0.00059671,-0.00014963,0.00002324,0.00002508,0.00000631,0.00
 000253,-0.00000155,-0.00003661,0.01966065,-0.02281482,-0.03552754,-0.0
 1143383,0.02195999,-0.00140707,-0.00052904,0.00117982,-0.00194177,0.00
 015504,-0.00026269,0.00020839,-0.00004773,0.00016207,0.00013821,0.0003
 4121,0.00045248,-0.00020639,0.00001233,0.00083081,-0.00174460,0.000406
 27,0.00014983,-0.00104975,-0.00008595,0.00007989,-0.00004221,0.0000117
 8,-0.00005480,0.00000820,-0.00002576,-0.00003526,-0.00003890,0.0000182
 2,-0.00003577,-0.00003833,0.00001217,-0.00000531,-0.00003032,-0.000004
 71,-0.00001289,0.00001192,0.00002164,-0.00000489,-0.00001249,-0.000030
 09,0.00012984,0.00000112,-0.00000741,-0.00011504,0.00010720,-0.0004398
 5,-0.00043033,0.00014313,-0.00014883,0.00000128,0.00005593,-0.00016409
 ,0.00021867,-0.00020578,-0.00002485,-0.00029287,-0.00007125,-0.0000376
 3,0.00008420,-0.00007775,0.00000057,-0.00010124,-0.00008475,-0.0000260
 9,0.00001608,0.00012001,0.00000389,0.00014560,-0.00010690,-0.00000734,
 -0.00021122,0.00027709,-0.00001777,0.00034213,-0.00014765,0.00017857,0
 .00004536,-0.00002018,-0.00046082,-0.00020524,-0.00027740,0.00004252,0
 .00009086,0.00009376,-0.00003774,0.00000022,0.00000215,0.00003581,0.00
 002049,0.00003084,-0.00003055,-0.00000196,-0.00001121,0.00003022,0.000
 00032,-0.00000089,0.00000169,0.00000017,-0.00000100,0.00002528,-0.0000
 0433,-0.00001151,-0.00008389,-0.00002992,-0.00003896,-0.00013980,0.000
 02683,-0.00003189,-0.00043212,-0.00014675,-0.00001271,-0.00001151,0.00
 000502,-0.00000209,0.00000320,-0.00001131,0.00001948,-0.00000933,0.000
 00404,-0.00001346,-0.00000387,0.00002605,0.00003255,0.00001691,-0.0000
 1219,0.00000807,0.00000743,0.00001522,0.00000159,0.00015371,-0.0000538
 9,0.00018852,-0.00001310,0.00005392,0.00002141,0.00001112,-0.00001556,
 0.00000256,0.00000679,0.00000743,0.00001106,-0.00000032,-0.00000019,0.
 00001123,-0.00015691,-0.00002746,-0.00095510,-0.00000189,-0.00002543,-
 0.00001918,-0.00002515,0.00000460,-0.00002328,-0.00001795,0.00007798,-
 0.00006651,-0.00004815,-0.00009242,0.00000757,-0.00011032,0.00038180,-
 0.00101731,-0.00005948,0.00026350,0.00011548,-0.00000571,-0.00001697,0
 .00006766,-0.00000783,0.00001960,0.00001346,0.00000034,0.00002084,-0.0
 0001214,0.00001015,-0.00000300,-0.00002181,0.00002309,-0.00001372,-0.0
 0002499,-0.00000095,-0.00021109,-0.00008948,0.00001290,-0.00000437,0.0
 0003835,0.00009873,0.00004431,0.00005174,0.00003221,0.00002288,0.00002
 287,0.00001301,-0.00000372,0.00001488,0.00000937,-0.00000988,0.0000006
 3,-0.00000006,-0.00000601,0.00001750,0.00001172,-0.00001512,0.00000201
 ,0.00000232,-0.00000844,-0.00000658,-0.00000028,-0.00000440,-0.0000038
 1,-0.00001041,-0.00000426,-0.00000577,-0.00000713,0.00000156,0.0000044
 9,0.00000327,0.00000710,0.00001428,-0.00011220,0.00001062,-0.00002928,
 0.00036291,-0.00039269,0.00008518,0.00027605,0.00042613,0.00009603,0.0
 0483194,-0.01529069,-0.00408607,-0.02555457,0.01623825,0.04869263\\-0.
 00000437,0.00000412,0.00000324,-0.00000008,-0.00001221,-0.00000376,0.0
 0000238,0.00000096,0.00000319,0.00000126,0.00000614,0.00000156,-0.0000
 0149,-0.00000233,-0.00000524,0.00000047,-0.00000086,-0.00000275,0.0000
 0180,0.00000119,0.00000265,0.00000057,0.00000021,0.00000160,0.00000092
 ,-0.00000024,-0.00000145,0.00000178,0.00000101,-0.00000167,0.00000022,
 -0.00000523,0.00000507,0.00000203,0.,-0.00000061,-0.00000347,0.0000016
 9,0.00000252,0.00000109,0.00000484,0.00000086,0.00000082,-0.00000476,-
 0.00000353,-0.00000083,0.00000405,-0.00000125,0.00000064,-0.00000647,-
 0.00000194,-0.00000100,0.00000304,0.00000550,-0.00000164,0.00000301,-0
 .00000212,0.00000157,-0.00000254,-0.00000083,0.00000054,-0.00000164,0.
 00000326,-0.00000177,0.00000533,-0.00000020,-0.00000578,0.00000748,-0.
 00000319,-0.00000019,-0.00000172,0.00000274,0.00000103,0.00000073,0.00
 000068,0.00000038,-0.00000002,-0.00000172,-0.00000021,0.00000271,-0.00
 000090,-0.00000082,-0.00000211,0.00000312,0.00000177,-0.00000181,-0.00
 000331,-0.00000260,0.00000290,0.00000325,0.00000144,0.00000369,-0.0000
 0042,-0.00000043,-0.00000161,0.00000075,-0.00000224,-0.00000447,0.0000
 0019,0.00000088,-0.00000091,0.00000085,0.00000057,0.00000277,-0.000002
 01,-0.00000156,-0.00000451,0.00000682,0.00000150,0.00000859,-0.0000044
 5,0.00000061,-0.00000909,-0.00000738,-0.00000052,0.00000188,0.00001106
 ,0.00000089,0.00000728,-0.00000495,-0.00000040,-0.00000683,-0.00000012
 ,-0.00000142,0.00000827,-0.00000528,0.00001032,-0.00000137,0.00000419,
 -0.00000499,0.00000461,0.00000769,-0.00000416,-0.00000472,-0.00000842,
 0.00000874,-0.00000012,0.00000023,-0.00001209,-0.00000143,-0.00000415,
 0.00001442,-0.00000040,0.00000167,-0.00000696,0.00000814,0.00001204,-0
 .00000497,-0.00000749,-0.00001286,0.00001398,-0.00000081,0.00000065,-0
 .00001239,0.00000277,0.00000301,0.00000011,0.00000011,-0.00000036,0.,0
 .00000004,0.00000092,-0.00000005,0.00000046,0.00000050,0.00000008,0.00
 000039,-0.00000009,-0.00000050,-0.00000043,-0.00000015,0.00000005,-0.0
 0000017,-0.00000022,0.00000057,-0.00000059,-0.00000021,-0.00000019,0.0
 0000100,-0.00000001,0.00000008,-0.00000152,0.00000009,-0.00000013,-0.0
 0000048,-0.00000163,0.00000014,-0.00000054,0.00000050,-0.00000097,0.00
 000048,0.00000105,-0.00000019,0.00000077,0.00000060,-0.00000065,-0.000
 00152,-0.00000057,0.00000040,-0.00000029,0.00000009,-0.00000036,0.0000
 0037,-0.00000004,-0.00000021,0.00000017,-0.00000039,0.00000119,-0.0000
 0340,-0.00000344,0.00000287,-0.00000316,0.00000128,0.00000002,-0.00000
 065,0.00000065,-0.00000042,-0.00000058,-0.00000027,0.00000019,0.000000
 07,-0.00000067,0.00000028,0.00000054,0.00000100,-0.00000042,-0.0000007
 5,-0.00000012,-0.00000030,0.00000005,-0.00000087,-0.00000097,0.0000078
 6,0.00000116,-0.00000078,-0.00000011,0.00000068,-0.00000087,0.00000005
 ,-0.00000010,-0.00000056,-0.00000166,0.00000079,0.00000132,0.00000168,
 0.00000170,0.00000013,-0.00000034,-0.00000204,-0.00000184,-0.00000133,
 0.00000126,0.00000153,0.00000057,0.00000028,-0.00000046,0.00000012,0.,
 -0.00000212,-0.00000006,-0.00000038,0.00000128,-0.00000185,-0.00000160
 ,0.00000100,0.00000131,0.00000197,-0.00000193,0.00000104,-0.00000095,0
 .00000077,-0.00000380,-0.00000246,0.00000531,-0.00000332,-0.00000096,-
 0.00000085,0.00000043,-0.00000040,0.00000057,-0.00000356,-0.00000243,0
 .00000065,0.00000092,0.00000200\\\@


 I MET A TRAVELLER FROM AN ANTIQUE LAND
 WHO SAID... TWO VAST AND TRUNKLESS LEGS OF STONE
 STAND IN THE DESERT..... NEAR THEM,  ON THE SAND,
 HALF SUNK,  A SHATTERED VISAGE LIES,  WHOSE FROWN,
 AND WRINKLED LIP,  AND SNEER OF COLD COMMAND
 TELL THAT ITS SCULPTOR WELL THOSE PASSIONS READ
 WHICH YET SURVIVE,  STAMPED ON THESE LIFELESS THINGS
 THE HAND THAT MOCKED THEM,  AND THE HEART THAT FED-
 AND ON THE PEDESTAL THESE WORDS APPEAR 
 MY NAME IS OZYMANDIAS, KING OF KINGS--   
 LOOK ON MY WORKS YE MIGHTY AND DESPAIR. 
 NOTHING BESIDE REMAINS,  ROUND THE DECAY 
 OF THAT COLOSSAL WRECK,  BOUNDLESS AND BARE
 THE LONE AND LEVEL SANDS STRETCH FAR AWAY.
                                    SHELLEY
 Job cpu time:       0 days  0 hours  0 minutes 37.8 seconds.
 File lengths (MBytes):  RWF=   2772 Int=      0 D2E=      0 Chk=      7 Scr=      2
 Normal termination of Gaussian 09 at Mon Apr 18 12:45:47 2022.
