 Entering Gaussian System, Link 0=g09
 Input=/scratch/mverot/anthracene-2-6-opt/anthracene-2-6-opt.com
 Output=/scratch/mverot/anthracene-2-6-opt/anthracene-2-6-opt.log
 Initial command:
 /opt/g09/l1.exe "/scratch/mverot/anthracene-2-6-opt/Gau-2804482.inp" -scrdir="/scratch/mverot/anthracene-2-6-opt/"
 Entering Link 1 = /opt/g09/l1.exe PID=   2804484.
  
 Copyright (c) 1988,1990,1992,1993,1995,1998,2003,2009,2013,
            Gaussian, Inc.  All Rights Reserved.
  
 This is part of the Gaussian(R) 09 program.  It is based on
 the Gaussian(R) 03 system (copyright 2003, Gaussian, Inc.),
 the Gaussian(R) 98 system (copyright 1998, Gaussian, Inc.),
 the Gaussian(R) 94 system (copyright 1995, Gaussian, Inc.),
 the Gaussian 92(TM) system (copyright 1992, Gaussian, Inc.),
 the Gaussian 90(TM) system (copyright 1990, Gaussian, Inc.),
 the Gaussian 88(TM) system (copyright 1988, Gaussian, Inc.),
 the Gaussian 86(TM) system (copyright 1986, Carnegie Mellon
 University), and the Gaussian 82(TM) system (copyright 1983,
 Carnegie Mellon University). Gaussian is a federally registered
 trademark of Gaussian, Inc.
  
 This software contains proprietary and confidential information,
 including trade secrets, belonging to Gaussian, Inc.
  
 This software is provided under written license and may be
 used, copied, transmitted, or stored only in accord with that
 written license.
  
 The following legend is applicable only to US Government
 contracts under FAR:
  
                    RESTRICTED RIGHTS LEGEND
  
 Use, reproduction and disclosure by the US Government is
 subject to restrictions as set forth in subparagraphs (a)
 and (c) of the Commercial Computer Software - Restricted
 Rights clause in FAR 52.227-19.
  
 Gaussian, Inc.
 340 Quinnipiac St., Bldg. 40, Wallingford CT 06492
  
  
 ---------------------------------------------------------------
 Warning -- This program may not be used in any manner that
 competes with the business of Gaussian, Inc. or will provide
 assistance to any competitor of Gaussian, Inc.  The licensee
 of this program is prohibited from giving any competitor of
 Gaussian, Inc. access to this program.  By using this program,
 the user acknowledges that Gaussian, Inc. is engaged in the
 business of creating and licensing software in the field of
 computational chemistry and represents and warrants to the
 licensee that it is not a competitor of Gaussian, Inc. and that
 it will not use this program in any manner prohibited above.
 ---------------------------------------------------------------
  

 Cite this work as:
 Gaussian 09, Revision D.01,
 M. J. Frisch, G. W. Trucks, H. B. Schlegel, G. E. Scuseria, 
 M. A. Robb, J. R. Cheeseman, G. Scalmani, V. Barone, B. Mennucci, 
 G. A. Petersson, H. Nakatsuji, M. Caricato, X. Li, H. P. Hratchian, 
 A. F. Izmaylov, J. Bloino, G. Zheng, J. L. Sonnenberg, M. Hada, 
 M. Ehara, K. Toyota, R. Fukuda, J. Hasegawa, M. Ishida, T. Nakajima, 
 Y. Honda, O. Kitao, H. Nakai, T. Vreven, J. A. Montgomery, Jr., 
 J. E. Peralta, F. Ogliaro, M. Bearpark, J. J. Heyd, E. Brothers, 
 K. N. Kudin, V. N. Staroverov, T. Keith, R. Kobayashi, J. Normand, 
 K. Raghavachari, A. Rendell, J. C. Burant, S. S. Iyengar, J. Tomasi, 
 M. Cossi, N. Rega, J. M. Millam, M. Klene, J. E. Knox, J. B. Cross, 
 V. Bakken, C. Adamo, J. Jaramillo, R. Gomperts, R. E. Stratmann, 
 O. Yazyev, A. J. Austin, R. Cammi, C. Pomelli, J. W. Ochterski, 
 R. L. Martin, K. Morokuma, V. G. Zakrzewski, G. A. Voth, 
 P. Salvador, J. J. Dannenberg, S. Dapprich, A. D. Daniels, 
 O. Farkas, J. B. Foresman, J. V. Ortiz, J. Cioslowski, 
 and D. J. Fox, Gaussian, Inc., Wallingford CT, 2013.
 
 ******************************************
 Gaussian 09:  AM64L-G09RevD.01 24-Apr-2013
                11-Apr-2022 
 ******************************************
 %chk=anthracene-2-6-opt
 ----------
 #n AM1 Opt
 ----------
 1/14=-1,18=20,19=15,26=1,38=1/1,3;
 2/9=110,12=2,17=6,18=5,40=1/2;
 3/5=2,16=1,25=1,41=700000,71=1/1,2,3;
 4/35=1/1;
 5/5=2,35=1,38=5/2;
 6/7=2,8=2,9=2,10=2,28=1/1;
 7//1,2,3,16;
 1/14=-1,18=20,19=15,26=1/3(2);
 2/9=110/2;
 99//99;
 2/9=110/2;
 3/5=2,16=1,25=1,41=700000,71=1,135=20/1,2,3;
 4/5=5,16=3,35=1/1;
 5/5=2,35=1,38=5/2;
 7//1,2,3,16;
 1/14=-1,18=20,19=15,26=1/3(-5);
 2/9=110/2;
 6/7=2,8=2,9=2,10=2,19=2,28=1/1;
 99/9=1/99;
 ---------------------
 Geometry optimization
 ---------------------
 Symbolic Z-matrix:
 Charge =  0 Multiplicity = 1
 C                     0.00694   1.44703   0.00028 
 C                     1.27658   0.69295   0.00015 
 C                    -1.27037   0.7052    0.0001 
 O                     0.01047   2.67209   0.00052 
 C                    -0.00828  -1.44242  -0.00035 
 C                    -1.27787  -0.68987  -0.00019 
 O                    -0.01574  -2.66803  -0.00064 
 C                     1.26887  -0.70168  -0.00016 
 C                     2.49361   1.3841    0.00036 
 C                    -2.49258  -1.38938  -0.00034 
 C                     2.47914  -1.4094   -0.00028 
 C                    -2.48139   1.4091    0.00025 
 C                     3.68858   0.67168   0.00024 
 C                     3.69348  -0.7199   -0.00008 
 C                    -3.69115   0.71298   0.0001 
 C                    -3.68762  -0.67784  -0.00019 
 H                     2.51433   2.47197   0.0006 
 H                    -2.49081  -2.47631  -0.00057 
 H                     2.47881  -2.49829  -0.00052 
 H                    -2.48783   2.49774   0.00048 
 H                     4.62341  -1.28116  -0.00017 
 H                    -4.63377   1.2549    0.00021 
 O                     4.85008   1.38377   0.00045 
 H                     5.60299   0.76956   0.00035 
 O                    -4.89255  -1.31388  -0.00032 
 H                    -4.74637  -2.27511  -0.0005 
 

 GradGradGradGradGradGradGradGradGradGradGradGradGradGradGradGradGradGrad
 Berny optimization.
 Initialization pass.
                           ----------------------------
                           !    Initial Parameters    !
                           ! (Angstroms and Degrees)  !
 --------------------------                            --------------------------
 ! Name  Definition              Value          Derivative Info.                !
 --------------------------------------------------------------------------------
 ! R1    R(1,2)                  1.4767         estimate D2E/DX2                !
 ! R2    R(1,3)                  1.4771         estimate D2E/DX2                !
 ! R3    R(1,4)                  1.2251         estimate D2E/DX2                !
 ! R4    R(2,8)                  1.3947         estimate D2E/DX2                !
 ! R5    R(2,9)                  1.3996         estimate D2E/DX2                !
 ! R6    R(3,6)                  1.3951         estimate D2E/DX2                !
 ! R7    R(3,12)                 1.4007         estimate D2E/DX2                !
 ! R8    R(5,6)                  1.4759         estimate D2E/DX2                !
 ! R9    R(5,7)                  1.2256         estimate D2E/DX2                !
 ! R10   R(5,8)                  1.4764         estimate D2E/DX2                !
 ! R11   R(6,10)                 1.4017         estimate D2E/DX2                !
 ! R12   R(8,11)                 1.402          estimate D2E/DX2                !
 ! R13   R(9,13)                 1.3912         estimate D2E/DX2                !
 ! R14   R(9,17)                 1.0881         estimate D2E/DX2                !
 ! R15   R(10,16)                1.3908         estimate D2E/DX2                !
 ! R16   R(10,18)                1.0869         estimate D2E/DX2                !
 ! R17   R(11,14)                1.3964         estimate D2E/DX2                !
 ! R18   R(11,19)                1.0889         estimate D2E/DX2                !
 ! R19   R(12,15)                1.3957         estimate D2E/DX2                !
 ! R20   R(12,20)                1.0887         estimate D2E/DX2                !
 ! R21   R(13,14)                1.3916         estimate D2E/DX2                !
 ! R22   R(13,23)                1.3624         estimate D2E/DX2                !
 ! R23   R(14,21)                1.0862         estimate D2E/DX2                !
 ! R24   R(15,16)                1.3908         estimate D2E/DX2                !
 ! R25   R(15,22)                1.0873         estimate D2E/DX2                !
 ! R26   R(16,25)                1.3625         estimate D2E/DX2                !
 ! R27   R(23,24)                0.9717         estimate D2E/DX2                !
 ! R28   R(25,26)                0.9723         estimate D2E/DX2                !
 ! A1    A(2,1,3)              119.1456         estimate D2E/DX2                !
 ! A2    A(2,1,4)              120.5423         estimate D2E/DX2                !
 ! A3    A(3,1,4)              120.3121         estimate D2E/DX2                !
 ! A4    A(1,2,8)              120.3907         estimate D2E/DX2                !
 ! A5    A(1,2,9)              119.7004         estimate D2E/DX2                !
 ! A6    A(8,2,9)              119.9089         estimate D2E/DX2                !
 ! A7    A(1,3,6)              120.455          estimate D2E/DX2                !
 ! A8    A(1,3,12)             119.6859         estimate D2E/DX2                !
 ! A9    A(6,3,12)             119.8591         estimate D2E/DX2                !
 ! A10   A(6,5,7)              120.3086         estimate D2E/DX2                !
 ! A11   A(6,5,8)              119.2291         estimate D2E/DX2                !
 ! A12   A(7,5,8)              120.4622         estimate D2E/DX2                !
 ! A13   A(3,6,5)              120.3493         estimate D2E/DX2                !
 ! A14   A(3,6,10)             120.2442         estimate D2E/DX2                !
 ! A15   A(5,6,10)             119.4065         estimate D2E/DX2                !
 ! A16   A(2,8,5)              120.4302         estimate D2E/DX2                !
 ! A17   A(2,8,11)             120.0007         estimate D2E/DX2                !
 ! A18   A(5,8,11)             119.569          estimate D2E/DX2                !
 ! A19   A(2,9,13)             119.6052         estimate D2E/DX2                !
 ! A20   A(2,9,17)             120.6833         estimate D2E/DX2                !
 ! A21   A(13,9,17)            119.7115         estimate D2E/DX2                !
 ! A22   A(6,10,16)            119.2938         estimate D2E/DX2                !
 ! A23   A(6,10,18)            119.8429         estimate D2E/DX2                !
 ! A24   A(16,10,18)           120.8633         estimate D2E/DX2                !
 ! A25   A(8,11,14)            120.0947         estimate D2E/DX2                !
 ! A26   A(8,11,19)            120.3001         estimate D2E/DX2                !
 ! A27   A(14,11,19)           119.6052         estimate D2E/DX2                !
 ! A28   A(3,12,15)            119.9159         estimate D2E/DX2                !
 ! A29   A(3,12,20)            120.506          estimate D2E/DX2                !
 ! A30   A(15,12,20)           119.578          estimate D2E/DX2                !
 ! A31   A(9,13,14)            121.0044         estimate D2E/DX2                !
 ! A32   A(9,13,23)            117.6858         estimate D2E/DX2                !
 ! A33   A(14,13,23)           121.3098         estimate D2E/DX2                !
 ! A34   A(11,14,13)           119.3861         estimate D2E/DX2                !
 ! A35   A(11,14,21)           119.2991         estimate D2E/DX2                !
 ! A36   A(13,14,21)           121.3149         estimate D2E/DX2                !
 ! A37   A(12,15,16)           119.7716         estimate D2E/DX2                !
 ! A38   A(12,15,22)           120.1881         estimate D2E/DX2                !
 ! A39   A(16,15,22)           120.0404         estimate D2E/DX2                !
 ! A40   A(10,16,15)           120.9155         estimate D2E/DX2                !
 ! A41   A(10,16,25)           121.402          estimate D2E/DX2                !
 ! A42   A(15,16,25)           117.6826         estimate D2E/DX2                !
 ! A43   A(13,23,24)           109.2815         estimate D2E/DX2                !
 ! A44   A(16,25,26)           109.1809         estimate D2E/DX2                !
 ! D1    D(3,1,2,8)              0.001          estimate D2E/DX2                !
 ! D2    D(3,1,2,9)           -179.998          estimate D2E/DX2                !
 ! D3    D(4,1,2,8)           -179.9983         estimate D2E/DX2                !
 ! D4    D(4,1,2,9)              0.0027         estimate D2E/DX2                !
 ! D5    D(2,1,3,6)              0.0            estimate D2E/DX2                !
 ! D6    D(2,1,3,12)           179.9986         estimate D2E/DX2                !
 ! D7    D(4,1,3,6)            179.9992         estimate D2E/DX2                !
 ! D8    D(4,1,3,12)            -0.0021         estimate D2E/DX2                !
 ! D9    D(1,2,8,5)             -0.0006         estimate D2E/DX2                !
 ! D10   D(1,2,8,11)          -179.9999         estimate D2E/DX2                !
 ! D11   D(9,2,8,5)            179.9985         estimate D2E/DX2                !
 ! D12   D(9,2,8,11)            -0.0009         estimate D2E/DX2                !
 ! D13   D(1,2,9,13)           179.9999         estimate D2E/DX2                !
 ! D14   D(1,2,9,17)            -0.0011         estimate D2E/DX2                !
 ! D15   D(8,2,9,13)             0.0008         estimate D2E/DX2                !
 ! D16   D(8,2,9,17)           179.9998         estimate D2E/DX2                !
 ! D17   D(1,3,6,5)             -0.0013         estimate D2E/DX2                !
 ! D18   D(1,3,6,10)           179.9991         estimate D2E/DX2                !
 ! D19   D(12,3,6,5)          -180.0            estimate D2E/DX2                !
 ! D20   D(12,3,6,10)            0.0004         estimate D2E/DX2                !
 ! D21   D(1,3,12,15)         -179.9991         estimate D2E/DX2                !
 ! D22   D(1,3,12,20)            0.0011         estimate D2E/DX2                !
 ! D23   D(6,3,12,15)           -0.0004         estimate D2E/DX2                !
 ! D24   D(6,3,12,20)          179.9998         estimate D2E/DX2                !
 ! D25   D(7,5,6,3)           -179.9981         estimate D2E/DX2                !
 ! D26   D(7,5,6,10)             0.0015         estimate D2E/DX2                !
 ! D27   D(8,5,6,3)              0.0018         estimate D2E/DX2                !
 ! D28   D(8,5,6,10)          -179.9986         estimate D2E/DX2                !
 ! D29   D(6,5,8,2)             -0.0008         estimate D2E/DX2                !
 ! D30   D(6,5,8,11)           179.9986         estimate D2E/DX2                !
 ! D31   D(7,5,8,2)            179.999          estimate D2E/DX2                !
 ! D32   D(7,5,8,11)            -0.0016         estimate D2E/DX2                !
 ! D33   D(3,6,10,16)           -0.0003         estimate D2E/DX2                !
 ! D34   D(3,6,10,18)          179.9998         estimate D2E/DX2                !
 ! D35   D(5,6,10,16)         -179.9999         estimate D2E/DX2                !
 ! D36   D(5,6,10,18)            0.0001         estimate D2E/DX2                !
 ! D37   D(2,8,11,14)            0.0005         estimate D2E/DX2                !
 ! D38   D(2,8,11,19)          179.9999         estimate D2E/DX2                !
 ! D39   D(5,8,11,14)         -179.9989         estimate D2E/DX2                !
 ! D40   D(5,8,11,19)            0.0005         estimate D2E/DX2                !
 ! D41   D(2,9,13,14)           -0.0003         estimate D2E/DX2                !
 ! D42   D(2,9,13,23)          179.9999         estimate D2E/DX2                !
 ! D43   D(17,9,13,14)        -179.9993         estimate D2E/DX2                !
 ! D44   D(17,9,13,23)           0.0008         estimate D2E/DX2                !
 ! D45   D(6,10,16,15)           0.0003         estimate D2E/DX2                !
 ! D46   D(6,10,16,25)        -179.9997         estimate D2E/DX2                !
 ! D47   D(18,10,16,15)       -179.9998         estimate D2E/DX2                !
 ! D48   D(18,10,16,25)          0.0003         estimate D2E/DX2                !
 ! D49   D(8,11,14,13)           0.0001         estimate D2E/DX2                !
 ! D50   D(8,11,14,21)         179.9996         estimate D2E/DX2                !
 ! D51   D(19,11,14,13)       -179.9994         estimate D2E/DX2                !
 ! D52   D(19,11,14,21)          0.0002         estimate D2E/DX2                !
 ! D53   D(3,12,15,16)           0.0004         estimate D2E/DX2                !
 ! D54   D(3,12,15,22)        -179.9997         estimate D2E/DX2                !
 ! D55   D(20,12,15,16)       -179.9998         estimate D2E/DX2                !
 ! D56   D(20,12,15,22)          0.0001         estimate D2E/DX2                !
 ! D57   D(9,13,14,11)          -0.0002         estimate D2E/DX2                !
 ! D58   D(9,13,14,21)        -179.9997         estimate D2E/DX2                !
 ! D59   D(23,13,14,11)        179.9997         estimate D2E/DX2                !
 ! D60   D(23,13,14,21)          0.0001         estimate D2E/DX2                !
 ! D61   D(9,13,23,24)         179.9991         estimate D2E/DX2                !
 ! D62   D(14,13,23,24)         -0.0007         estimate D2E/DX2                !
 ! D63   D(12,15,16,10)         -0.0003         estimate D2E/DX2                !
 ! D64   D(12,15,16,25)        179.9996         estimate D2E/DX2                !
 ! D65   D(22,15,16,10)        179.9997         estimate D2E/DX2                !
 ! D66   D(22,15,16,25)         -0.0003         estimate D2E/DX2                !
 ! D67   D(10,16,25,26)          0.0012         estimate D2E/DX2                !
 ! D68   D(15,16,25,26)       -179.9987         estimate D2E/DX2                !
 --------------------------------------------------------------------------------
 Trust Radius=3.00D-01 FncErr=1.00D-07 GrdErr=1.00D-07
 Number of steps in this run=    150 maximum allowed number of steps=    156.
 GradGradGradGradGradGradGradGradGradGradGradGradGradGradGradGradGradGrad

                          Input orientation:                          
 ---------------------------------------------------------------------
 Center     Atomic      Atomic             Coordinates (Angstroms)
 Number     Number       Type             X           Y           Z
 ---------------------------------------------------------------------
      1          6           0        0.006940    1.447030    0.000280
      2          6           0        1.276580    0.692950    0.000150
      3          6           0       -1.270370    0.705200    0.000100
      4          8           0        0.010470    2.672090    0.000520
      5          6           0       -0.008280   -1.442420   -0.000350
      6          6           0       -1.277870   -0.689870   -0.000190
      7          8           0       -0.015740   -2.668030   -0.000640
      8          6           0        1.268870   -0.701680   -0.000160
      9          6           0        2.493610    1.384100    0.000360
     10          6           0       -2.492580   -1.389380   -0.000340
     11          6           0        2.479140   -1.409400   -0.000280
     12          6           0       -2.481390    1.409100    0.000250
     13          6           0        3.688580    0.671680    0.000240
     14          6           0        3.693480   -0.719900   -0.000080
     15          6           0       -3.691150    0.712980    0.000100
     16          6           0       -3.687620   -0.677840   -0.000190
     17          1           0        2.514330    2.471970    0.000600
     18          1           0       -2.490810   -2.476310   -0.000570
     19          1           0        2.478810   -2.498290   -0.000520
     20          1           0       -2.487830    2.497740    0.000480
     21          1           0        4.623410   -1.281160   -0.000170
     22          1           0       -4.633770    1.254900    0.000210
     23          8           0        4.850080    1.383770    0.000450
     24          1           0        5.602990    0.769560    0.000350
     25          8           0       -4.892550   -1.313880   -0.000320
     26          1           0       -4.746370   -2.275110   -0.000500
 ---------------------------------------------------------------------
                    Distance matrix (angstroms):
                    1          2          3          4          5
     1  C    0.000000
     2  C    1.476693   0.000000
     3  C    1.477103   2.546979   0.000000
     4  O    1.225065   2.349474   2.347170   0.000000
     5  C    2.889490   2.492122   2.491012   4.114553   0.000000
     6  C    2.493407   2.904721   1.395090   3.600360   1.475869
     7  O    4.115123   3.600872   3.598997   5.340184   1.225633
     8  C    2.491871   1.394651   2.902938   3.600819   1.476417
     9  C    2.487466   1.399589   3.824716   2.797303   3.774741
    10  C    3.780585   4.306120   2.425090   4.770828   2.484866
    11  C    3.777693   2.421988   4.304690   4.769999   2.487639
    12  C    2.488619   3.825599   1.400730   2.793655   3.774578
    13  C    3.762398   2.412094   4.959063   4.186900   4.258661
    14  C    4.276232   2.799563   5.164370   5.007011   3.771613
    15  C    3.770239   4.967770   2.420793   4.188091   4.267233
    16  C    4.262024   5.149985   2.784941   4.989780   3.757942
    17  H    2.708783   2.167242   4.176773   2.511845   4.656824
    18  H    4.650952   4.923153   3.407562   5.723847   2.689216
    19  H    4.655716   3.410186   4.931399   5.729357   2.701940
    20  H    2.707004   4.174692   2.166889   2.504376   4.655430
    21  H    5.362352   3.885664   6.219507   6.075146   4.634496
    22  H    4.644685   5.937005   3.408024   4.855656   5.354502
    23  O    4.843553   3.639661   6.157951   5.008153   5.620588
    24  H    5.636909   4.327088   6.873661   5.907275   6.031518
    25  O    5.623844   6.487336   4.146911   6.318826   4.885961
    26  H    6.037241   6.714559   4.578736   6.863113   4.810704
                    6          7          8          9         10
     6  C    0.000000
     7  O    2.346506   0.000000
     8  C    2.546767   2.348777   0.000000
     9  C    4.304116   4.766193   2.418774   0.000000
    10  C    1.401726   2.787415   3.823799   5.705636   0.000000
    11  C    3.825291   2.794383   1.402006   2.793538   4.971760
    12  C    2.419532   4.764706   4.303469   4.975063   2.798502
    13  C    5.149703   4.987550   2.782286   1.391221   6.515728
    14  C    4.971441   4.189693   2.424678   2.422087   6.222181
    15  C    2.791399   4.993983   5.157816   6.221066   2.420018
    16  C    2.409780   4.176549   4.956547   6.516073   1.390831
    17  H    4.937410   5.728949   3.409285   1.088067   6.322909
    18  H    2.159303   2.482484   4.157464   6.304539   1.086931
    19  H    4.169296   2.500318   2.166048   3.882418   5.093565
    20  H    3.409525   5.726815   4.934479   5.104404   3.887123
    21  H    5.930829   4.842016   3.404223   3.411694   7.116813
    22  H    3.878685   6.059338   6.218470   7.128551   3.402486
    23  O    6.469293   6.331926   4.144173   2.356470   7.848886
    24  H    7.033930   6.586892   4.577023   3.169527   8.378501
    25  O    3.668147   5.061324   6.191759   7.863489   2.401157
    26  H    3.813591   4.746920   6.217620   8.112159   2.421588
                   11         12         13         14         15
    11  C    0.000000
    12  C    5.705331   0.000000
    13  C    2.406998   6.213881   0.000000
    14  C    1.396435   6.531589   1.391589   0.000000
    15  C    6.525104   1.395744   7.379846   7.522360   0.000000
    16  C    6.210001   2.410458   7.498635   7.381220   1.390825
    17  H    3.881530   5.107535   2.149397   3.402709   6.449963
    18  H    5.083178   3.885422   6.935034   6.428874   3.407695
    19  H    1.088890   6.314371   3.392971   2.153624   6.955621
    20  H    6.319536   1.088659   6.440694   6.968630   2.152521
    21  H    2.148101   7.597084   2.165062   1.086178   8.550351
    22  H    7.595524   2.157897   8.342761   8.558208   1.087295
    23  O    3.663763   7.331514   1.362408   2.400656   8.567530
    24  H    3.808714   8.109637   1.916911   2.421718   9.294312
    25  O    7.372309   3.637075   8.807851   8.606551   2.356167
    26  H    7.277187   4.324759   8.934873   8.581943   3.168939
                   16         17         18         19         20
    16  C    0.000000
    17  H    6.955968   0.000000
    18  H    2.160289   7.038246   0.000000
    19  H    6.429533   4.970387   4.969669   0.000000
    20  H    3.394673   5.002226   4.974051   7.044702   0.000000
    21  H    8.332900   4.305137   7.213911   2.465911   8.052939
    22  H    2.151902   7.250972   4.302814   8.042091   2.479861
    23  O    8.783084   2.576802   8.293906   4.548990   7.421984
    24  H    9.402681   3.526758   8.720394   4.520989   8.273329
    25  O    1.362499   8.318325   2.668258   7.465908   4.506787
    26  H    1.916305   8.674822   2.264516   7.228626   5.280256
                   21         22         23         24         25
    21  H    0.000000
    22  H    9.598280   0.000000
    23  O    2.674553   9.484726   0.000000
    24  H    2.272670  10.248259   0.971662   0.000000
    25  O    9.516016   2.581782  10.109211  10.700331   0.000000
    26  H    9.422352   3.531805  10.270309  10.787922   0.972282
                   26
    26  H    0.000000
 Stoichiometry    C14H8O4
 Framework group  C1[X(C14H8O4)]
 Deg. of freedom    72
 Full point group                 C1      NOp   1
 Largest Abelian subgroup         C1      NOp   1
 Largest concise Abelian subgroup C1      NOp   1
                         Standard orientation:                         
 ---------------------------------------------------------------------
 Center     Atomic      Atomic             Coordinates (Angstroms)
 Number     Number       Type             X           Y           Z
 ---------------------------------------------------------------------
      1          6           0        0.205883    1.440376   -0.000031
      2          6           0        1.358067    0.516745   -0.000020
      3          6           0       -1.162331    0.883758   -0.000026
      4          8           0        0.380074    2.652994   -0.000058
      5          6           0       -0.211794   -1.418767   -0.000032
      6          6           0       -1.364142   -0.496658   -0.000012
      7          8           0       -0.389953   -2.631382   -0.000055
      8          6           0        1.156110   -0.863206   -0.000027
      9          6           0        2.659528    1.031576    0.000017
     10          6           0       -2.664469   -1.020091    0.000012
     11          6           0        2.255963   -1.732657   -0.000015
     12          6           0       -2.263458    1.749531   -0.000007
     13          6           0        3.743575    0.159603    0.000030
     14          6           0        3.554529   -1.219085    0.000013
     15          6           0       -3.558412    1.228765    0.000017
     16          6           0       -3.748708   -0.148980    0.000029
     17          1           0        2.831625    2.105947    0.000020
     18          1           0       -2.814165   -2.096665    0.000019
     19          1           0        2.103914   -2.810879   -0.000018
     20          1           0       -2.118149    2.828449   -0.000014
     21          1           0        4.397184   -1.904443    0.000028
     22          1           0       -4.416328    1.896740    0.000026
     23          8           0        4.992964    0.702908    0.000064
     24          1           0        5.652948   -0.010219    0.000083
     25          8           0       -5.030508   -0.610925    0.000060
     26          1           0       -5.019688   -1.583146    0.000086
 ---------------------------------------------------------------------
 Rotational constants (GHZ):      1.0530091      0.2603905      0.2087663
 Standard basis: VSTO-6G (5D, 7F)
 There are    80 symmetry adapted cartesian basis functions of A   symmetry.
 There are    80 symmetry adapted basis functions of A   symmetry.
    80 basis functions,   480 primitive gaussians,    80 cartesian basis functions
    44 alpha electrons       44 beta electrons
       nuclear repulsion energy       659.5672669074 Hartrees.
 Integral buffers will be    131072 words long.
 Regular integral format.
 Two-electron integral symmetry is turned off.
 Do NDO integrals.
 One-electron integrals computed using PRISM.
 NBasis=    80 RedAO= F EigKep=  0.00D+00  NBF=    80
 NBsUse=    80 1.00D-04 EigRej=  0.00D+00 NBFU=    80
 Simple Huckel Guess.
 Overlap will be assumed to be unity.
 Keep J ints in memory in canonical form, NReq=933890.
 Requested convergence on RMS density matrix=1.00D-08 within 128 cycles.
 Requested convergence on MAX density matrix=1.00D-06.
 Requested convergence on             energy=1.00D-06.
 No special actions if energy rises.
 SCF Done:  E(RAM1) = -0.146245943152     A.U. after   16 cycles
            NFock= 15  Conv=0.56D-08     -V/T= 0.9976

 **********************************************************************

            Population analysis using the SCF density.

 **********************************************************************

 Orbital symmetries:
       Occupied  (A) (A) (A) (A) (A) (A) (A) (A) (A) (A) (A) (A)
                 (A) (A) (A) (A) (A) (A) (A) (A) (A) (A) (A) (A)
                 (A) (A) (A) (A) (A) (A) (A) (A) (A) (A) (A) (A)
                 (A) (A) (A) (A) (A) (A) (A) (A)
       Virtual   (A) (A) (A) (A) (A) (A) (A) (A) (A) (A) (A) (A)
                 (A) (A) (A) (A) (A) (A) (A) (A) (A) (A) (A) (A)
                 (A) (A) (A) (A) (A) (A) (A) (A) (A) (A) (A) (A)
 The electronic state is 1-A.
 Alpha  occ. eigenvalues --   -1.55022  -1.50215  -1.46651  -1.46306  -1.39109
 Alpha  occ. eigenvalues --   -1.37500  -1.23202  -1.17996  -1.17413  -1.12633
 Alpha  occ. eigenvalues --   -0.98923  -0.94916  -0.89562  -0.86495  -0.81371
 Alpha  occ. eigenvalues --   -0.77526  -0.72608  -0.70870  -0.67833  -0.64941
 Alpha  occ. eigenvalues --   -0.63464  -0.61740  -0.60257  -0.60091  -0.58670
 Alpha  occ. eigenvalues --   -0.57585  -0.56389  -0.56180  -0.55486  -0.54990
 Alpha  occ. eigenvalues --   -0.54417  -0.53915  -0.51998  -0.50495  -0.48196
 Alpha  occ. eigenvalues --   -0.47429  -0.46460  -0.46281  -0.41547  -0.40034
 Alpha  occ. eigenvalues --   -0.38137  -0.37966  -0.35749  -0.35498
 Alpha virt. eigenvalues --   -0.05020  -0.01739  -0.00688  -0.00306   0.04718
 Alpha virt. eigenvalues --    0.05267   0.08175   0.08361   0.08945   0.09510
 Alpha virt. eigenvalues --    0.10312   0.10499   0.12280   0.12424   0.12729
 Alpha virt. eigenvalues --    0.13034   0.13323   0.13681   0.14171   0.14532
 Alpha virt. eigenvalues --    0.15362   0.15855   0.16249   0.16823   0.16860
 Alpha virt. eigenvalues --    0.17199   0.17381   0.17549   0.18159   0.18360
 Alpha virt. eigenvalues --    0.19169   0.19464   0.21481   0.21540   0.22499
 Alpha virt. eigenvalues --    0.23252
          Condensed to atoms (all electrons):
               1          2          3          4          5          6
     1  C    3.691769   0.000000   0.000000   0.000000   0.000000   0.000000
     2  C    0.000000   4.068759   0.000000   0.000000   0.000000   0.000000
     3  C    0.000000   0.000000   4.147805   0.000000   0.000000   0.000000
     4  O    0.000000   0.000000   0.000000   6.278799   0.000000   0.000000
     5  C    0.000000   0.000000   0.000000   0.000000   3.691237   0.000000
     6  C    0.000000   0.000000   0.000000   0.000000   0.000000   4.066126
     7  O    0.000000   0.000000   0.000000   0.000000   0.000000   0.000000
     8  C    0.000000   0.000000   0.000000   0.000000   0.000000   0.000000
     9  C    0.000000   0.000000   0.000000   0.000000   0.000000   0.000000
    10  C    0.000000   0.000000   0.000000   0.000000   0.000000   0.000000
    11  C    0.000000   0.000000   0.000000   0.000000   0.000000   0.000000
    12  C    0.000000   0.000000   0.000000   0.000000   0.000000   0.000000
    13  C    0.000000   0.000000   0.000000   0.000000   0.000000   0.000000
    14  C    0.000000   0.000000   0.000000   0.000000   0.000000   0.000000
    15  C    0.000000   0.000000   0.000000   0.000000   0.000000   0.000000
    16  C    0.000000   0.000000   0.000000   0.000000   0.000000   0.000000
    17  H    0.000000   0.000000   0.000000   0.000000   0.000000   0.000000
    18  H    0.000000   0.000000   0.000000   0.000000   0.000000   0.000000
    19  H    0.000000   0.000000   0.000000   0.000000   0.000000   0.000000
    20  H    0.000000   0.000000   0.000000   0.000000   0.000000   0.000000
    21  H    0.000000   0.000000   0.000000   0.000000   0.000000   0.000000
    22  H    0.000000   0.000000   0.000000   0.000000   0.000000   0.000000
    23  O    0.000000   0.000000   0.000000   0.000000   0.000000   0.000000
    24  H    0.000000   0.000000   0.000000   0.000000   0.000000   0.000000
    25  O    0.000000   0.000000   0.000000   0.000000   0.000000   0.000000
    26  H    0.000000   0.000000   0.000000   0.000000   0.000000   0.000000
               7          8          9         10         11         12
     1  C    0.000000   0.000000   0.000000   0.000000   0.000000   0.000000
     2  C    0.000000   0.000000   0.000000   0.000000   0.000000   0.000000
     3  C    0.000000   0.000000   0.000000   0.000000   0.000000   0.000000
     4  O    0.000000   0.000000   0.000000   0.000000   0.000000   0.000000
     5  C    0.000000   0.000000   0.000000   0.000000   0.000000   0.000000
     6  C    0.000000   0.000000   0.000000   0.000000   0.000000   0.000000
     7  O    6.287445   0.000000   0.000000   0.000000   0.000000   0.000000
     8  C    0.000000   4.150764   0.000000   0.000000   0.000000   0.000000
     9  C    0.000000   0.000000   4.116666   0.000000   0.000000   0.000000
    10  C    0.000000   0.000000   0.000000   4.178432   0.000000   0.000000
    11  C    0.000000   0.000000   0.000000   0.000000   4.041387   0.000000
    12  C    0.000000   0.000000   0.000000   0.000000   0.000000   4.047189
    13  C    0.000000   0.000000   0.000000   0.000000   0.000000   0.000000
    14  C    0.000000   0.000000   0.000000   0.000000   0.000000   0.000000
    15  C    0.000000   0.000000   0.000000   0.000000   0.000000   0.000000
    16  C    0.000000   0.000000   0.000000   0.000000   0.000000   0.000000
    17  H    0.000000   0.000000   0.000000   0.000000   0.000000   0.000000
    18  H    0.000000   0.000000   0.000000   0.000000   0.000000   0.000000
    19  H    0.000000   0.000000   0.000000   0.000000   0.000000   0.000000
    20  H    0.000000   0.000000   0.000000   0.000000   0.000000   0.000000
    21  H    0.000000   0.000000   0.000000   0.000000   0.000000   0.000000
    22  H    0.000000   0.000000   0.000000   0.000000   0.000000   0.000000
    23  O    0.000000   0.000000   0.000000   0.000000   0.000000   0.000000
    24  H    0.000000   0.000000   0.000000   0.000000   0.000000   0.000000
    25  O    0.000000   0.000000   0.000000   0.000000   0.000000   0.000000
    26  H    0.000000   0.000000   0.000000   0.000000   0.000000   0.000000
              13         14         15         16         17         18
     1  C    0.000000   0.000000   0.000000   0.000000   0.000000   0.000000
     2  C    0.000000   0.000000   0.000000   0.000000   0.000000   0.000000
     3  C    0.000000   0.000000   0.000000   0.000000   0.000000   0.000000
     4  O    0.000000   0.000000   0.000000   0.000000   0.000000   0.000000
     5  C    0.000000   0.000000   0.000000   0.000000   0.000000   0.000000
     6  C    0.000000   0.000000   0.000000   0.000000   0.000000   0.000000
     7  O    0.000000   0.000000   0.000000   0.000000   0.000000   0.000000
     8  C    0.000000   0.000000   0.000000   0.000000   0.000000   0.000000
     9  C    0.000000   0.000000   0.000000   0.000000   0.000000   0.000000
    10  C    0.000000   0.000000   0.000000   0.000000   0.000000   0.000000
    11  C    0.000000   0.000000   0.000000   0.000000   0.000000   0.000000
    12  C    0.000000   0.000000   0.000000   0.000000   0.000000   0.000000
    13  C    3.894573   0.000000   0.000000   0.000000   0.000000   0.000000
    14  C    0.000000   4.214763   0.000000   0.000000   0.000000   0.000000
    15  C    0.000000   0.000000   4.151884   0.000000   0.000000   0.000000
    16  C    0.000000   0.000000   0.000000   3.896089   0.000000   0.000000
    17  H    0.000000   0.000000   0.000000   0.000000   0.825478   0.000000
    18  H    0.000000   0.000000   0.000000   0.000000   0.000000   0.840423
    19  H    0.000000   0.000000   0.000000   0.000000   0.000000   0.000000
    20  H    0.000000   0.000000   0.000000   0.000000   0.000000   0.000000
    21  H    0.000000   0.000000   0.000000   0.000000   0.000000   0.000000
    22  H    0.000000   0.000000   0.000000   0.000000   0.000000   0.000000
    23  O    0.000000   0.000000   0.000000   0.000000   0.000000   0.000000
    24  H    0.000000   0.000000   0.000000   0.000000   0.000000   0.000000
    25  O    0.000000   0.000000   0.000000   0.000000   0.000000   0.000000
    26  H    0.000000   0.000000   0.000000   0.000000   0.000000   0.000000
              19         20         21         22         23         24
     1  C    0.000000   0.000000   0.000000   0.000000   0.000000   0.000000
     2  C    0.000000   0.000000   0.000000   0.000000   0.000000   0.000000
     3  C    0.000000   0.000000   0.000000   0.000000   0.000000   0.000000
     4  O    0.000000   0.000000   0.000000   0.000000   0.000000   0.000000
     5  C    0.000000   0.000000   0.000000   0.000000   0.000000   0.000000
     6  C    0.000000   0.000000   0.000000   0.000000   0.000000   0.000000
     7  O    0.000000   0.000000   0.000000   0.000000   0.000000   0.000000
     8  C    0.000000   0.000000   0.000000   0.000000   0.000000   0.000000
     9  C    0.000000   0.000000   0.000000   0.000000   0.000000   0.000000
    10  C    0.000000   0.000000   0.000000   0.000000   0.000000   0.000000
    11  C    0.000000   0.000000   0.000000   0.000000   0.000000   0.000000
    12  C    0.000000   0.000000   0.000000   0.000000   0.000000   0.000000
    13  C    0.000000   0.000000   0.000000   0.000000   0.000000   0.000000
    14  C    0.000000   0.000000   0.000000   0.000000   0.000000   0.000000
    15  C    0.000000   0.000000   0.000000   0.000000   0.000000   0.000000
    16  C    0.000000   0.000000   0.000000   0.000000   0.000000   0.000000
    17  H    0.000000   0.000000   0.000000   0.000000   0.000000   0.000000
    18  H    0.000000   0.000000   0.000000   0.000000   0.000000   0.000000
    19  H    0.840243   0.000000   0.000000   0.000000   0.000000   0.000000
    20  H    0.000000   0.837053   0.000000   0.000000   0.000000   0.000000
    21  H    0.000000   0.000000   0.858104   0.000000   0.000000   0.000000
    22  H    0.000000   0.000000   0.000000   0.843188   0.000000   0.000000
    23  O    0.000000   0.000000   0.000000   0.000000   6.243926   0.000000
    24  H    0.000000   0.000000   0.000000   0.000000   0.000000   0.771804
    25  O    0.000000   0.000000   0.000000   0.000000   0.000000   0.000000
    26  H    0.000000   0.000000   0.000000   0.000000   0.000000   0.000000
              25         26
     1  C    0.000000   0.000000
     2  C    0.000000   0.000000
     3  C    0.000000   0.000000
     4  O    0.000000   0.000000
     5  C    0.000000   0.000000
     6  C    0.000000   0.000000
     7  O    0.000000   0.000000
     8  C    0.000000   0.000000
     9  C    0.000000   0.000000
    10  C    0.000000   0.000000
    11  C    0.000000   0.000000
    12  C    0.000000   0.000000
    13  C    0.000000   0.000000
    14  C    0.000000   0.000000
    15  C    0.000000   0.000000
    16  C    0.000000   0.000000
    17  H    0.000000   0.000000
    18  H    0.000000   0.000000
    19  H    0.000000   0.000000
    20  H    0.000000   0.000000
    21  H    0.000000   0.000000
    22  H    0.000000   0.000000
    23  O    0.000000   0.000000
    24  H    0.000000   0.000000
    25  O    6.246002   0.000000
    26  H    0.000000   0.770093
 Mulliken charges:
               1
     1  C    0.308231
     2  C   -0.068759
     3  C   -0.147805
     4  O   -0.278799
     5  C    0.308763
     6  C   -0.066126
     7  O   -0.287445
     8  C   -0.150764
     9  C   -0.116666
    10  C   -0.178432
    11  C   -0.041387
    12  C   -0.047189
    13  C    0.105427
    14  C   -0.214763
    15  C   -0.151884
    16  C    0.103911
    17  H    0.174522
    18  H    0.159577
    19  H    0.159757
    20  H    0.162947
    21  H    0.141896
    22  H    0.156812
    23  O   -0.243926
    24  H    0.228196
    25  O   -0.246002
    26  H    0.229907
 Sum of Mulliken charges =  -0.00000
 Mulliken charges with hydrogens summed into heavy atoms:
               1
     1  C    0.308231
     2  C   -0.068759
     3  C   -0.147805
     4  O   -0.278799
     5  C    0.308763
     6  C   -0.066126
     7  O   -0.287445
     8  C   -0.150764
     9  C    0.057856
    10  C   -0.018855
    11  C    0.118371
    12  C    0.115758
    13  C    0.105427
    14  C   -0.072867
    15  C    0.004929
    16  C    0.103911
    23  O   -0.015729
    25  O   -0.016095
 Charge=             -0.0000 electrons
 Dipole moment (field-independent basis, Debye):
    X=              0.9117    Y=             -2.1132    Z=              0.0002  Tot=              2.3015
 N-N= 6.595672669074D+02 E-N=-1.189936951432D+03  KE=-6.220881898875D+01
 Calling FoFJK, ICntrl=      2127 FMM=F ISym2X=0 I1Cent= 0 IOpClX= 0 NMat=1 NMatS=1 NMatT=0.
 ***** Axes restored to original set *****
 -------------------------------------------------------------------
 Center     Atomic                   Forces (Hartrees/Bohr)
 Number     Number              X              Y              Z
 -------------------------------------------------------------------
      1        6          -0.004025851   -0.016484594   -0.000005994
      2        6           0.005290544    0.003871475    0.000003496
      3        6           0.004568825    0.003498523    0.000003622
      4        8           0.000647589    0.034932423    0.000007591
      5        6           0.004352089    0.016569127    0.000003112
      6        6          -0.003868041   -0.003432646   -0.000001427
      7        8          -0.000172810   -0.035513915   -0.000008112
      8        6          -0.002698540   -0.007562770   -0.000001337
      9        6          -0.016276209    0.002808643   -0.000001938
     10        6           0.020225095    0.004077607    0.000001077
     11        6           0.003059407    0.011542017    0.000003172
     12        6          -0.005871948   -0.012785698   -0.000003666
     13        6           0.007052757   -0.007202125   -0.000001071
     14        6          -0.014203083   -0.015946185   -0.000003863
     15        6           0.007058498    0.017091687    0.000003645
     16        6           0.000655079   -0.006441521   -0.000001237
     17        1          -0.001289728    0.010485199    0.000002789
     18        1           0.001289984   -0.010591034   -0.000002216
     19        1          -0.001967708   -0.009345623   -0.000002454
     20        1           0.001827706    0.009517713    0.000002049
     21        1           0.009020053   -0.004040738   -0.000000809
     22        1          -0.008605235    0.004277387    0.000000989
     23        8           0.012463749    0.013607023    0.000003593
     24        1          -0.002613542   -0.000262075   -0.000000257
     25        8          -0.017073212   -0.004915319   -0.000001018
     26        1           0.001154533    0.002245419    0.000000266
 -------------------------------------------------------------------
 Cartesian Forces:  Max     0.035513915 RMS     0.009115531

 GradGradGradGradGradGradGradGradGradGradGradGradGradGradGradGradGradGrad
 Berny optimization.
 FormGI is forming the generalized inverse of G from B-inverse, IUseBI=4.
 Internal  Forces:  Max     0.035514310 RMS     0.006583597
 Search for a local minimum.
 Step number   1 out of a maximum of  150
 All quantities printed in internal units (Hartrees-Bohrs-Radians)
 Mixed Optimization -- RFO/linear search
 Second derivative matrix not updated -- first step.
 ITU=  0
     Eigenvalues ---    0.01072   0.01077   0.01082   0.01560   0.01646
     Eigenvalues ---    0.01773   0.01813   0.01889   0.01923   0.02098
     Eigenvalues ---    0.02111   0.02115   0.02117   0.02135   0.02145
     Eigenvalues ---    0.02168   0.02177   0.02182   0.02187   0.02188
     Eigenvalues ---    0.02189   0.02201   0.02208   0.16000   0.16000
     Eigenvalues ---    0.16000   0.16000   0.16000   0.16000   0.16000
     Eigenvalues ---    0.16000   0.22429   0.22456   0.23513   0.23530
     Eigenvalues ---    0.24611   0.24636   0.25000   0.25000   0.25000
     Eigenvalues ---    0.25000   0.25000   0.25000   0.25000   0.33250
     Eigenvalues ---    0.33977   0.34941   0.34944   0.34968   0.35000
     Eigenvalues ---    0.35037   0.35127   0.35170   0.35258   0.40245
     Eigenvalues ---    0.41830   0.41847   0.42265   0.45121   0.45696
     Eigenvalues ---    0.45964   0.46031   0.46360   0.46724   0.46926
     Eigenvalues ---    0.47018   0.52446   0.52464   0.52913   0.53039
     Eigenvalues ---    0.92931   0.93174
 RFO step:  Lambda=-1.17548264D-02 EMin= 1.07154879D-02
 Linear search not attempted -- first point.
 Iteration  1 RMS(Cart)=  0.02375271 RMS(Int)=  0.00013565
 Iteration  2 RMS(Cart)=  0.00031708 RMS(Int)=  0.00000544
 Iteration  3 RMS(Cart)=  0.00000003 RMS(Int)=  0.00000544
 Variable       Old X    -DE/DX   Delta X   Delta X   Delta X     New X
                                 (Linear)    (Quad)   (Total)
    R1        2.79055   0.00579   0.00000   0.01615   0.01615   2.80669
    R2        2.79132   0.00187   0.00000   0.00505   0.00504   2.79636
    R3        2.31504   0.03493   0.00000   0.03703   0.03703   2.35206
    R4        2.63551   0.01572   0.00000   0.03241   0.03241   2.66792
    R5        2.64484  -0.00302   0.00000  -0.00591  -0.00590   2.63894
    R6        2.63634   0.01313   0.00000   0.02641   0.02640   2.66274
    R7        2.64700   0.00341   0.00000   0.00604   0.00604   2.65303
    R8        2.78899   0.00665   0.00000   0.01825   0.01825   2.80724
    R9        2.31611   0.03551   0.00000   0.03774   0.03774   2.35385
   R10        2.79002   0.00157   0.00000   0.00448   0.00448   2.79451
   R11        2.64888  -0.00389   0.00000  -0.00810  -0.00811   2.64077
   R12        2.64941  -0.00023   0.00000  -0.00181  -0.00182   2.64759
   R13        2.62903   0.01720   0.00000   0.03688   0.03689   2.66592
   R14        2.05615   0.01046   0.00000   0.02888   0.02888   2.08503
   R15        2.62829   0.01911   0.00000   0.04076   0.04076   2.66905
   R16        2.05400   0.01059   0.00000   0.02915   0.02915   2.08315
   R17        2.63888  -0.00233   0.00000  -0.00546  -0.00547   2.63341
   R18        2.05770   0.00935   0.00000   0.02588   0.02588   2.08358
   R19        2.63757  -0.00305   0.00000  -0.00669  -0.00668   2.63090
   R20        2.05727   0.00951   0.00000   0.02630   0.02630   2.08357
   R21        2.62972   0.01771   0.00000   0.03748   0.03748   2.66720
   R22        2.57458   0.01537   0.00000   0.02866   0.02866   2.60324
   R23        2.05258   0.00981   0.00000   0.02693   0.02693   2.07951
   R24        2.62828   0.01678   0.00000   0.03567   0.03567   2.66395
   R25        2.05469   0.00959   0.00000   0.02642   0.02642   2.08111
   R26        2.57475   0.01532   0.00000   0.02858   0.02858   2.60333
   R27        1.83618  -0.00186   0.00000  -0.00343  -0.00343   1.83275
   R28        1.83735  -0.00205   0.00000  -0.00378  -0.00378   1.83356
    A1        2.07948  -0.00888   0.00000  -0.03481  -0.03482   2.04466
    A2        2.10386   0.00381   0.00000   0.01499   0.01499   2.11885
    A3        2.09984   0.00507   0.00000   0.01983   0.01983   2.11967
    A4        2.10121   0.00457   0.00000   0.01734   0.01733   2.11854
    A5        2.08917  -0.00605   0.00000  -0.02274  -0.02275   2.06642
    A6        2.09281   0.00148   0.00000   0.00540   0.00542   2.09823
    A7        2.10234   0.00419   0.00000   0.01683   0.01682   2.11916
    A8        2.08891  -0.00564   0.00000  -0.01861  -0.01860   2.07031
    A9        2.09194   0.00145   0.00000   0.00178   0.00178   2.09372
   A10        2.09978   0.00479   0.00000   0.01870   0.01870   2.11848
   A11        2.08094  -0.00947   0.00000  -0.03703  -0.03702   2.04393
   A12        2.10246   0.00469   0.00000   0.01832   0.01832   2.12078
   A13        2.10049   0.00540   0.00000   0.02005   0.02006   2.12055
   A14        2.09866  -0.00087   0.00000  -0.00429  -0.00430   2.09435
   A15        2.08404  -0.00453   0.00000  -0.01577  -0.01576   2.06828
   A16        2.10190   0.00420   0.00000   0.01762   0.01763   2.11953
   A17        2.09441   0.00101   0.00000   0.00024   0.00023   2.09464
   A18        2.08687  -0.00520   0.00000  -0.01785  -0.01786   2.06902
   A19        2.08750  -0.00250   0.00000  -0.00702  -0.00699   2.08051
   A20        2.10632  -0.00028   0.00000  -0.00541  -0.00542   2.10091
   A21        2.08936   0.00278   0.00000   0.01242   0.01241   2.10177
   A22        2.08207  -0.00006   0.00000   0.00254   0.00253   2.08460
   A23        2.09165  -0.00128   0.00000  -0.00888  -0.00887   2.08278
   A24        2.10946   0.00134   0.00000   0.00634   0.00635   2.11581
   A25        2.09605   0.00242   0.00000   0.00665   0.00663   2.10268
   A26        2.09963  -0.00323   0.00000  -0.01510  -0.01509   2.08455
   A27        2.08750   0.00081   0.00000   0.00844   0.00845   2.09596
   A28        2.09293   0.00422   0.00000   0.01464   0.01465   2.10758
   A29        2.10323  -0.00405   0.00000  -0.01860  -0.01861   2.08462
   A30        2.08703  -0.00017   0.00000   0.00396   0.00396   2.09099
   A31        2.11193  -0.00206   0.00000  -0.00420  -0.00419   2.10773
   A32        2.05400  -0.00528   0.00000  -0.02203  -0.02203   2.03198
   A33        2.11726   0.00735   0.00000   0.02622   0.02622   2.14348
   A34        2.08368  -0.00035   0.00000  -0.00108  -0.00110   2.08258
   A35        2.08216   0.00141   0.00000   0.00772   0.00773   2.08989
   A36        2.11734  -0.00106   0.00000  -0.00664  -0.00663   2.11071
   A37        2.09041  -0.00292   0.00000  -0.01151  -0.01150   2.07891
   A38        2.09768   0.00206   0.00000   0.00923   0.00922   2.10690
   A39        2.09510   0.00086   0.00000   0.00228   0.00228   2.09738
   A40        2.11037  -0.00181   0.00000  -0.00316  -0.00316   2.10722
   A41        2.11886   0.00607   0.00000   0.02132   0.02132   2.14019
   A42        2.05395  -0.00426   0.00000  -0.01817  -0.01817   2.03578
   A43        1.90732  -0.00341   0.00000  -0.01983  -0.01983   1.88749
   A44        1.90557  -0.00272   0.00000  -0.01582  -0.01582   1.88975
    D1        0.00002   0.00000   0.00000   0.00002   0.00002   0.00003
    D2       -3.14156  -0.00000   0.00000   0.00000   0.00000  -3.14156
    D3       -3.14156  -0.00000   0.00000  -0.00001  -0.00001  -3.14157
    D4        0.00005  -0.00000   0.00000  -0.00003  -0.00003   0.00002
    D5       -0.00000  -0.00000   0.00000  -0.00002  -0.00002  -0.00002
    D6        3.14157  -0.00000   0.00000  -0.00001  -0.00001   3.14156
    D7        3.14158  -0.00000   0.00000   0.00000   0.00000   3.14158
    D8       -0.00004   0.00000   0.00000   0.00002   0.00002  -0.00001
    D9       -0.00001   0.00000   0.00000  -0.00000  -0.00000  -0.00001
   D10       -3.14159  -0.00000   0.00000  -0.00001  -0.00001   3.14159
   D11        3.14157   0.00000   0.00000   0.00002   0.00002   3.14158
   D12       -0.00002   0.00000   0.00000   0.00001   0.00001  -0.00001
   D13        3.14159   0.00000   0.00000   0.00001   0.00001  -3.14159
   D14       -0.00002   0.00000   0.00000   0.00002   0.00002  -0.00000
   D15        0.00001  -0.00000   0.00000  -0.00001  -0.00001   0.00000
   D16        3.14159   0.00000   0.00000  -0.00000  -0.00000   3.14159
   D17       -0.00002   0.00000   0.00000   0.00001   0.00001  -0.00001
   D18        3.14158   0.00000   0.00000   0.00001   0.00001   3.14159
   D19       -3.14159  -0.00000   0.00000  -0.00001  -0.00001   3.14159
   D20        0.00001  -0.00000   0.00000  -0.00001  -0.00001  -0.00000
   D21       -3.14158  -0.00000   0.00000  -0.00001  -0.00001  -3.14159
   D22        0.00002  -0.00000   0.00000  -0.00001  -0.00001   0.00001
   D23       -0.00001   0.00000   0.00000   0.00001   0.00001   0.00000
   D24        3.14159   0.00000   0.00000   0.00001   0.00001  -3.14159
   D25       -3.14156  -0.00000   0.00000  -0.00001  -0.00001  -3.14157
   D26        0.00003  -0.00000   0.00000  -0.00001  -0.00001   0.00002
   D27        0.00003   0.00000   0.00000   0.00000   0.00000   0.00003
   D28       -3.14157   0.00000   0.00000   0.00001   0.00001  -3.14156
   D29       -0.00001  -0.00000   0.00000  -0.00001  -0.00001  -0.00002
   D30        3.14157  -0.00000   0.00000  -0.00000  -0.00000   3.14156
   D31        3.14158  -0.00000   0.00000   0.00000   0.00000   3.14158
   D32       -0.00003   0.00000   0.00000   0.00001   0.00001  -0.00002
   D33       -0.00001   0.00000   0.00000   0.00000   0.00000  -0.00000
   D34        3.14159   0.00000   0.00000   0.00000   0.00000   3.14159
   D35       -3.14159   0.00000   0.00000   0.00000   0.00000  -3.14159
   D36        0.00000  -0.00000   0.00000  -0.00000  -0.00000   0.00000
   D37        0.00001  -0.00000   0.00000  -0.00000  -0.00000   0.00001
   D38        3.14159   0.00000   0.00000   0.00001   0.00001  -3.14159
   D39       -3.14157  -0.00000   0.00000  -0.00001  -0.00001  -3.14158
   D40        0.00001  -0.00000   0.00000  -0.00000  -0.00000   0.00001
   D41       -0.00001   0.00000   0.00000   0.00001   0.00001   0.00000
   D42        3.14159   0.00000   0.00000   0.00000   0.00000   3.14159
   D43       -3.14158  -0.00000   0.00000  -0.00000  -0.00000  -3.14159
   D44        0.00001  -0.00000   0.00000  -0.00001  -0.00001   0.00001
   D45        0.00000  -0.00000   0.00000  -0.00000  -0.00000   0.00000
   D46       -3.14159  -0.00000   0.00000  -0.00000  -0.00000  -3.14159
   D47       -3.14159   0.00000   0.00000   0.00000   0.00000  -3.14159
   D48        0.00000  -0.00000   0.00000  -0.00000  -0.00000   0.00000
   D49        0.00000  -0.00000   0.00000  -0.00000  -0.00000  -0.00000
   D50        3.14159   0.00000   0.00000   0.00001   0.00001   3.14159
   D51       -3.14158  -0.00000   0.00000  -0.00001  -0.00001  -3.14159
   D52        0.00000  -0.00000   0.00000  -0.00000  -0.00000   0.00000
   D53        0.00001  -0.00000   0.00000  -0.00001  -0.00001   0.00000
   D54       -3.14159  -0.00000   0.00000  -0.00000  -0.00000  -3.14159
   D55       -3.14159  -0.00000   0.00000  -0.00000  -0.00000  -3.14159
   D56        0.00000  -0.00000   0.00000  -0.00000  -0.00000   0.00000
   D57       -0.00000   0.00000   0.00000   0.00000   0.00000  -0.00000
   D58       -3.14159  -0.00000   0.00000  -0.00001  -0.00001   3.14159
   D59        3.14159   0.00000   0.00000   0.00000   0.00000   3.14159
   D60        0.00000  -0.00000   0.00000  -0.00000  -0.00000  -0.00000
   D61        3.14158   0.00000   0.00000   0.00000   0.00000   3.14158
   D62       -0.00001   0.00000   0.00000   0.00000   0.00000  -0.00001
   D63       -0.00001   0.00000   0.00000   0.00000   0.00000  -0.00000
   D64        3.14159   0.00000   0.00000   0.00001   0.00001   3.14159
   D65        3.14159  -0.00000   0.00000  -0.00000  -0.00000   3.14159
   D66       -0.00001   0.00000   0.00000   0.00000   0.00000  -0.00000
   D67        0.00002  -0.00000   0.00000  -0.00000  -0.00000   0.00002
   D68       -3.14157  -0.00000   0.00000  -0.00001  -0.00001  -3.14158
         Item               Value     Threshold  Converged?
 Maximum Force            0.035514     0.000450     NO 
 RMS     Force            0.006584     0.000300     NO 
 Maximum Displacement     0.117842     0.001800     NO 
 RMS     Displacement     0.023801     0.001200     NO 
 Predicted change in Energy=-6.042660D-03
 GradGradGradGradGradGradGradGradGradGradGradGradGradGradGradGradGradGrad

                          Input orientation:                          
 ---------------------------------------------------------------------
 Center     Atomic      Atomic             Coordinates (Angstroms)
 Number     Number       Type             X           Y           Z
 ---------------------------------------------------------------------
      1          6           0        0.005077    1.471817    0.000279
      2          6           0        1.270629    0.694443    0.000155
      3          6           0       -1.259475    0.703290    0.000106
      4          8           0        0.008536    2.716471    0.000534
      5          6           0        0.002203   -1.484798   -0.000363
      6          6           0       -1.262671   -0.705769   -0.000194
      7          8           0       -0.003202   -2.730389   -0.000655
      8          6           0        1.266264   -0.717353   -0.000158
      9          6           0        2.479490    1.393571    0.000357
     10          6           0       -2.474496   -1.401691   -0.000343
     11          6           0        2.477262   -1.421919   -0.000275
     12          6           0       -2.474194    1.407184    0.000253
     13          6           0        3.691849    0.672200    0.000240
     14          6           0        3.692121   -0.739220   -0.000078
     15          6           0       -3.690035    0.728966    0.000108
     16          6           0       -3.689029   -0.680734   -0.000189
     17          1           0        2.485857    2.496904    0.000599
     18          1           0       -2.464237   -2.503998   -0.000580
     19          1           0        2.462726   -2.524407   -0.000523
     20          1           0       -2.461662    2.509690    0.000486
     21          1           0        4.636122   -1.304730   -0.000172
     22          1           0       -4.642518    1.281766    0.000221
     23          8           0        4.849490    1.418910    0.000450
     24          1           0        5.602866    0.808149    0.000352
     25          8           0       -4.919945   -1.299352   -0.000321
     26          1           0       -4.778067   -2.259202   -0.000508
 ---------------------------------------------------------------------
                    Distance matrix (angstroms):
                    1          2          3          4          5
     1  C    0.000000
     2  C    1.485238   0.000000
     3  C    1.479772   2.530120   0.000000
     4  O    1.244659   2.383584   2.379233   0.000000
     5  C    2.956617   2.521506   2.525780   4.201274   0.000000
     6  C    2.519735   2.894513   1.409062   3.650711   1.485528
     7  O    4.202215   3.654056   3.656279   5.446873   1.245603
     8  C    2.526472   1.411803   2.897859   3.656915   1.478790
     9  C    2.475650   1.396469   3.802150   2.802797   3.797625
    10  C    3.795436   4.291823   2.430478   4.808816   2.478094
    11  C    3.805970   2.436176   4.298805   4.818805   2.475857
    12  C    2.480113   3.812046   1.403926   2.806810   3.807375
    13  C    3.772490   2.421323   4.951422   4.212581   4.273889
    14  C    4.299183   2.814074   5.157435   5.050801   3.764489
    15  C    3.769043   4.960784   2.430696   4.198763   4.305041
    16  C    4.275500   5.146778   2.796114   5.021254   3.777793
    17  H    2.684227   2.173855   4.152657   2.487032   4.692812
    18  H    4.680237   4.917240   3.426098   5.776496   2.668726
    19  H    4.691465   3.432505   4.926745   5.787042   2.671135
    20  H    2.676188   4.150316   2.169870   2.478838   4.693247
    21  H    5.399610   3.914490   6.228179   6.130628   4.637416
    22  H    4.651479   5.942243   3.432144   4.867308   5.406229
    23  O    4.844702   3.651452   6.150738   5.011836   5.650461
    24  H    5.636993   4.333729   6.863142   5.910856   6.051861
    25  O    5.651126   6.503724   4.172483   6.357418   4.925641
    26  H    6.066216   6.731326   4.599658   6.904267   4.842591
                    6          7          8          9         10
     6  C    0.000000
     7  O    2.384398   0.000000
     8  C    2.528962   2.379886   0.000000
     9  C    4.290804   4.813607   2.434732   0.000000
    10  C    1.397436   2.805839   3.802842   5.688187   0.000000
    11  C    3.807883   2.804425   1.401045   2.815491   4.951800
    12  C    2.435643   4.819265   4.301707   4.953702   2.808875
    13  C    5.142575   5.023049   2.795411   1.410742   6.505755
    14  C    4.954905   4.197638   2.425955   2.453421   6.202099
    15  C    2.819674   5.055678   5.163017   6.205219   2.453006
    16  C    2.426487   4.217394   4.955429   6.507947   1.412398
    17  H    4.930373   5.789647   3.437856   1.103351   6.309053
    18  H    2.162727   2.471425   4.136271   6.295354   1.102355
    19  H    4.145604   2.474516   2.167248   3.918014   5.063266
    20  H    3.431728   5.788131   4.930644   5.065639   3.911403
    21  H    5.929124   4.853435   3.420665   3.454257   7.111279
    22  H    3.920926   6.133567   6.237803   7.122885   3.449821
    23  O    6.470918   6.384772   4.171706   2.370136   7.848349
    24  H    7.030472   6.629423   4.597093   3.177766   8.374197
    25  O    3.705131   5.120765   6.213526   7.874228   2.447589
    26  H    3.843327   4.798057   6.237887   8.124955   2.458000
                   11         12         13         14         15
    11  C    0.000000
    12  C    5.702696   0.000000
    13  C    2.420858   6.209693   0.000000
    14  C    1.393542   6.529202   1.411420   0.000000
    15  C    6.531605   1.392210   7.382103   7.526739   0.000000
    16  C    6.210677   2.415621   7.503852   7.381382   1.409701
    17  H    3.918832   5.078345   2.187227   3.453631   6.423959
    18  H    5.058588   3.911195   6.927166   6.404309   3.457549
    19  H    1.102584   6.311148   3.424768   2.167557   6.959951
    20  H    6.312727   1.102578   6.421999   6.958768   2.163303
    21  H    2.162038   7.609932   2.190868   1.100427   8.570928
    22  H    7.615851   2.171949   8.356629   8.576164   1.101277
    23  O    3.701050   7.323693   1.377573   2.448883   8.567352
    24  H    3.839609   8.099242   1.915846   2.458718   9.293238
    25  O    7.398223   3.647881   8.834592   8.630262   2.372078
    26  H    7.303482   4.330152   8.962846   8.605488   3.180089
                   16         17         18         19         20
    16  C    0.000000
    17  H    6.944538   0.000000
    18  H    2.196454   7.036508   0.000000
    19  H    6.422089   5.021364   4.927005   0.000000
    20  H    3.418368   4.947535   5.013690   7.042140   0.000000
    21  H    8.348503   4.367615   7.200926   2.492240   8.057812
    22  H    2.181868   7.231203   4.367714   8.060487   2.502785
    23  O    8.792885   2.597852   8.299386   4.609381   7.392073
    24  H    9.410424   3.545086   8.720577   4.578909   8.242078
    25  O    1.377622   8.322107   2.735266   7.483622   4.533427
    26  H    1.917698   8.682462   2.326744   7.245649   5.301705
                   21         22         23         24         25
    21  H    0.000000
    22  H    9.632399   0.000000
    23  O    2.731985   9.492999   0.000000
    24  H    2.323543  10.256325   0.969847   0.000000
    25  O    9.556069   2.595984  10.140553  10.731780   0.000000
    26  H    9.462450   3.543562  10.306230  10.824620   0.970280
                   26
    26  H    0.000000
 Stoichiometry    C14H8O4
 Framework group  C1[X(C14H8O4)]
 Deg. of freedom    72
 Full point group                 C1      NOp   1
 Largest Abelian subgroup         C1      NOp   1
 Largest concise Abelian subgroup C1      NOp   1
                         Standard orientation:                         
 ---------------------------------------------------------------------
 Center     Atomic      Atomic             Coordinates (Angstroms)
 Number     Number       Type             X           Y           Z
 ---------------------------------------------------------------------
      1          6           0        0.208971    1.466119   -0.000038
      2          6           0        1.352681    0.518563   -0.000016
      3          6           0       -1.151057    0.882983   -0.000020
      4          8           0        0.387359    2.697928   -0.000055
      5          6           0       -0.209489   -1.460735   -0.000036
      6          6           0       -1.352295   -0.511636   -0.000013
      7          8           0       -0.389935   -2.693198   -0.000056
      8          6           0        1.149901   -0.878601   -0.000021
      9          6           0        2.647815    1.040818    0.000011
     10          6           0       -2.649914   -1.030300    0.000011
     11          6           0        2.249833   -1.746402   -0.000007
     12          6           0       -2.254767    1.750642   -0.000005
     13          6           0        3.746733    0.156187    0.000029
     14          6           0        3.548596   -1.241257    0.000019
     15          6           0       -3.553874    1.250071    0.000020
     16          6           0       -3.751041   -0.145773    0.000030
     17          1           0        2.809216    2.132300    0.000013
     18          1           0       -2.794709   -2.123104    0.000014
     19          1           0        2.080463   -2.835900   -0.000014
     20          1           0       -2.087379    2.840439   -0.000013
     21          1           0        4.403729   -1.933851    0.000031
     22          1           0       -4.419191    1.931273    0.000030
     23          8           0        4.997845    0.732751    0.000056
     24          1           0        5.657884    0.022152    0.000077
     25          8           0       -5.056695   -0.585217    0.000055
     26          1           0       -5.051153   -1.555481    0.000075
 ---------------------------------------------------------------------
 Rotational constants (GHZ):      1.0208446      0.2602337      0.2073707
 Standard basis: VSTO-6G (5D, 7F)
 There are    80 symmetry adapted cartesian basis functions of A   symmetry.
 There are    80 symmetry adapted basis functions of A   symmetry.
    80 basis functions,   480 primitive gaussians,    80 cartesian basis functions
    44 alpha electrons       44 beta electrons
       nuclear repulsion energy       656.8161432354 Hartrees.
 Integral buffers will be    131072 words long.
 Regular integral format.
 Two-electron integral symmetry is turned off.
 Do NDO integrals.
 One-electron integrals computed using PRISM.
 NBasis=    80 RedAO= F EigKep=  0.00D+00  NBF=    80
 NBsUse=    80 1.00D-04 EigRej=  0.00D+00 NBFU=    80
 Initial guess from the checkpoint file:  "anthracene-2-6-opt.chk"
 B after Tr=     0.000000   -0.000000    0.000000
         Rot=    1.000000    0.000000    0.000000    0.000408 Ang=   0.05 deg.
 Overlap will be assumed to be unity.
 Keep J ints in memory in canonical form, NReq=933890.
 Requested convergence on RMS density matrix=1.00D-08 within 128 cycles.
 Requested convergence on MAX density matrix=1.00D-06.
 Requested convergence on             energy=1.00D-06.
 No special actions if energy rises.
 SCF Done:  E(RAM1) = -0.150135585100     A.U. after   14 cycles
            NFock= 13  Conv=0.32D-08     -V/T= 0.9976
 Calling FoFJK, ICntrl=      2127 FMM=F ISym2X=0 I1Cent= 0 IOpClX= 0 NMat=1 NMatS=1 NMatT=0.
 ***** Axes restored to original set *****
 -------------------------------------------------------------------
 Center     Atomic                   Forces (Hartrees/Bohr)
 Number     Number              X              Y              Z
 -------------------------------------------------------------------
      1        6          -0.001496215    0.005520260    0.000002524
      2        6          -0.000206065   -0.003054550   -0.000000943
      3        6           0.003506090   -0.001196975   -0.000000239
      4        8           0.000505310   -0.011962524   -0.000002989
      5        6           0.000400312   -0.005606404   -0.000000457
      6        6           0.000563715    0.002453115   -0.000000148
      7        8          -0.000679329    0.012623978    0.000002629
      8        6          -0.004294926    0.002475463    0.000000271
      9        6           0.002260511   -0.004455908   -0.000001512
     10        6          -0.006513081    0.006532699    0.000001477
     11        6           0.001220944    0.005881732    0.000001499
     12        6          -0.000299413   -0.005914207   -0.000001428
     13        6           0.000500740   -0.006307121   -0.000001283
     14        6          -0.000891736    0.009197185    0.000002043
     15        6           0.001011528   -0.005101615   -0.000001091
     16        6           0.003580594   -0.000726112   -0.000000261
     17        1           0.000528460   -0.001047897   -0.000000028
     18        1          -0.000897044    0.000779970    0.000000212
     19        1          -0.000573173   -0.000308623   -0.000000102
     20        1           0.000949404    0.000465006    0.000000127
     21        1          -0.000145620    0.001876355    0.000000413
     22        1           0.000579913   -0.001756032   -0.000000276
     23        8          -0.005730293   -0.004234741   -0.000001112
     24        1          -0.000963764    0.000173765   -0.000000079
     25        8           0.006540032    0.002568568    0.000000648
     26        1           0.000543105    0.001124611    0.000000106
 -------------------------------------------------------------------
 Cartesian Forces:  Max     0.012623978 RMS     0.003363592

 GradGradGradGradGradGradGradGradGradGradGradGradGradGradGradGradGradGrad
 Berny optimization.
 Using GEDIIS/GDIIS optimizer.
 FormGI is forming the generalized inverse of G from B-inverse, IUseBI=4.
 Internal  Forces:  Max     0.013569603 RMS     0.002973821
 Search for a local minimum.
 Step number   2 out of a maximum of  150
 All quantities printed in internal units (Hartrees-Bohrs-Radians)
 Mixed Optimization -- RFO/linear search
 Update second derivatives using D2CorX and points    1    2
 DE= -3.89D-03 DEPred=-6.04D-03 R= 6.44D-01
 TightC=F SS=  1.41D+00  RLast= 1.68D-01 DXNew= 5.0454D-01 5.0313D-01
 Trust test= 6.44D-01 RLast= 1.68D-01 DXMaxT set to 5.03D-01
 ITU=  1  0
 Use linear search instead of GDIIS.
     Eigenvalues ---    0.01072   0.01077   0.01082   0.01572   0.01645
     Eigenvalues ---    0.01776   0.01812   0.01895   0.01927   0.02098
     Eigenvalues ---    0.02111   0.02115   0.02117   0.02136   0.02146
     Eigenvalues ---    0.02168   0.02176   0.02182   0.02187   0.02188
     Eigenvalues ---    0.02189   0.02201   0.02208   0.15631   0.16000
     Eigenvalues ---    0.16000   0.16000   0.16000   0.16000   0.16000
     Eigenvalues ---    0.16050   0.22092   0.22472   0.23481   0.23528
     Eigenvalues ---    0.24162   0.24634   0.24685   0.25000   0.25000
     Eigenvalues ---    0.25000   0.25000   0.25000   0.25054   0.33334
     Eigenvalues ---    0.33679   0.33928   0.34951   0.34970   0.35009
     Eigenvalues ---    0.35088   0.35149   0.35234   0.36025   0.40286
     Eigenvalues ---    0.41866   0.41936   0.42358   0.45105   0.45240
     Eigenvalues ---    0.45921   0.45994   0.46360   0.46851   0.47009
     Eigenvalues ---    0.50991   0.52455   0.52880   0.53021   0.62509
     Eigenvalues ---    0.93055   1.05876
 RFO step:  Lambda=-7.12256745D-04 EMin= 1.07154106D-02
 Quartic linear search produced a step of -0.24976.
 Iteration  1 RMS(Cart)=  0.01006403 RMS(Int)=  0.00001077
 Iteration  2 RMS(Cart)=  0.00001330 RMS(Int)=  0.00000170
 Iteration  3 RMS(Cart)=  0.00000000 RMS(Int)=  0.00000170
 Variable       Old X    -DE/DX   Delta X   Delta X   Delta X     New X
                                 (Linear)    (Quad)   (Total)
    R1        2.80669  -0.00507  -0.00403  -0.00593  -0.00996   2.79673
    R2        2.79636  -0.00583  -0.00126  -0.01094  -0.01220   2.78417
    R3        2.35206  -0.01196  -0.00925   0.00177  -0.00747   2.34459
    R4        2.66792  -0.00866  -0.00810  -0.00372  -0.01182   2.65610
    R5        2.63894  -0.00356   0.00147  -0.00765  -0.00618   2.63276
    R6        2.66274  -0.00788  -0.00659  -0.00441  -0.01100   2.65174
    R7        2.65303  -0.00413  -0.00151  -0.00454  -0.00605   2.64699
    R8        2.80724  -0.00601  -0.00456  -0.00732  -0.01188   2.79536
    R9        2.35385  -0.01262  -0.00943   0.00144  -0.00799   2.34586
   R10        2.79451  -0.00535  -0.00112  -0.01012  -0.01124   2.78327
   R11        2.64077  -0.00316   0.00202  -0.00788  -0.00586   2.63492
   R12        2.64759  -0.00242   0.00045  -0.00422  -0.00376   2.64383
   R13        2.66592  -0.00642  -0.00921   0.00072  -0.00849   2.65743
   R14        2.08503  -0.00104  -0.00721   0.00654  -0.00067   2.08436
   R15        2.66905  -0.01171  -0.01018  -0.00656  -0.01673   2.65231
   R16        2.08315  -0.00079  -0.00728   0.00718  -0.00010   2.08305
   R17        2.63341  -0.00267   0.00137  -0.00598  -0.00461   2.62880
   R18        2.08358   0.00032  -0.00646   0.00854   0.00208   2.08566
   R19        2.63090  -0.00273   0.00167  -0.00628  -0.00461   2.62628
   R20        2.08357   0.00048  -0.00657   0.00901   0.00244   2.08601
   R21        2.66720  -0.01357  -0.00936  -0.01047  -0.01983   2.64737
   R22        2.60324  -0.00783  -0.00716  -0.00241  -0.00956   2.59367
   R23        2.07951  -0.00109  -0.00673   0.00587  -0.00085   2.07865
   R24        2.66395  -0.00876  -0.00891  -0.00324  -0.01215   2.65180
   R25        2.08111  -0.00138  -0.00660   0.00508  -0.00152   2.07960
   R26        2.60333  -0.00799  -0.00714  -0.00266  -0.00980   2.59353
   R27        1.83275  -0.00086   0.00086  -0.00226  -0.00140   1.83134
   R28        1.83356  -0.00103   0.00094  -0.00262  -0.00168   1.83189
    A1        2.04466   0.00008   0.00870  -0.00991  -0.00121   2.04345
    A2        2.11885  -0.00067  -0.00374   0.00233  -0.00142   2.11744
    A3        2.11967   0.00059  -0.00495   0.00758   0.00262   2.12230
    A4        2.11854  -0.00055  -0.00433   0.00358  -0.00075   2.11780
    A5        2.06642   0.00083   0.00568  -0.00480   0.00089   2.06730
    A6        2.09823  -0.00028  -0.00135   0.00122  -0.00014   2.09809
    A7        2.11916   0.00049  -0.00420   0.00622   0.00202   2.12118
    A8        2.07031   0.00137   0.00465  -0.00231   0.00234   2.07265
    A9        2.09372  -0.00186  -0.00044  -0.00392  -0.00436   2.08935
   A10        2.11848  -0.00106  -0.00467   0.00235  -0.00232   2.11617
   A11        2.04393   0.00040   0.00925  -0.00976  -0.00052   2.04341
   A12        2.12078   0.00066  -0.00457   0.00741   0.00283   2.12361
   A13        2.12055  -0.00074  -0.00501   0.00400  -0.00101   2.11954
   A14        2.09435   0.00046   0.00107   0.00009   0.00117   2.09552
   A15        2.06828   0.00029   0.00394  -0.00409  -0.00015   2.06813
   A16        2.11953   0.00032  -0.00440   0.00587   0.00146   2.12099
   A17        2.09464  -0.00197  -0.00006  -0.00472  -0.00478   2.08986
   A18        2.06902   0.00166   0.00446  -0.00115   0.00332   2.07233
   A19        2.08051   0.00069   0.00175  -0.00052   0.00123   2.08174
   A20        2.10091   0.00021   0.00135   0.00022   0.00157   2.10248
   A21        2.10177  -0.00090  -0.00310   0.00030  -0.00280   2.09897
   A22        2.08460   0.00062  -0.00063   0.00163   0.00101   2.08560
   A23        2.08278   0.00061   0.00222   0.00125   0.00347   2.08624
   A24        2.11581  -0.00124  -0.00159  -0.00288  -0.00447   2.11134
   A25        2.10268   0.00098  -0.00166   0.00606   0.00440   2.10708
   A26        2.08455  -0.00108   0.00377  -0.00929  -0.00552   2.07903
   A27        2.09596   0.00010  -0.00211   0.00323   0.00112   2.09707
   A28        2.10758   0.00021  -0.00366   0.00644   0.00277   2.11035
   A29        2.08462  -0.00109   0.00465  -0.01116  -0.00650   2.07811
   A30        2.09099   0.00088  -0.00099   0.00472   0.00373   2.09472
   A31        2.10773   0.00133   0.00105   0.00149   0.00254   2.11027
   A32        2.03198  -0.00051   0.00550  -0.00756  -0.00206   2.02991
   A33        2.14348  -0.00082  -0.00655   0.00607  -0.00048   2.14300
   A34        2.08258  -0.00074   0.00027  -0.00352  -0.00325   2.07934
   A35        2.08989   0.00197  -0.00193   0.01134   0.00941   2.09930
   A36        2.11071  -0.00122   0.00166  -0.00782  -0.00616   2.10455
   A37        2.07891  -0.00073   0.00287  -0.00601  -0.00315   2.07576
   A38        2.10690   0.00164  -0.00230   0.01000   0.00770   2.11460
   A39        2.09738  -0.00091  -0.00057  -0.00398  -0.00455   2.09283
   A40        2.10722   0.00131   0.00079   0.00177   0.00256   2.10978
   A41        2.14019  -0.00114  -0.00533   0.00360  -0.00172   2.13846
   A42        2.03578  -0.00016   0.00454  -0.00538  -0.00084   2.03494
   A43        1.88749  -0.00086   0.00495  -0.00992  -0.00497   1.88252
   A44        1.88975  -0.00129   0.00395  -0.01070  -0.00675   1.88300
    D1        0.00003  -0.00000  -0.00000  -0.00002  -0.00002   0.00001
    D2       -3.14156  -0.00000  -0.00000  -0.00002  -0.00002  -3.14158
    D3       -3.14157   0.00000   0.00000   0.00002   0.00002  -3.14155
    D4        0.00002   0.00000   0.00001   0.00001   0.00002   0.00004
    D5       -0.00002   0.00000   0.00001   0.00001   0.00002  -0.00001
    D6        3.14156   0.00000   0.00000   0.00002   0.00002   3.14158
    D7        3.14158  -0.00000  -0.00000  -0.00002  -0.00002   3.14156
    D8       -0.00001  -0.00000  -0.00001  -0.00002  -0.00002  -0.00004
    D9       -0.00001   0.00000   0.00000   0.00001   0.00001  -0.00000
   D10        3.14159   0.00000   0.00000   0.00000   0.00000   3.14159
   D11        3.14158   0.00000  -0.00000   0.00001   0.00001   3.14159
   D12       -0.00001   0.00000  -0.00000   0.00001   0.00000  -0.00000
   D13       -3.14159  -0.00000  -0.00000  -0.00000  -0.00000   3.14159
   D14       -0.00000   0.00000  -0.00000   0.00001   0.00000  -0.00000
   D15        0.00000  -0.00000   0.00000  -0.00001  -0.00000   0.00000
   D16        3.14159   0.00000   0.00000   0.00000   0.00000   3.14159
   D17       -0.00001   0.00000  -0.00000   0.00001   0.00000  -0.00001
   D18        3.14159   0.00000  -0.00000   0.00000   0.00000   3.14159
   D19        3.14159   0.00000   0.00000  -0.00000   0.00000   3.14159
   D20       -0.00000  -0.00000   0.00000  -0.00000  -0.00000  -0.00000
   D21       -3.14159  -0.00000   0.00000  -0.00000  -0.00000  -3.14159
   D22        0.00001  -0.00000   0.00000  -0.00000  -0.00000   0.00001
   D23        0.00000   0.00000  -0.00000   0.00000   0.00000   0.00000
   D24       -3.14159   0.00000  -0.00000   0.00000  -0.00000  -3.14159
   D25       -3.14157   0.00000   0.00000   0.00001   0.00001  -3.14156
   D26        0.00002   0.00000   0.00000   0.00001   0.00001   0.00003
   D27        0.00003  -0.00000  -0.00000  -0.00002  -0.00002   0.00002
   D28       -3.14156  -0.00000  -0.00000  -0.00001  -0.00002  -3.14158
   D29       -0.00002   0.00000   0.00000   0.00001   0.00001  -0.00001
   D30        3.14156   0.00000   0.00000   0.00001   0.00002   3.14158
   D31        3.14158  -0.00000  -0.00000  -0.00001  -0.00001   3.14156
   D32       -0.00002  -0.00000  -0.00000  -0.00001  -0.00001  -0.00003
   D33       -0.00000   0.00000  -0.00000   0.00000   0.00000  -0.00000
   D34        3.14159   0.00000  -0.00000   0.00000   0.00000   3.14159
[...]
    11  C    3.801478   2.805435   1.400285   2.800545   4.946401
    12  C    2.425741   4.799033   4.289103   4.947573   2.795777
    13  C    5.132414   5.012550   2.791705   1.407047   6.494859
    14  C    4.948817   4.197000   2.427909   2.442308   6.196292
    15  C    2.812517   5.036372   5.150236   6.196958   2.441599
    16  C    2.419539   4.198567   4.940444   6.494494   1.402905
    17  H    4.923174   5.776435   3.431148   1.102290   6.301087
    18  H    2.163610   2.468200   4.132283   6.287457   1.101952
    19  H    4.135504   2.472955   2.162514   3.904017   5.053967
    20  H    3.419996   5.766130   4.913312   5.053458   3.899483
    21  H    5.926301   4.860839   3.424820   3.439578   7.109969
    22  H    3.911989   6.110675   6.225327   7.118908   3.433437
    23  O    6.454429   6.370304   4.162686   2.360439   7.831271
    24  H    7.016780   6.619347   4.591372   3.168736   8.360158
    25  O    3.693122   5.096843   6.192920   7.855320   2.433986
    26  H    3.829872   4.772398   6.214823   8.102657   2.444483
                   11         12         13         14         15
    11  C    0.000000
    12  C    5.689363   0.000000
    13  C    2.408499   6.200301   0.000000
    14  C    1.391888   6.518422   1.401268   0.000000
    15  C    6.519010   1.389557   7.370913   7.515762   0.000000
    16  C    6.197151   2.406907   7.488232   7.368352   1.404916
    17  H    3.902797   5.077703   2.179755   3.438806   6.420834
    18  H    5.058760   3.897719   6.919678   6.403478   3.443679
    19  H    1.103570   6.293998   3.414146   2.168089   6.943034
    20  H    6.293613   1.103816   6.406572   6.941410   2.165315
    21  H    2.166355   7.599637   2.176137   1.099418   8.561611
    22  H    7.603066   2.174463   8.348686   8.566297   1.099571
    23  O    3.686119   7.307838   1.372537   2.436714   8.549666
    24  H    3.828649   8.084681   1.911248   2.449615   9.277169
    25  O    7.379369   3.635619   8.813187   8.611659   2.363627
    26  H    7.282478   4.315985   8.938073   8.584332   3.170622
                   16         17         18         19         20
    16  C    0.000000
    17  H    6.935430   0.000000
    18  H    2.183886   7.030572   0.000000
    19  H    6.404115   5.006295   4.922919   0.000000
    20  H    3.413472   4.940509   5.001393   7.020784   0.000000
    21  H    8.338763   4.346784   7.206019   2.502764   8.039859
    22  H    2.171685   7.234019   4.346382   8.042172   2.515026
    23  O    8.770965   2.582078   8.286366   4.597346   7.369560
    24  H    9.390670   3.529484   8.710965   4.570991   8.220703
    25  O    1.372608   8.308014   2.715222   7.459937   4.526666
    26  H    1.911976   8.664841   2.304309   7.219436   5.292520
                   21         22         23         24         25
    21  H    0.000000
    22  H    9.623589   0.000000
    23  O    2.712640   9.479326   0.000000
    24  H    2.305099  10.243543   0.969129   0.000000
    25  O    9.541324   2.580349  10.113085  10.706372   0.000000
    26  H    9.445911   3.527306  10.275719  10.796227   0.969402
                   26
    26  H    0.000000
 Stoichiometry    C14H8O4
 Framework group  C1[X(C14H8O4)]
 Deg. of freedom    72
 Full point group                 C1      NOp   1
 Largest Abelian subgroup         C1      NOp   1
 Largest concise Abelian subgroup C1      NOp   1
                         Standard orientation:                         
 ---------------------------------------------------------------------
 Center     Atomic      Atomic             Coordinates (Angstroms)
 Number     Number       Type             X           Y           Z
 ---------------------------------------------------------------------
      1          6           0        0.209583    1.462551    0.000049
      2          6           0        1.349771    0.515734    0.000025
      3          6           0       -1.145737    0.881629    0.000025
      4          8           0        0.391358    2.688412   -0.000036
      5          6           0       -0.211550   -1.454822    0.000044
      6          6           0       -1.349969   -0.507087    0.000025
      7          8           0       -0.396159   -2.680977   -0.000031
      8          6           0        1.143850   -0.875685    0.000024
      9          6           0        2.644506    1.033159    0.000008
     10          6           0       -2.647884   -1.022693    0.000007
     11          6           0        2.246385   -1.738944    0.000003
     12          6           0       -2.251611    1.744858    0.000005
     13          6           0        3.740161    0.150368   -0.000009
     14          6           0        3.544694   -1.237200   -0.000012
     15          6           0       -3.548774    1.246625   -0.000011
     16          6           0       -3.742247   -0.144905   -0.000010
     17          1           0        2.812019    2.122647    0.000010
     18          1           0       -2.798429   -2.114313    0.000007
     19          1           0        2.072380   -2.828709    0.000001
     20          1           0       -2.076900    2.834761    0.000005
     21          1           0        4.405016   -1.921719   -0.000027
     22          1           0       -4.419122    1.918600   -0.000026
     23          8           0        4.985157    0.728160   -0.000025
     24          1           0        5.646971    0.020196   -0.000031
     25          8           0       -5.042261   -0.585376   -0.000028
     26          1           0       -5.033763   -1.554741   -0.000018
 ---------------------------------------------------------------------
 Rotational constants (GHZ):      1.0289895      0.2612933      0.2083792

 **********************************************************************

            Population analysis using the SCF density.

 **********************************************************************

 Orbital symmetries:
       Occupied  (A) (A) (A) (A) (A) (A) (A) (A) (A) (A) (A) (A)
                 (A) (A) (A) (A) (A) (A) (A) (A) (A) (A) (A) (A)
                 (A) (A) (A) (A) (A) (A) (A) (A) (A) (A) (A) (A)
                 (A) (A) (A) (A) (A) (A) (A) (A)
       Virtual   (A) (A) (A) (A) (A) (A) (A) (A) (A) (A) (A) (A)
                 (A) (A) (A) (A) (A) (A) (A) (A) (A) (A) (A) (A)
                 (A) (A) (A) (A) (A) (A) (A) (A) (A) (A) (A) (A)
 The electronic state is 1-A.
 Alpha  occ. eigenvalues --   -1.54122  -1.49345  -1.45723  -1.45076  -1.38744
 Alpha  occ. eigenvalues --   -1.36860  -1.22944  -1.17940  -1.17159  -1.12182
 Alpha  occ. eigenvalues --   -0.99089  -0.94435  -0.89330  -0.85906  -0.81326
 Alpha  occ. eigenvalues --   -0.77261  -0.72338  -0.70418  -0.67670  -0.64695
 Alpha  occ. eigenvalues --   -0.63152  -0.61798  -0.59908  -0.59788  -0.58474
 Alpha  occ. eigenvalues --   -0.57220  -0.56178  -0.55763  -0.55259  -0.54421
 Alpha  occ. eigenvalues --   -0.54400  -0.53877  -0.52160  -0.50465  -0.48115
 Alpha  occ. eigenvalues --   -0.47176  -0.46326  -0.46218  -0.41625  -0.40025
 Alpha  occ. eigenvalues --   -0.38209  -0.38064  -0.35621  -0.35325
 Alpha virt. eigenvalues --   -0.05289  -0.01710  -0.00879  -0.00244   0.04516
 Alpha virt. eigenvalues --    0.05076   0.08096   0.08466   0.08913   0.09613
 Alpha virt. eigenvalues --    0.10206   0.10442   0.12102   0.12216   0.12437
 Alpha virt. eigenvalues --    0.12782   0.13119   0.13389   0.13991   0.14378
 Alpha virt. eigenvalues --    0.15200   0.15723   0.16126   0.16642   0.16778
 Alpha virt. eigenvalues --    0.16996   0.17298   0.17377   0.18163   0.18361
 Alpha virt. eigenvalues --    0.19096   0.19371   0.21263   0.21353   0.22367
 Alpha virt. eigenvalues --    0.23137
          Condensed to atoms (all electrons):
               1          2          3          4          5          6
     1  C    3.692148   0.000000   0.000000   0.000000   0.000000   0.000000
     2  C    0.000000   4.068819   0.000000   0.000000   0.000000   0.000000
     3  C    0.000000   0.000000   4.147824   0.000000   0.000000   0.000000
     4  O    0.000000   0.000000   0.000000   6.283770   0.000000   0.000000
     5  C    0.000000   0.000000   0.000000   0.000000   3.690634   0.000000
     6  C    0.000000   0.000000   0.000000   0.000000   0.000000   4.062519
     7  O    0.000000   0.000000   0.000000   0.000000   0.000000   0.000000
     8  C    0.000000   0.000000   0.000000   0.000000   0.000000   0.000000
     9  C    0.000000   0.000000   0.000000   0.000000   0.000000   0.000000
    10  C    0.000000   0.000000   0.000000   0.000000   0.000000   0.000000
    11  C    0.000000   0.000000   0.000000   0.000000   0.000000   0.000000
    12  C    0.000000   0.000000   0.000000   0.000000   0.000000   0.000000
    13  C    0.000000   0.000000   0.000000   0.000000   0.000000   0.000000
    14  C    0.000000   0.000000   0.000000   0.000000   0.000000   0.000000
    15  C    0.000000   0.000000   0.000000   0.000000   0.000000   0.000000
    16  C    0.000000   0.000000   0.000000   0.000000   0.000000   0.000000
    17  H    0.000000   0.000000   0.000000   0.000000   0.000000   0.000000
    18  H    0.000000   0.000000   0.000000   0.000000   0.000000   0.000000
    19  H    0.000000   0.000000   0.000000   0.000000   0.000000   0.000000
    20  H    0.000000   0.000000   0.000000   0.000000   0.000000   0.000000
    21  H    0.000000   0.000000   0.000000   0.000000   0.000000   0.000000
    22  H    0.000000   0.000000   0.000000   0.000000   0.000000   0.000000
    23  O    0.000000   0.000000   0.000000   0.000000   0.000000   0.000000
    24  H    0.000000   0.000000   0.000000   0.000000   0.000000   0.000000
    25  O    0.000000   0.000000   0.000000   0.000000   0.000000   0.000000
    26  H    0.000000   0.000000   0.000000   0.000000   0.000000   0.000000
               7          8          9         10         11         12
     1  C    0.000000   0.000000   0.000000   0.000000   0.000000   0.000000
     2  C    0.000000   0.000000   0.000000   0.000000   0.000000   0.000000
     3  C    0.000000   0.000000   0.000000   0.000000   0.000000   0.000000
     4  O    0.000000   0.000000   0.000000   0.000000   0.000000   0.000000
     5  C    0.000000   0.000000   0.000000   0.000000   0.000000   0.000000
     6  C    0.000000   0.000000   0.000000   0.000000   0.000000   0.000000
     7  O    6.291894   0.000000   0.000000   0.000000   0.000000   0.000000
     8  C    0.000000   4.151209   0.000000   0.000000   0.000000   0.000000
     9  C    0.000000   0.000000   4.116308   0.000000   0.000000   0.000000
    10  C    0.000000   0.000000   0.000000   4.176985   0.000000   0.000000
    11  C    0.000000   0.000000   0.000000   0.000000   4.043197   0.000000
    12  C    0.000000   0.000000   0.000000   0.000000   0.000000   4.052241
    13  C    0.000000   0.000000   0.000000   0.000000   0.000000   0.000000
    14  C    0.000000   0.000000   0.000000   0.000000   0.000000   0.000000
    15  C    0.000000   0.000000   0.000000   0.000000   0.000000   0.000000
    16  C    0.000000   0.000000   0.000000   0.000000   0.000000   0.000000
    17  H    0.000000   0.000000   0.000000   0.000000   0.000000   0.000000
    18  H    0.000000   0.000000   0.000000   0.000000   0.000000   0.000000
    19  H    0.000000   0.000000   0.000000   0.000000   0.000000   0.000000
    20  H    0.000000   0.000000   0.000000   0.000000   0.000000   0.000000
    21  H    0.000000   0.000000   0.000000   0.000000   0.000000   0.000000
    22  H    0.000000   0.000000   0.000000   0.000000   0.000000   0.000000
    23  O    0.000000   0.000000   0.000000   0.000000   0.000000   0.000000
    24  H    0.000000   0.000000   0.000000   0.000000   0.000000   0.000000
    25  O    0.000000   0.000000   0.000000   0.000000   0.000000   0.000000
    26  H    0.000000   0.000000   0.000000   0.000000   0.000000   0.000000
              13         14         15         16         17         18
     1  C    0.000000   0.000000   0.000000   0.000000   0.000000   0.000000
     2  C    0.000000   0.000000   0.000000   0.000000   0.000000   0.000000
     3  C    0.000000   0.000000   0.000000   0.000000   0.000000   0.000000
     4  O    0.000000   0.000000   0.000000   0.000000   0.000000   0.000000
     5  C    0.000000   0.000000   0.000000   0.000000   0.000000   0.000000
     6  C    0.000000   0.000000   0.000000   0.000000   0.000000   0.000000
     7  O    0.000000   0.000000   0.000000   0.000000   0.000000   0.000000
     8  C    0.000000   0.000000   0.000000   0.000000   0.000000   0.000000
     9  C    0.000000   0.000000   0.000000   0.000000   0.000000   0.000000
    10  C    0.000000   0.000000   0.000000   0.000000   0.000000   0.000000
    11  C    0.000000   0.000000   0.000000   0.000000   0.000000   0.000000
    12  C    0.000000   0.000000   0.000000   0.000000   0.000000   0.000000
    13  C    3.901294   0.000000   0.000000   0.000000   0.000000   0.000000
    14  C    0.000000   4.209040   0.000000   0.000000   0.000000   0.000000
    15  C    0.000000   0.000000   4.149332   0.000000   0.000000   0.000000
    16  C    0.000000   0.000000   0.000000   3.902071   0.000000   0.000000
    17  H    0.000000   0.000000   0.000000   0.000000   0.821171   0.000000
    18  H    0.000000   0.000000   0.000000   0.000000   0.000000   0.837633
    19  H    0.000000   0.000000   0.000000   0.000000   0.000000   0.000000
    20  H    0.000000   0.000000   0.000000   0.000000   0.000000   0.000000
    21  H    0.000000   0.000000   0.000000   0.000000   0.000000   0.000000
    22  H    0.000000   0.000000   0.000000   0.000000   0.000000   0.000000
    23  O    0.000000   0.000000   0.000000   0.000000   0.000000   0.000000
    24  H    0.000000   0.000000   0.000000   0.000000   0.000000   0.000000
    25  O    0.000000   0.000000   0.000000   0.000000   0.000000   0.000000
    26  H    0.000000   0.000000   0.000000   0.000000   0.000000   0.000000
              19         20         21         22         23         24
     1  C    0.000000   0.000000   0.000000   0.000000   0.000000   0.000000
     2  C    0.000000   0.000000   0.000000   0.000000   0.000000   0.000000
     3  C    0.000000   0.000000   0.000000   0.000000   0.000000   0.000000
     4  O    0.000000   0.000000   0.000000   0.000000   0.000000   0.000000
     5  C    0.000000   0.000000   0.000000   0.000000   0.000000   0.000000
     6  C    0.000000   0.000000   0.000000   0.000000   0.000000   0.000000
     7  O    0.000000   0.000000   0.000000   0.000000   0.000000   0.000000
     8  C    0.000000   0.000000   0.000000   0.000000   0.000000   0.000000
     9  C    0.000000   0.000000   0.000000   0.000000   0.000000   0.000000
    10  C    0.000000   0.000000   0.000000   0.000000   0.000000   0.000000
    11  C    0.000000   0.000000   0.000000   0.000000   0.000000   0.000000
    12  C    0.000000   0.000000   0.000000   0.000000   0.000000   0.000000
    13  C    0.000000   0.000000   0.000000   0.000000   0.000000   0.000000
    14  C    0.000000   0.000000   0.000000   0.000000   0.000000   0.000000
    15  C    0.000000   0.000000   0.000000   0.000000   0.000000   0.000000
    16  C    0.000000   0.000000   0.000000   0.000000   0.000000   0.000000
    17  H    0.000000   0.000000   0.000000   0.000000   0.000000   0.000000
    18  H    0.000000   0.000000   0.000000   0.000000   0.000000   0.000000
    19  H    0.837947   0.000000   0.000000   0.000000   0.000000   0.000000
    20  H    0.000000   0.835854   0.000000   0.000000   0.000000   0.000000
    21  H    0.000000   0.000000   0.856354   0.000000   0.000000   0.000000
    22  H    0.000000   0.000000   0.000000   0.839570   0.000000   0.000000
    23  O    0.000000   0.000000   0.000000   0.000000   6.240098   0.000000
    24  H    0.000000   0.000000   0.000000   0.000000   0.000000   0.775542
    25  O    0.000000   0.000000   0.000000   0.000000   0.000000   0.000000
    26  H    0.000000   0.000000   0.000000   0.000000   0.000000   0.000000
              25         26
     1  C    0.000000   0.000000
     2  C    0.000000   0.000000
     3  C    0.000000   0.000000
     4  O    0.000000   0.000000
     5  C    0.000000   0.000000
     6  C    0.000000   0.000000
     7  O    0.000000   0.000000
     8  C    0.000000   0.000000
     9  C    0.000000   0.000000
    10  C    0.000000   0.000000
    11  C    0.000000   0.000000
    12  C    0.000000   0.000000
    13  C    0.000000   0.000000
    14  C    0.000000   0.000000
    15  C    0.000000   0.000000
    16  C    0.000000   0.000000
    17  H    0.000000   0.000000
    18  H    0.000000   0.000000
    19  H    0.000000   0.000000
    20  H    0.000000   0.000000
    21  H    0.000000   0.000000
    22  H    0.000000   0.000000
    23  O    0.000000   0.000000
    24  H    0.000000   0.000000
    25  O    6.243233   0.000000
    26  H    0.000000   0.773313
 Mulliken charges:
               1
     1  C    0.307852
     2  C   -0.068819
     3  C   -0.147824
     4  O   -0.283770
     5  C    0.309366
     6  C   -0.062519
     7  O   -0.291894
     8  C   -0.151209
     9  C   -0.116308
    10  C   -0.176985
    11  C   -0.043197
    12  C   -0.052241
    13  C    0.098706
    14  C   -0.209040
    15  C   -0.149332
    16  C    0.097929
    17  H    0.178829
    18  H    0.162367
    19  H    0.162053
    20  H    0.164146
    21  H    0.143646
    22  H    0.160430
    23  O   -0.240098
    24  H    0.224458
    25  O   -0.243233
    26  H    0.226687
 Sum of Mulliken charges =  -0.00000
 Mulliken charges with hydrogens summed into heavy atoms:
               1
     1  C    0.307852
     2  C   -0.068819
     3  C   -0.147824
     4  O   -0.283770
     5  C    0.309366
     6  C   -0.062519
     7  O   -0.291894
     8  C   -0.151209
     9  C    0.062521
    10  C   -0.014618
    11  C    0.118856
    12  C    0.111905
    13  C    0.098706
    14  C   -0.065394
    15  C    0.011098
    16  C    0.097929
    23  O   -0.015640
    25  O   -0.016545
 Charge=             -0.0000 electrons
 Dipole moment (field-independent basis, Debye):
    X=              0.9331    Y=             -2.0905    Z=              0.0002  Tot=              2.2893
 N-N= 6.580887167376D+02 E-N=-1.187366677046D+03  KE=-6.207007777271D+01
 1\1\GINC-GTX1080DELTA\FOpt\RAM1\ZDO\C14H8O4\MVEROT\11-Apr-2022\0\\#n A
 M1 Opt\\Geometry optimization\\0,1\C,0.0056438813,1.4683333222,0.00037
 04801\C,1.267726694,0.691391807,0.0002026458\C,-1.254438207,0.70246485
 29,0.0001566834\O,0.013100578,2.707575866,0.0005527272\C,-0.0007495842
 ,-1.479272531,-0.0002708379\C,-1.2612105232,-0.7011728197,-0.000146519
 6\O,-0.0109707169,-2.7192042621,-0.0006143913\C,1.2596632842,-0.715159
 3867,-0.0001028394\C,2.4767628431,1.3858692651,0.0003584908\C,-2.47365
 0868,-1.3942966142,-0.0003366345\C,2.4727085991,-1.4146729451,-0.00025
 09796\C,-2.4707855349,1.4014791685,0.0002651227\C,3.6857460325,0.66604
 93826,0.000208481\C,3.6874893996,-0.7352176605,-0.0000969208\C,-3.6849
 264041,0.7256602757,0.0000798183\C,-3.6806504333,-0.6792488138,-0.0002
 220543\H,2.4892901671,2.4880884133,0.0005982215\H,-2.4690788111,-2.496
 2392685,-0.0005746693\H,2.4537920888,-2.5180802817,-0.0004921131\H,-2.
 4511895264,2.5051216112,0.0005035806\H,4.6355797039,-1.2918549518,-0.0
 002140902\H,-4.6411769653,1.2684684156,0.0001645664\O,4.8370424604,1.4
 13293858,0.0003763745\H,5.5918988235,0.8055090276,0.0002529275\O,-4.90
 57423725,-1.2982815671,-0.0003969058\H,-4.7609146086,-2.2568041632,-0.
 0005911642\\Version=AM64L-G09RevD.01\State=1-A\HF=-0.1509344\RMSD=5.01
 1e-09\RMSF=8.935e-05\Dipole=0.4791826,-0.7626166,-0.0000686\PG=C01 [X(
 C14H8O4)]\\@


 TO ERR IS HUMAN - AND TO BLAME IT ON A COMPUTER IS EVEN MORE SO.
 Job cpu time:       0 days  0 hours  0 minutes  3.4 seconds.
 File lengths (MBytes):  RWF=    132 Int=      0 D2E=      0 Chk=      3 Scr=      2
 Normal termination of Gaussian 09 at Mon Apr 11 23:41:22 2022.
