 Entering Gaussian System, Link 0=g09
 Input=/scratch/mverot/2-butene-E-opt/2-butene-E-opt.com
 Output=/scratch/mverot/2-butene-E-opt/2-butene-E-opt.log
 Initial command:
 /opt/g09/l1.exe "/scratch/mverot/2-butene-E-opt/Gau-743731.inp" -scrdir="/scratch/mverot/2-butene-E-opt/"
 Entering Link 1 = /opt/g09/l1.exe PID=    743733.
  
 Copyright (c) 1988,1990,1992,1993,1995,1998,2003,2009,2013,
            Gaussian, Inc.  All Rights Reserved.
  
 This is part of the Gaussian(R) 09 program.  It is based on
 the Gaussian(R) 03 system (copyright 2003, Gaussian, Inc.),
 the Gaussian(R) 98 system (copyright 1998, Gaussian, Inc.),
 the Gaussian(R) 94 system (copyright 1995, Gaussian, Inc.),
 the Gaussian 92(TM) system (copyright 1992, Gaussian, Inc.),
 the Gaussian 90(TM) system (copyright 1990, Gaussian, Inc.),
 the Gaussian 88(TM) system (copyright 1988, Gaussian, Inc.),
 the Gaussian 86(TM) system (copyright 1986, Carnegie Mellon
 University), and the Gaussian 82(TM) system (copyright 1983,
 Carnegie Mellon University). Gaussian is a federally registered
 trademark of Gaussian, Inc.
  
 This software contains proprietary and confidential information,
 including trade secrets, belonging to Gaussian, Inc.
  
 This software is provided under written license and may be
 used, copied, transmitted, or stored only in accord with that
 written license.
  
 The following legend is applicable only to US Government
 contracts under FAR:
  
                    RESTRICTED RIGHTS LEGEND
  
 Use, reproduction and disclosure by the US Government is
 subject to restrictions as set forth in subparagraphs (a)
 and (c) of the Commercial Computer Software - Restricted
 Rights clause in FAR 52.227-19.
  
 Gaussian, Inc.
 340 Quinnipiac St., Bldg. 40, Wallingford CT 06492
  
  
 ---------------------------------------------------------------
 Warning -- This program may not be used in any manner that
 competes with the business of Gaussian, Inc. or will provide
 assistance to any competitor of Gaussian, Inc.  The licensee
 of this program is prohibited from giving any competitor of
 Gaussian, Inc. access to this program.  By using this program,
 the user acknowledges that Gaussian, Inc. is engaged in the
 business of creating and licensing software in the field of
 computational chemistry and represents and warrants to the
 licensee that it is not a competitor of Gaussian, Inc. and that
 it will not use this program in any manner prohibited above.
 ---------------------------------------------------------------
  

 Cite this work as:
 Gaussian 09, Revision D.01,
 M. J. Frisch, G. W. Trucks, H. B. Schlegel, G. E. Scuseria, 
 M. A. Robb, J. R. Cheeseman, G. Scalmani, V. Barone, B. Mennucci, 
 G. A. Petersson, H. Nakatsuji, M. Caricato, X. Li, H. P. Hratchian, 
 A. F. Izmaylov, J. Bloino, G. Zheng, J. L. Sonnenberg, M. Hada, 
 M. Ehara, K. Toyota, R. Fukuda, J. Hasegawa, M. Ishida, T. Nakajima, 
 Y. Honda, O. Kitao, H. Nakai, T. Vreven, J. A. Montgomery, Jr., 
 J. E. Peralta, F. Ogliaro, M. Bearpark, J. J. Heyd, E. Brothers, 
 K. N. Kudin, V. N. Staroverov, T. Keith, R. Kobayashi, J. Normand, 
 K. Raghavachari, A. Rendell, J. C. Burant, S. S. Iyengar, J. Tomasi, 
 M. Cossi, N. Rega, J. M. Millam, M. Klene, J. E. Knox, J. B. Cross, 
 V. Bakken, C. Adamo, J. Jaramillo, R. Gomperts, R. E. Stratmann, 
 O. Yazyev, A. J. Austin, R. Cammi, C. Pomelli, J. W. Ochterski, 
 R. L. Martin, K. Morokuma, V. G. Zakrzewski, G. A. Voth, 
 P. Salvador, J. J. Dannenberg, S. Dapprich, A. D. Daniels, 
 O. Farkas, J. B. Foresman, J. V. Ortiz, J. Cioslowski, 
 and D. J. Fox, Gaussian, Inc., Wallingford CT, 2013.
 
 ******************************************
 Gaussian 09:  AM64L-G09RevD.01 24-Apr-2013
                16-Apr-2022 
 ******************************************
 %chk=2-butene-E-opt
 ---------------
 #n AM1 Opt freq
 ---------------
 1/14=-1,18=20,19=15,26=1,38=1/1,3;
 2/9=110,12=2,17=6,18=5,40=1/2;
 3/5=2,16=1,25=1,41=700000,71=1/1,2,3;
 4/35=1/1;
 5/5=2,35=1,38=5/2;
 6/7=2,8=2,9=2,10=2,28=1/1;
 7//1,2,3,16;
 1/14=-1,18=20,19=15,26=1/3(2);
 2/9=110/2;
 99//99;
 2/9=110/2;
 3/5=2,16=1,25=1,41=700000,71=1,135=20/1,2,3;
 4/5=5,16=3,35=1/1;
 5/5=2,35=1,38=5/2;
 7//1,2,3,16;
 1/14=-1,18=20,19=15,26=1/3(-5);
 2/9=110/2;
 6/7=2,8=2,9=2,10=2,19=2,28=1/1;
 99/9=1/99;
 -------------------------
 Optimisation de geometrie
 -------------------------
 Symbolic Z-matrix:
 Charge =  0 Multiplicity = 1
 C                     1.9673    0.9273    0.8805 
 C                     2.9586    1.6585    1.3965 
 C                     4.4218    1.3366    1.2869 
 C                     0.504     1.2489    0.9905 
 H                     2.219     0.018     0.3305 
 H                     2.7069    2.5679    1.9464 
 H                     4.5892    0.4152    0.7185 
 H                     4.9736    2.146     0.7893 
 H                     4.8791    1.2104    2.278 
 H                     0.0457    1.3715   -0.0005 
 H                    -0.0469    0.4409    1.4914 
 H                     0.3368    2.1721    1.556 
 

 GradGradGradGradGradGradGradGradGradGradGradGradGradGradGradGradGradGrad
 Berny optimization.
 Initialization pass.
                           ----------------------------
                           !    Initial Parameters    !
                           ! (Angstroms and Degrees)  !
 --------------------------                            --------------------------
 ! Name  Definition              Value          Derivative Info.                !
 --------------------------------------------------------------------------------
 ! R1    R(1,2)                  1.3355         estimate D2E/DX2                !
 ! R2    R(1,4)                  1.5023         estimate D2E/DX2                !
 ! R3    R(1,5)                  1.0921         estimate D2E/DX2                !
 ! R4    R(2,3)                  1.5022         estimate D2E/DX2                !
 ! R5    R(2,6)                  1.0921         estimate D2E/DX2                !
 ! R6    R(3,7)                  1.0955         estimate D2E/DX2                !
 ! R7    R(3,8)                  1.0987         estimate D2E/DX2                !
 ! R8    R(3,9)                  1.0988         estimate D2E/DX2                !
 ! R9    R(4,10)                 1.0987         estimate D2E/DX2                !
 ! R10   R(4,11)                 1.0988         estimate D2E/DX2                !
 ! R11   R(4,12)                 1.0955         estimate D2E/DX2                !
 ! A1    A(2,1,4)              125.276          estimate D2E/DX2                !
 ! A2    A(2,1,5)              118.6445         estimate D2E/DX2                !
 ! A3    A(4,1,5)              116.0795         estimate D2E/DX2                !
 ! A4    A(1,2,3)              125.2737         estimate D2E/DX2                !
 ! A5    A(1,2,6)              118.6445         estimate D2E/DX2                !
 ! A6    A(3,2,6)              116.0818         estimate D2E/DX2                !
 ! A7    A(2,3,7)              111.5266         estimate D2E/DX2                !
 ! A8    A(2,3,8)              111.3684         estimate D2E/DX2                !
 ! A9    A(2,3,9)              111.3575         estimate D2E/DX2                !
 ! A10   A(7,3,8)              107.9313         estimate D2E/DX2                !
 ! A11   A(7,3,9)              107.9272         estimate D2E/DX2                !
 ! A12   A(8,3,9)              106.5047         estimate D2E/DX2                !
 ! A13   A(1,4,10)             111.3555         estimate D2E/DX2                !
 ! A14   A(1,4,11)             111.3668         estimate D2E/DX2                !
 ! A15   A(1,4,12)             111.5236         estimate D2E/DX2                !
 ! A16   A(10,4,11)            106.5055         estimate D2E/DX2                !
 ! A17   A(10,4,12)            107.9333         estimate D2E/DX2                !
 ! A18   A(11,4,12)            107.9314         estimate D2E/DX2                !
 ! D1    D(4,1,2,3)            179.9765         estimate D2E/DX2                !
 ! D2    D(4,1,2,6)             -0.0223         estimate D2E/DX2                !
 ! D3    D(5,1,2,3)             -0.0094         estimate D2E/DX2                !
 ! D4    D(5,1,2,6)            179.9918         estimate D2E/DX2                !
 ! D5    D(2,1,4,10)           120.5717         estimate D2E/DX2                !
 ! D6    D(2,1,4,11)          -120.7077         estimate D2E/DX2                !
 ! D7    D(2,1,4,12)            -0.0653         estimate D2E/DX2                !
 ! D8    D(5,1,4,10)           -59.442          estimate D2E/DX2                !
 ! D9    D(5,1,4,11)            59.2785         estimate D2E/DX2                !
 ! D10   D(5,1,4,12)           179.9209         estimate D2E/DX2                !
 ! D11   D(1,2,3,7)              0.2787         estimate D2E/DX2                !
 ! D12   D(1,2,3,8)            120.9242         estimate D2E/DX2                !
 ! D13   D(1,2,3,9)           -120.354          estimate D2E/DX2                !
 ! D14   D(6,2,3,7)           -179.7225         estimate D2E/DX2                !
 ! D15   D(6,2,3,8)            -59.077          estimate D2E/DX2                !
 ! D16   D(6,2,3,9)             59.6448         estimate D2E/DX2                !
 --------------------------------------------------------------------------------
 Trust Radius=3.00D-01 FncErr=1.00D-07 GrdErr=1.00D-07
 Number of steps in this run=     55 maximum allowed number of steps=    100.
 GradGradGradGradGradGradGradGradGradGradGradGradGradGradGradGradGradGrad

                          Input orientation:                          
 ---------------------------------------------------------------------
 Center     Atomic      Atomic             Coordinates (Angstroms)
 Number     Number       Type             X           Y           Z
 ---------------------------------------------------------------------
      1          6           0        1.967300    0.927300    0.880500
      2          6           0        2.958600    1.658500    1.396500
      3          6           0        4.421800    1.336600    1.286900
      4          6           0        0.504000    1.248900    0.990500
      5          1           0        2.219000    0.018000    0.330500
      6          1           0        2.706900    2.567900    1.946400
      7          1           0        4.589200    0.415200    0.718500
      8          1           0        4.973600    2.146000    0.789300
      9          1           0        4.879100    1.210400    2.278000
     10          1           0        0.045700    1.371500   -0.000500
     11          1           0       -0.046900    0.440900    1.491400
     12          1           0        0.336800    2.172100    1.556000
 ---------------------------------------------------------------------
                    Distance matrix (angstroms):
                    1          2          3          4          5
     1  C    0.000000
     2  C    1.335509   0.000000
     3  C    2.521360   1.502194   0.000000
     4  C    1.502256   2.521442   3.929975   0.000000
     5  H    1.092099   2.091556   2.739660   2.211773   0.000000
     6  H    2.091583   1.092132   2.211769   2.739758   3.057968
     7  H    2.676350   2.159707   1.095481   4.178265   2.434371
     8  H    3.245210   2.160225   1.098734   4.563178   3.510940
     9  H    3.242180   2.160129   1.098785   4.560772   3.505810
    10  H    2.160097   3.243295   4.561674   1.098704   2.581619
    11  H    2.160274   3.244162   4.562168   1.098752   2.580860
    12  H    2.159712   2.676389   4.178241   1.095465   3.112021
                    6          7          8          9         10
     6  H    0.000000
     7  H    3.112059   0.000000
     8  H    2.579692   1.774386   0.000000
     9  H    2.582870   1.774380   1.760825   0.000000
    10  H    3.507674   4.698389   5.050528   5.345958   0.000000
    11  H    3.509212   4.700155   5.348433   5.047410   1.760783
    12  H    2.434429   4.676645   4.699832   4.698791   1.774371
                   11         12
    11  H    0.000000
    12  H    1.774388   0.000000
 Stoichiometry    C4H8
 Framework group  C1[X(C4H8)]
 Deg. of freedom    30
 Full point group                 C1      NOp   1
 Largest Abelian subgroup         C1      NOp   1
 Largest concise Abelian subgroup C1      NOp   1
                         Standard orientation:                         
 ---------------------------------------------------------------------
 Center     Atomic      Atomic             Coordinates (Angstroms)
 Number     Number       Type             X           Y           Z
 ---------------------------------------------------------------------
      1          6           0       -0.538097   -0.395372   -0.000160
      2          6           0        0.538133    0.395395   -0.000153
      3          6           0        1.963368   -0.079255    0.000077
      4          6           0       -1.963409    0.079242    0.000113
      5          1           0       -0.392483   -1.477719   -0.000145
      6          1           0        0.392515    1.477775   -0.000306
      7          1           0        2.022751   -1.173115   -0.004715
      8          1           0        2.509441    0.293012   -0.877670
      9          1           0        2.506327    0.285070    0.883135
     10          1           0       -2.507556   -0.287983   -0.880910
     11          1           0       -2.508191   -0.290207    0.879872
     12          1           0       -2.022772    1.173097    0.001486
 ---------------------------------------------------------------------
 Rotational constants (GHZ):     34.7675662      3.7021937      3.4903184
 Standard basis: VSTO-6G (5D, 7F)
 There are    24 symmetry adapted cartesian basis functions of A   symmetry.
 There are    24 symmetry adapted basis functions of A   symmetry.
    24 basis functions,   144 primitive gaussians,    24 cartesian basis functions
    12 alpha electrons       12 beta electrons
       nuclear repulsion energy        78.6701666270 Hartrees.
 Integral buffers will be    131072 words long.
 Regular integral format.
 Two-electron integral symmetry is turned off.
 Do NDO integrals.
 One-electron integrals computed using PRISM.
 NBasis=    24 RedAO= F EigKep=  0.00D+00  NBF=    24
 NBsUse=    24 1.00D-04 EigRej=  0.00D+00 NBFU=    24
 Simple Huckel Guess.
 Overlap will be assumed to be unity.
 Keep J ints in memory in canonical form, NReq=889405.
 Requested convergence on RMS density matrix=1.00D-08 within 128 cycles.
 Requested convergence on MAX density matrix=1.00D-06.
 Requested convergence on             energy=1.00D-06.
 No special actions if energy rises.
 SCF Done:  E(RAM1) = -0.140216697339E-02 A.U. after   11 cycles
            NFock= 10  Conv=0.55D-08     -V/T= 0.9999

 **********************************************************************

            Population analysis using the SCF density.

 **********************************************************************

 Orbital symmetries:
       Occupied  (A) (A) (A) (A) (A) (A) (A) (A) (A) (A) (A) (A)
       Virtual   (A) (A) (A) (A) (A) (A) (A) (A) (A) (A) (A) (A)
 The electronic state is 1-A.
 Alpha  occ. eigenvalues --   -1.31559  -1.13469  -0.93411  -0.73985  -0.56801
 Alpha  occ. eigenvalues --   -0.54922  -0.52503  -0.49903  -0.46922  -0.46233
 Alpha  occ. eigenvalues --   -0.43364  -0.35374
 Alpha virt. eigenvalues --    0.04805   0.14333   0.15746   0.16418   0.16902
 Alpha virt. eigenvalues --    0.17055   0.17354   0.18477   0.18703   0.18926
 Alpha virt. eigenvalues --    0.21218   0.22134
          Condensed to atoms (all electrons):
               1          2          3          4          5          6
     1  C    4.168466   0.000000   0.000000   0.000000   0.000000   0.000000
     2  C    0.000000   4.168457   0.000000   0.000000   0.000000   0.000000
     3  C    0.000000   0.000000   4.177834   0.000000   0.000000   0.000000
     4  C    0.000000   0.000000   0.000000   4.177827   0.000000   0.000000
     5  H    0.000000   0.000000   0.000000   0.000000   0.885801   0.000000
     6  H    0.000000   0.000000   0.000000   0.000000   0.000000   0.885796
     7  H    0.000000   0.000000   0.000000   0.000000   0.000000   0.000000
     8  H    0.000000   0.000000   0.000000   0.000000   0.000000   0.000000
     9  H    0.000000   0.000000   0.000000   0.000000   0.000000   0.000000
    10  H    0.000000   0.000000   0.000000   0.000000   0.000000   0.000000
    11  H    0.000000   0.000000   0.000000   0.000000   0.000000   0.000000
    12  H    0.000000   0.000000   0.000000   0.000000   0.000000   0.000000
               7          8          9         10         11         12
     1  C    0.000000   0.000000   0.000000   0.000000   0.000000   0.000000
     2  C    0.000000   0.000000   0.000000   0.000000   0.000000   0.000000
     3  C    0.000000   0.000000   0.000000   0.000000   0.000000   0.000000
     4  C    0.000000   0.000000   0.000000   0.000000   0.000000   0.000000
     5  H    0.000000   0.000000   0.000000   0.000000   0.000000   0.000000
     6  H    0.000000   0.000000   0.000000   0.000000   0.000000   0.000000
     7  H    0.926121   0.000000   0.000000   0.000000   0.000000   0.000000
     8  H    0.000000   0.920913   0.000000   0.000000   0.000000   0.000000
     9  H    0.000000   0.000000   0.920876   0.000000   0.000000   0.000000
    10  H    0.000000   0.000000   0.000000   0.920896   0.000000   0.000000
    11  H    0.000000   0.000000   0.000000   0.000000   0.920893   0.000000
    12  H    0.000000   0.000000   0.000000   0.000000   0.000000   0.926120
 Mulliken charges:
               1
     1  C   -0.168466
     2  C   -0.168457
     3  C   -0.177834
     4  C   -0.177827
     5  H    0.114199
     6  H    0.114204
     7  H    0.073879
     8  H    0.079087
     9  H    0.079124
    10  H    0.079104
    11  H    0.079107
    12  H    0.073880
 Sum of Mulliken charges =  -0.00000
 Mulliken charges with hydrogens summed into heavy atoms:
               1
     1  C   -0.054267
     2  C   -0.054253
     3  C    0.054256
     4  C    0.054264
 Charge=             -0.0000 electrons
 Dipole moment (field-independent basis, Debye):
    X=              0.0000    Y=             -0.0000    Z=              0.0006  Tot=              0.0006
 N-N= 7.867016662702D+01 E-N=-1.265602845262D+02  KE=-1.481393766652D+01
 Calling FoFJK, ICntrl=      2127 FMM=F ISym2X=0 I1Cent= 0 IOpClX= 0 NMat=1 NMatS=1 NMatT=0.
 ***** Axes restored to original set *****
 -------------------------------------------------------------------
 Center     Atomic                   Forces (Hartrees/Bohr)
 Number     Number              X              Y              Z
 -------------------------------------------------------------------
      1        6          -0.012188506    0.002964527    0.001130523
      2        6           0.012140739   -0.002958849   -0.001094299
      3        6          -0.029706044    0.005201062    0.001415813
      4        6           0.029770508   -0.005209747   -0.001401695
      5        1          -0.002823878   -0.007166463   -0.004637031
      6        1           0.002828316    0.007144893    0.004630388
      7        1           0.000516717   -0.013470383   -0.008430409
      8        1           0.003084260    0.012318868   -0.007602913
      9        1           0.001670315   -0.001637007    0.014595018
     10        1          -0.001711961    0.001598117   -0.014640778
     11        1          -0.003061423   -0.012290259    0.007644130
     12        1          -0.000519044    0.013505240    0.008391254
 -------------------------------------------------------------------
 Cartesian Forces:  Max     0.029770508 RMS     0.010119160

 GradGradGradGradGradGradGradGradGradGradGradGradGradGradGradGradGradGrad
 Berny optimization.
 FormGI is forming the generalized inverse of G from B-inverse, IUseBI=4.
 Internal  Forces:  Max     0.024356911 RMS     0.008191425
 Search for a local minimum.
 Step number   1 out of a maximum of   55
 All quantities printed in internal units (Hartrees-Bohrs-Radians)
 Mixed Optimization -- RFO/linear search
 Second derivative matrix not updated -- first step.
 ITU=  0
     Eigenvalues ---    0.00736   0.00737   0.01643   0.01644   0.02942
     Eigenvalues ---    0.07087   0.07087   0.07187   0.07187   0.16000
     Eigenvalues ---    0.16000   0.16000   0.16000   0.16000   0.16000
     Eigenvalues ---    0.16000   0.16000   0.22000   0.22000   0.32142
     Eigenvalues ---    0.32148   0.33817   0.33821   0.33822   0.33826
     Eigenvalues ---    0.34187   0.34189   0.34567   0.34571   0.58223
 RFO step:  Lambda=-9.88670489D-03 EMin= 7.36103296D-03
 Linear search not attempted -- first point.
 Iteration  1 RMS(Cart)=  0.05391258 RMS(Int)=  0.00045779
 Iteration  2 RMS(Cart)=  0.00062946 RMS(Int)=  0.00013167
 Iteration  3 RMS(Cart)=  0.00000022 RMS(Int)=  0.00013167
 Variable       Old X    -DE/DX   Delta X   Delta X   Delta X     New X
                                 (Linear)    (Quad)   (Total)
    R1        2.52375  -0.00206   0.00000  -0.00347  -0.00347   2.52028
    R2        2.83885  -0.02436   0.00000  -0.07352  -0.07352   2.76533
    R3        2.06377   0.00765   0.00000   0.02152   0.02152   2.08528
    R4        2.83873  -0.02432   0.00000  -0.07338  -0.07338   2.76535
    R5        2.06383   0.00763   0.00000   0.02146   0.02146   2.08529
    R6        2.07016   0.01578   0.00000   0.04487   0.04487   2.11503
    R7        2.07631   0.01407   0.00000   0.04041   0.04041   2.11672
    R8        2.07640   0.01405   0.00000   0.04036   0.04036   2.11676
    R9        2.07625   0.01410   0.00000   0.04049   0.04049   2.11674
   R10        2.07634   0.01406   0.00000   0.04039   0.04039   2.11673
   R11        2.07013   0.01579   0.00000   0.04489   0.04489   2.11502
    A1        2.18648  -0.00676   0.00000  -0.02939  -0.02939   2.15709
    A2        2.07074   0.00825   0.00000   0.04337   0.04337   2.11411
    A3        2.02597  -0.00149   0.00000  -0.01398  -0.01398   2.01199
    A4        2.18644  -0.00675   0.00000  -0.02934  -0.02934   2.15710
    A5        2.07074   0.00824   0.00000   0.04335   0.04335   2.11408
    A6        2.02601  -0.00150   0.00000  -0.01400  -0.01400   2.01200
    A7        1.94651  -0.00067   0.00000  -0.00389  -0.00400   1.94251
    A8        1.94374  -0.00499   0.00000  -0.02941  -0.02966   1.91408
    A9        1.94355  -0.00498   0.00000  -0.02936  -0.02961   1.91394
   A10        1.88376   0.00307   0.00000   0.01809   0.01798   1.90174
   A11        1.88369   0.00307   0.00000   0.01809   0.01799   1.90168
   A12        1.85886   0.00521   0.00000   0.03058   0.03017   1.88903
   A13        1.94352  -0.00497   0.00000  -0.02928  -0.02953   1.91399
   A14        1.94372  -0.00500   0.00000  -0.02948  -0.02973   1.91399
   A15        1.94645  -0.00066   0.00000  -0.00387  -0.00398   1.94248
   A16        1.85887   0.00521   0.00000   0.03058   0.03018   1.88905
   A17        1.88379   0.00306   0.00000   0.01806   0.01796   1.90175
   A18        1.88376   0.00307   0.00000   0.01807   0.01797   1.90173
    D1        3.14118   0.00001   0.00000   0.00023   0.00023   3.14142
    D2       -0.00039   0.00001   0.00000   0.00027   0.00027  -0.00012
    D3       -0.00016   0.00000   0.00000  -0.00002  -0.00002  -0.00019
    D4        3.14145   0.00000   0.00000   0.00002   0.00002   3.14147
    D5        2.10437   0.00001   0.00000   0.00006  -0.00007   2.10431
    D6       -2.10675  -0.00001   0.00000  -0.00018  -0.00006  -2.10680
    D7       -0.00114  -0.00001   0.00000  -0.00013  -0.00012  -0.00126
    D8       -1.03746   0.00002   0.00000   0.00031   0.00018  -1.03727
    D9        1.03460  -0.00000   0.00000   0.00007   0.00020   1.03480
   D10        3.14021   0.00000   0.00000   0.00013   0.00013   3.14034
   D11        0.00486  -0.00000   0.00000  -0.00010  -0.00010   0.00476
   D12        2.11052   0.00001   0.00000   0.00000  -0.00012   2.11040
   D13       -2.10057  -0.00001   0.00000  -0.00026  -0.00014  -2.10071
   D14       -3.13675  -0.00000   0.00000  -0.00014  -0.00014  -3.13689
   D15       -1.03109   0.00001   0.00000  -0.00004  -0.00016  -1.03125
   D16        1.04100  -0.00001   0.00000  -0.00030  -0.00017   1.04083
         Item               Value     Threshold  Converged?
 Maximum Force            0.024357     0.000450     NO 
 RMS     Force            0.008191     0.000300     NO 
 Maximum Displacement     0.123479     0.001800     NO 
 RMS     Displacement     0.054351     0.001200     NO 
 Predicted change in Energy=-5.115411D-03
 GradGradGradGradGradGradGradGradGradGradGradGradGradGradGradGradGradGrad

                          Input orientation:                          
 ---------------------------------------------------------------------
 Center     Atomic      Atomic             Coordinates (Angstroms)
 Number     Number       Type             X           Y           Z
 ---------------------------------------------------------------------
      1          6           0        1.975510    0.920494    0.876915
      2          6           0        2.950332    1.665158    1.400249
      3          6           0        4.371565    1.336586    1.283762
      4          6           0        0.554279    1.248959    0.993588
      5          1           0        2.201271   -0.002864    0.316452
      6          1           0        2.724550    2.588578    1.960606
      7          1           0        4.524310    0.393437    0.700836
      8          1           0        4.911090    2.173221    0.770322
      9          1           0        4.813785    1.208885    2.304965
     10          1           0        0.111042    1.373078   -0.027605
     11          1           0        0.015603    0.413812    1.510341
     12          1           0        0.401762    2.193955    1.573569
 ---------------------------------------------------------------------
                    Distance matrix (angstroms):
                    1          2          3          4          5
     1  C    0.000000
     2  C    1.333672   0.000000
     3  C    2.465712   1.463363   0.000000
     4  C    1.463352   2.465698   3.829302   0.000000
     5  H    1.103485   2.125560   2.727635   2.176731   0.000000
     6  H    2.125547   1.103486   2.176754   2.727596   3.113300
     7  H    2.608674   2.140995   1.119225   4.071704   2.387743
     8  H    3.193480   2.121204   1.120118   4.459362   3.504920
     9  H    3.190345   2.121121   1.120143   4.456985   3.499678
    10  H    2.121138   3.191496   4.457922   1.120133   2.525995
    11  H    2.121129   3.192275   4.458391   1.120123   2.525101
    12  H    2.140960   2.608616   4.071658   1.119222   3.105575
                    6          7          8          9         10
     6  H    0.000000
     7  H    3.105608   0.000000
     8  H    2.523936   1.822650   0.000000
     9  H    2.527259   1.822630   1.815087   0.000000
    10  H    3.501549   4.579002   4.931265   5.252012   0.000000
    11  H    3.502961   4.580846   5.254421   4.928095   1.815097
    12  H    2.387649   4.582459   4.580357   4.579438   1.822667
                   11         12
    11  H    0.000000
    12  H    1.822643   0.000000
 Stoichiometry    C4H8
 Framework group  C1[X(C4H8)]
 Deg. of freedom    30
 Full point group                 C1      NOp   1
 Largest Abelian subgroup         C1      NOp   1
 Largest concise Abelian subgroup C1      NOp   1
                         Standard orientation:                         
 ---------------------------------------------------------------------
 Center     Atomic      Atomic             Coordinates (Angstroms)
 Number     Number       Type             X           Y           Z
 ---------------------------------------------------------------------
      1          6           0       -0.533057   -0.400658   -0.000052
      2          6           0        0.533046    0.400656   -0.000089
      3          6           0        1.912661   -0.087291    0.000026
      4          6           0       -1.912659    0.087295    0.000047
      5          1           0       -0.421541   -1.498494   -0.000106
      6          1           0        0.421502    1.498490   -0.000155
      7          1           0        1.948208   -1.205941   -0.004816
      8          1           0        2.448842    0.297819   -0.904886
      9          1           0        2.445708    0.289805    0.910180
     10          1           0       -2.446934   -0.292725   -0.908155
     11          1           0       -2.447574   -0.294919    0.906940
     12          1           0       -1.948157    1.205953    0.001406
 ---------------------------------------------------------------------
 Rotational constants (GHZ):     33.3392099      3.8847471      3.6460191
 Standard basis: VSTO-6G (5D, 7F)
 There are    24 symmetry adapted cartesian basis functions of A   symmetry.
 There are    24 symmetry adapted basis functions of A   symmetry.
    24 basis functions,   144 primitive gaussians,    24 cartesian basis functions
    12 alpha electrons       12 beta electrons
       nuclear repulsion energy        79.0766668520 Hartrees.
 Integral buffers will be    131072 words long.
 Regular integral format.
 Two-electron integral symmetry is turned off.
 Do NDO integrals.
 One-electron integrals computed using PRISM.
 NBasis=    24 RedAO= F EigKep=  0.00D+00  NBF=    24
 NBsUse=    24 1.00D-04 EigRej=  0.00D+00 NBFU=    24
 Initial guess from the checkpoint file:  "2-butene-E-opt.chk"
 B after Tr=     0.000000   -0.000000    0.000000
         Rot=    0.999997    0.000015   -0.000001    0.002418 Ang=   0.28 deg.
 Overlap will be assumed to be unity.
 Keep J ints in memory in canonical form, NReq=889405.
 Requested convergence on RMS density matrix=1.00D-08 within 128 cycles.
 Requested convergence on MAX density matrix=1.00D-06.
 Requested convergence on             energy=1.00D-06.
 No special actions if energy rises.
 SCF Done:  E(RAM1) = -0.499665952903E-02 A.U. after   10 cycles
            NFock=  9  Conv=0.46D-08     -V/T= 0.9997
 Calling FoFJK, ICntrl=      2127 FMM=F ISym2X=0 I1Cent= 0 IOpClX= 0 NMat=1 NMatS=1 NMatT=0.
 ***** Axes restored to original set *****
 -------------------------------------------------------------------
 Center     Atomic                   Forces (Hartrees/Bohr)
 Number     Number              X              Y              Z
 -------------------------------------------------------------------
      1        6           0.005279097   -0.004191673   -0.002283065
      2        6          -0.005265902    0.004191861    0.002274414
      3        6           0.008711716   -0.001355868   -0.000306274
      4        6          -0.008713776    0.001356790    0.000307116
      5        1           0.000466729   -0.000107308   -0.000039436
      6        1          -0.000463830    0.000102817    0.000046278
      7        1           0.002124356    0.000861423    0.000678520
      8        1           0.001192419   -0.001197724   -0.000049049
      9        1           0.001247412   -0.000626114   -0.000947091
     10        1          -0.001250079    0.000633523    0.000947889
     11        1          -0.001197931    0.001194905    0.000044604
     12        1          -0.002130211   -0.000862632   -0.000673908
 -------------------------------------------------------------------
 Cartesian Forces:  Max     0.008713776 RMS     0.002789656

 GradGradGradGradGradGradGradGradGradGradGradGradGradGradGradGradGradGrad
 Berny optimization.
 Using GEDIIS/GDIIS optimizer.
 FormGI is forming the generalized inverse of G from B-inverse, IUseBI=4.
 Internal  Forces:  Max     0.013480617 RMS     0.003274031
 Search for a local minimum.
 Step number   2 out of a maximum of   55
 All quantities printed in internal units (Hartrees-Bohrs-Radians)
 Mixed Optimization -- RFO/linear search
 Update second derivatives using D2CorX and points    1    2
 DE= -3.59D-03 DEPred=-5.12D-03 R= 7.03D-01
 TightC=F SS=  1.41D+00  RLast= 1.87D-01 DXNew= 5.0454D-01 5.5981D-01
 Trust test= 7.03D-01 RLast= 1.87D-01 DXMaxT set to 5.05D-01
 ITU=  1  0
 Use linear search instead of GDIIS.
     Eigenvalues ---    0.00736   0.00737   0.01677   0.01677   0.02942
     Eigenvalues ---    0.07257   0.07257   0.07489   0.07490   0.15653
     Eigenvalues ---    0.16000   0.16000   0.16000   0.16000   0.16000
     Eigenvalues ---    0.16000   0.16822   0.22000   0.22341   0.30790
     Eigenvalues ---    0.32145   0.33818   0.33821   0.33825   0.34056
     Eigenvalues ---    0.34188   0.34520   0.34569   0.43996   0.59946
 RFO step:  Lambda=-4.62490066D-04 EMin= 7.36103282D-03
 Quartic linear search produced a step of -0.21725.
 Iteration  1 RMS(Cart)=  0.02102683 RMS(Int)=  0.00005569
 Iteration  2 RMS(Cart)=  0.00005114 RMS(Int)=  0.00002237
 Iteration  3 RMS(Cart)=  0.00000000 RMS(Int)=  0.00002237
 Variable       Old X    -DE/DX   Delta X   Delta X   Delta X     New X
                                 (Linear)    (Quad)   (Total)
    R1        2.52028   0.00729   0.00075   0.00885   0.00960   2.52987
    R2        2.76533   0.01348   0.01597   0.01246   0.02844   2.79377
    R3        2.08528   0.00021  -0.00467   0.00639   0.00172   2.08700
    R4        2.76535   0.01346   0.01594   0.01246   0.02840   2.79375
    R5        2.08529   0.00020  -0.00466   0.00637   0.00171   2.08700
    R6        2.11503  -0.00079  -0.00975   0.01056   0.00081   2.11584
    R7        2.11672  -0.00030  -0.00878   0.01045   0.00167   2.11839
    R8        2.11676  -0.00030  -0.00877   0.01044   0.00167   2.11843
    R9        2.11674  -0.00030  -0.00880   0.01047   0.00168   2.11842
   R10        2.11673  -0.00029  -0.00877   0.01046   0.00168   2.11841
   R11        2.11502  -0.00079  -0.00975   0.01057   0.00082   2.11584
    A1        2.15709   0.00244   0.00638   0.00038   0.00677   2.16386
    A2        2.11411  -0.00167  -0.00942   0.00588  -0.00354   2.11057
    A3        2.01199  -0.00077   0.00304  -0.00627  -0.00323   2.00876
    A4        2.15710   0.00244   0.00637   0.00039   0.00676   2.16386
    A5        2.11408  -0.00167  -0.00942   0.00590  -0.00352   2.11056
    A6        2.01200  -0.00077   0.00304  -0.00628  -0.00324   2.00876
    A7        1.94251   0.00252   0.00087   0.01081   0.01167   1.95418
    A8        1.91408   0.00157   0.00644  -0.00084   0.00564   1.91972
    A9        1.91394   0.00157   0.00643  -0.00085   0.00561   1.91956
   A10        1.90174  -0.00219  -0.00391  -0.00578  -0.00970   1.89204
   A11        1.90168  -0.00218  -0.00391  -0.00577  -0.00969   1.89199
   A12        1.88903  -0.00144  -0.00655   0.00217  -0.00432   1.88471
   A13        1.91399   0.00157   0.00642  -0.00081   0.00564   1.91962
   A14        1.91399   0.00157   0.00646  -0.00084   0.00565   1.91964
   A15        1.94248   0.00252   0.00086   0.01084   0.01170   1.95418
   A16        1.88905  -0.00144  -0.00656   0.00215  -0.00434   1.88471
   A17        1.90175  -0.00219  -0.00390  -0.00582  -0.00973   1.89202
   A18        1.90173  -0.00219  -0.00390  -0.00579  -0.00971   1.89202
    D1        3.14142   0.00000  -0.00005   0.00010   0.00005   3.14147
    D2       -0.00012   0.00000  -0.00006   0.00023   0.00017   0.00006
    D3       -0.00019  -0.00000   0.00001  -0.00007  -0.00006  -0.00025
    D4        3.14147   0.00000  -0.00000   0.00006   0.00006   3.14152
    D5        2.10431  -0.00007   0.00001  -0.00078  -0.00073   2.10357
    D6       -2.10680   0.00007   0.00001   0.00085   0.00083  -2.10597
    D7       -0.00126   0.00000   0.00003   0.00004   0.00007  -0.00120
    D8       -1.03727  -0.00007  -0.00004  -0.00062  -0.00063  -1.03790
    D9        1.03480   0.00007  -0.00004   0.00101   0.00094   1.03574
   D10        3.14034   0.00000  -0.00003   0.00020   0.00018   3.14052
   D11        0.00476  -0.00000   0.00002  -0.00034  -0.00032   0.00444
   D12        2.11040  -0.00007   0.00003  -0.00116  -0.00110   2.10930
   D13       -2.10071   0.00007   0.00003   0.00047   0.00046  -2.10025
   D14       -3.13689  -0.00000   0.00003  -0.00046  -0.00043  -3.13732
   D15       -1.03125  -0.00007   0.00004  -0.00128  -0.00121  -1.03246
   D16        1.04083   0.00006   0.00004   0.00034   0.00035   1.04118
         Item               Value     Threshold  Converged?
 Maximum Force            0.013481     0.000450     NO 
 RMS     Force            0.003274     0.000300     NO 
 Maximum Displacement     0.066814     0.001800     NO 
 RMS     Displacement     0.021042     0.001200     NO 
 Predicted change in Energy=-5.438313D-04
 GradGradGradGradGradGradGradGradGradGradGradGradGradGradGradGradGradGrad

                          Input orientation:                          
 ---------------------------------------------------------------------
 Center     Atomic      Atomic             Coordinates (Angstroms)
 Number     Number       Type             X           Y           Z
 ---------------------------------------------------------------------
      1          6           0        1.971879    0.920771    0.876850
      2          6           0        2.953985    1.664860    1.400354
      3          6           0        4.390782    1.336377    1.284811
      4          6           0        0.535064    1.249176    0.992522
      5          1           0        2.197413   -0.003323    0.315718
      6          1           0        2.728449    2.588987    1.961427
      7          1           0        4.559614    0.394269    0.703815
      8          1           0        4.934699    2.171252    0.771208
      9          1           0        4.837641    1.207992    2.304876
     10          1           0        0.087275    1.374231   -0.027542
     11          1           0       -0.008107    0.415700    1.509196
     12          1           0        0.366406    2.193008    1.570766
 ---------------------------------------------------------------------
                    Distance matrix (angstroms):
                    1          2          3          4          5
     1  C    0.000000
     2  C    1.338752   0.000000
     3  C    2.488022   1.478390   0.000000
     4  C    1.478400   2.488031   3.867764   0.000000
     5  H    1.104393   2.128772   2.746781   2.188658   0.000000
     6  H    2.128767   1.104391   2.188650   2.746781   3.116156
     7  H    2.646416   2.162779   1.119655   4.124466   2.426662
     8  H    3.217634   2.139039   1.121005   4.500666   3.525477
     9  H    3.214708   2.138937   1.121026   4.498459   3.520630
    10  H    2.138991   3.215801   4.499320   1.121020   2.543259
    11  H    2.138995   3.216557   4.499802   1.121013   2.542496
    12  H    2.162787   2.646422   4.124463   1.119656   3.122755
                    6          7          8          9         10
     6  H    0.000000
     7  H    3.122745   0.000000
     8  H    2.541390   1.817389   0.000000
     9  H    2.544365   1.817372   1.813678   0.000000
    10  H    3.522419   4.636488   4.977024   5.294695   0.000000
    11  H    3.523696   4.638229   5.296973   4.974144   1.813682
    12  H    2.426657   4.644358   4.637788   4.636930   1.817388
                   11         12
    11  H    0.000000
    12  H    1.817381   0.000000
 Stoichiometry    C4H8
 Framework group  C1[X(C4H8)]
 Deg. of freedom    30
 Full point group                 C1      NOp   1
 Largest Abelian subgroup         C1      NOp   1
 Largest concise Abelian subgroup C1      NOp   1
                         Standard orientation:                         
 ---------------------------------------------------------------------
 Center     Atomic      Atomic             Coordinates (Angstroms)
 Number     Number       Type             X           Y           Z
 ---------------------------------------------------------------------
      1          6           0       -0.535922   -0.401061   -0.000016
      2          6           0        0.535927    0.401059   -0.000089
      3          6           0        1.931993   -0.085392    0.000014
      4          6           0       -1.931998    0.085395    0.000033
      5          1           0       -0.422728   -1.499638   -0.000108
      6          1           0        0.422728    1.499634   -0.000063
      7          1           0        1.985823   -1.203744   -0.004450
      8          1           0        2.471703    0.298566   -0.904386
      9          1           0        2.468808    0.291139    0.909274
     10          1           0       -2.469935   -0.293863   -0.907421
     11          1           0       -2.470579   -0.295856    0.906260
     12          1           0       -1.985823    1.203755    0.001245
 ---------------------------------------------------------------------
 Rotational constants (GHZ):     33.3544281      3.8083616      3.5785656
 Standard basis: VSTO-6G (5D, 7F)
 There are    24 symmetry adapted cartesian basis functions of A   symmetry.
 There are    24 symmetry adapted basis functions of A   symmetry.
    24 basis functions,   144 primitive gaussians,    24 cartesian basis functions
    12 alpha electrons       12 beta electrons
       nuclear repulsion energy        78.7772947882 Hartrees.
 Integral buffers will be    131072 words long.
 Regular integral format.
 Two-electron integral symmetry is turned off.
 Do NDO integrals.
 One-electron integrals computed using PRISM.
 NBasis=    24 RedAO= F EigKep=  0.00D+00  NBF=    24
 NBsUse=    24 1.00D-04 EigRej=  0.00D+00 NBFU=    24
 Initial guess from the checkpoint file:  "2-butene-E-opt.chk"
 B after Tr=    -0.000000    0.000000   -0.000000
         Rot=    1.000000    0.000054   -0.000002   -0.000737 Ang=   0.08 deg.
 Overlap will be assumed to be unity.
 Keep J ints in memory in canonical form, NReq=889405.
 Requested convergence on RMS density matrix=1.00D-08 within 128 cycles.
 Requested convergence on MAX density matrix=1.00D-06.
 Requested convergence on             energy=1.00D-06.
 No special actions if energy rises.
 SCF Done:  E(RAM1) = -0.540458187973E-02 A.U. after    9 cycles
            NFock=  8  Conv=0.61D-08     -V/T= 0.9996
 Calling FoFJK, ICntrl=      2127 FMM=F ISym2X=0 I1Cent= 0 IOpClX= 0 NMat=1 NMatS=1 NMatT=0.
 ***** Axes restored to original set *****
 -------------------------------------------------------------------
 Center     Atomic                   Forces (Hartrees/Bohr)
 Number     Number              X              Y              Z
 -------------------------------------------------------------------
      1        6           0.000863062    0.001855261    0.001195093
      2        6          -0.000870554   -0.001851055   -0.001201465
      3        6          -0.001610390    0.000329523    0.000107103
      4        6           0.001617506   -0.000333239   -0.000105212
      5        1          -0.000227273    0.000919209    0.000559149
      6        1           0.000226749   -0.000920384   -0.000554028
      7        1          -0.000265019    0.001354620    0.000836626
      8        1          -0.000643816   -0.001096075    0.000487486
      9        1          -0.000531152    0.000002242   -0.001252299
     10        1           0.000534704    0.000004020    0.001253873
     11        1           0.000641237    0.001094083   -0.000493735
     12        1           0.000264945   -0.001358205   -0.000832590
 -------------------------------------------------------------------
 Cartesian Forces:  Max     0.001855261 RMS     0.000938923

 GradGradGradGradGradGradGradGradGradGradGradGradGradGradGradGradGradGrad
 Berny optimization.
 Using GEDIIS/GDIIS optimizer.
 FormGI is forming the generalized inverse of G from B-inverse, IUseBI=4.
 Internal  Forces:  Max     0.004538837 RMS     0.001112649
 Search for a local minimum.
 Step number   3 out of a maximum of   55
 All quantities printed in internal units (Hartrees-Bohrs-Radians)
 Mixed Optimization -- RFO/linear search
 Update second derivatives using D2CorX and points    1    2    3
 DE= -4.08D-04 DEPred=-5.44D-04 R= 7.50D-01
 TightC=F SS=  1.41D+00  RLast= 5.18D-02 DXNew= 8.4853D-01 1.5539D-01
 Trust test= 7.50D-01 RLast= 5.18D-02 DXMaxT set to 5.05D-01
 ITU=  1  1  0
 Use linear search instead of GDIIS.
     Eigenvalues ---    0.00736   0.00737   0.01676   0.01677   0.02942
     Eigenvalues ---    0.07155   0.07155   0.07395   0.07418   0.15405
     Eigenvalues ---    0.16000   0.16000   0.16000   0.16000   0.16000
     Eigenvalues ---    0.16002   0.16562   0.22000   0.22349   0.32145
     Eigenvalues ---    0.33818   0.33821   0.33825   0.33938   0.34188
     Eigenvalues ---    0.34456   0.34569   0.35262   0.45732   0.72613
 RFO step:  Lambda=-4.96452289D-05 EMin= 7.36102344D-03
 Quartic linear search produced a step of -0.19005.
 Iteration  1 RMS(Cart)=  0.00389460 RMS(Int)=  0.00000304
 Iteration  2 RMS(Cart)=  0.00000200 RMS(Int)=  0.00000264
 Iteration  3 RMS(Cart)=  0.00000000 RMS(Int)=  0.00000264
 Variable       Old X    -DE/DX   Delta X   Delta X   Delta X     New X
                                 (Linear)    (Quad)   (Total)
    R1        2.52987  -0.00454  -0.00182  -0.00354  -0.00537   2.52451
    R2        2.79377  -0.00312  -0.00540   0.00036  -0.00505   2.78873
    R3        2.08700  -0.00110  -0.00033  -0.00228  -0.00260   2.08440
    R4        2.79375  -0.00311  -0.00540   0.00037  -0.00503   2.78872
    R5        2.08700  -0.00110  -0.00033  -0.00227  -0.00260   2.08440
    R6        2.11584  -0.00161  -0.00015  -0.00396  -0.00411   2.11173
    R7        2.11839  -0.00135  -0.00032  -0.00315  -0.00347   2.11492
    R8        2.11843  -0.00135  -0.00032  -0.00315  -0.00347   2.11496
    R9        2.11842  -0.00135  -0.00032  -0.00316  -0.00347   2.11495
   R10        2.11841  -0.00135  -0.00032  -0.00315  -0.00347   2.11494
   R11        2.11584  -0.00161  -0.00016  -0.00396  -0.00412   2.11173
    A1        2.16386  -0.00045  -0.00129   0.00043  -0.00085   2.16300
    A2        2.11057   0.00023   0.00067  -0.00066   0.00001   2.11058
    A3        2.00876   0.00022   0.00061   0.00023   0.00084   2.00960
    A4        2.16386  -0.00045  -0.00129   0.00043  -0.00085   2.16301
    A5        2.11056   0.00023   0.00067  -0.00066   0.00001   2.11057
    A6        2.00876   0.00022   0.00062   0.00023   0.00084   2.00961
    A7        1.95418  -0.00012  -0.00222   0.00184  -0.00037   1.95381
    A8        1.91972   0.00009  -0.00107   0.00231   0.00124   1.92096
    A9        1.91956   0.00009  -0.00107   0.00232   0.00126   1.92081
   A10        1.89204  -0.00007   0.00184  -0.00312  -0.00127   1.89078
   A11        1.89199  -0.00007   0.00184  -0.00311  -0.00126   1.89073
   A12        1.88471   0.00007   0.00082  -0.00047   0.00035   1.88506
   A13        1.91962   0.00009  -0.00107   0.00231   0.00124   1.92087
   A14        1.91964   0.00009  -0.00107   0.00233   0.00126   1.92090
   A15        1.95418  -0.00012  -0.00222   0.00185  -0.00037   1.95381
   A16        1.88471   0.00006   0.00082  -0.00047   0.00035   1.88507
   A17        1.89202  -0.00007   0.00185  -0.00313  -0.00127   1.89075
   A18        1.89202  -0.00007   0.00184  -0.00311  -0.00126   1.89076
    D1        3.14147  -0.00000  -0.00001  -0.00002  -0.00003   3.14144
    D2        0.00006  -0.00000  -0.00003  -0.00003  -0.00006  -0.00000
    D3       -0.00025   0.00000   0.00001   0.00005   0.00006  -0.00019
    D4        3.14152   0.00000  -0.00001   0.00004   0.00003   3.14155
    D5        2.10357  -0.00010   0.00014  -0.00106  -0.00092   2.10265
    D6       -2.10597   0.00010  -0.00016   0.00122   0.00106  -2.10491
    D7       -0.00120   0.00000  -0.00001   0.00010   0.00008  -0.00111
    D8       -1.03790  -0.00010   0.00012  -0.00112  -0.00100  -1.03890
    D9        1.03574   0.00010  -0.00018   0.00116   0.00098   1.03672
   D10        3.14052   0.00000  -0.00003   0.00004   0.00000   3.14052
   D11        0.00444  -0.00000   0.00006  -0.00022  -0.00016   0.00428
   D12        2.10930  -0.00010   0.00021  -0.00136  -0.00116   2.10814
   D13       -2.10025   0.00009  -0.00009   0.00091   0.00082  -2.09942
   D14       -3.13732  -0.00000   0.00008  -0.00021  -0.00013  -3.13745
   D15       -1.03246  -0.00010   0.00023  -0.00136  -0.00113  -1.03359
   D16        1.04118   0.00009  -0.00007   0.00092   0.00085   1.04203
         Item               Value     Threshold  Converged?
 Maximum Force            0.004539     0.000450     NO 
 RMS     Force            0.001113     0.000300     NO 
 Maximum Displacement     0.008803     0.001800     NO 
 RMS     Displacement     0.003895     0.001200     NO 
 Predicted change in Energy=-4.774804D-05
 GradGradGradGradGradGradGradGradGradGradGradGradGradGradGradGradGradGrad

                          Input orientation:                          
 ---------------------------------------------------------------------
 Center     Atomic      Atomic             Coordinates (Angstroms)
 Number     Number       Type             X           Y           Z
 ---------------------------------------------------------------------
      1          6           0        1.973352    0.921178    0.877136
      2          6           0        2.952507    1.664466    1.400047
      3          6           0        4.386753    1.336700    1.284779
      4          6           0        0.539097    1.248848    0.992561
      5          1           0        2.199621   -0.001601    0.316846
      6          1           0        2.726236    2.587266    1.960302
      7          1           0        4.554955    0.396347    0.704949
      8          1           0        4.930729    2.169051    0.771147
      9          1           0        4.833884    1.207378    2.302589
     10          1           0        0.091058    1.374957   -0.025243
     11          1           0       -0.004155    0.417846    1.509158
     12          1           0        0.371063    2.190865    1.569729
 ---------------------------------------------------------------------
                    Distance matrix (angstroms):
                    1          2          3          4          5
     1  C    0.000000
     2  C    1.335911   0.000000
     3  C    2.482606   1.475729   0.000000
     4  C    1.475730   2.482606   3.859737   0.000000
     5  H    1.103016   2.125074   2.740709   2.185762   0.000000
     6  H    2.125072   1.103016   2.185763   2.740705   3.111350
     7  H    2.640033   2.158501   1.117478   4.115410   2.420039
     8  H    3.211620   2.136231   1.119169   4.492465   3.518107
     9  H    3.208812   2.136139   1.119190   4.490334   3.513424
    10  H    2.136172   3.209853   4.491170   1.119181   2.541254
    11  H    2.136194   3.210578   4.491626   1.119177   2.540506
    12  H    2.158500   2.640027   4.115405   1.117478   3.117732
                    6          7          8          9         10
     6  H    0.000000
     7  H    3.117731   0.000000
     8  H    2.539446   1.813303   0.000000
     9  H    2.542328   1.813291   1.810941   0.000000
    10  H    3.515145   4.627876   4.968626   5.285952   0.000000
    11  H    3.516382   4.629546   5.288143   4.965835   1.810942
    12  H    2.420025   4.633907   4.629122   4.628294   1.813297
                   11         12
    11  H    0.000000
    12  H    1.813299   0.000000
 Stoichiometry    C4H8
 Framework group  C1[X(C4H8)]
 Deg. of freedom    30
 Full point group                 C1      NOp   1
 Largest Abelian subgroup         C1      NOp   1
 Largest concise Abelian subgroup C1      NOp   1
                         Standard orientation:                         
 ---------------------------------------------------------------------
 Center     Atomic      Atomic             Coordinates (Angstroms)
 Number     Number       Type             X           Y           Z
 ---------------------------------------------------------------------
      1          6           0       -0.534431   -0.400684   -0.000038
      2          6           0        0.534431    0.400684   -0.000086
      3          6           0        1.928002   -0.084844    0.000020
      4          6           0       -1.928002    0.084845    0.000040
      5          1           0       -0.420416   -1.497791   -0.000094
      6          1           0        0.420412    1.497791   -0.000071
      7          1           0        1.981356   -1.201040   -0.004291
      8          1           0        2.467634    0.296874   -0.903101
      9          1           0        2.464839    0.289703    0.907824
     10          1           0       -2.465932   -0.292328   -0.906017
     11          1           0       -2.466539   -0.294259    0.904924
     12          1           0       -1.981351    1.201048    0.001207
 ---------------------------------------------------------------------
 Rotational constants (GHZ):     33.4594311      3.8238607      3.5929508
 Standard basis: VSTO-6G (5D, 7F)
 There are    24 symmetry adapted cartesian basis functions of A   symmetry.
 There are    24 symmetry adapted basis functions of A   symmetry.
    24 basis functions,   144 primitive gaussians,    24 cartesian basis functions
    12 alpha electrons       12 beta electrons
       nuclear repulsion energy        78.8602152427 Hartrees.
 Integral buffers will be    131072 words long.
 Regular integral format.
 Two-electron integral symmetry is turned off.
 Do NDO integrals.
 One-electron integrals computed using PRISM.
 NBasis=    24 RedAO= F EigKep=  0.00D+00  NBF=    24
 NBsUse=    24 1.00D-04 EigRej=  0.00D+00 NBFU=    24
 Initial guess from the checkpoint file:  "2-butene-E-opt.chk"
 B after Tr=     0.000000   -0.000000    0.000000
         Rot=    1.000000    0.000020   -0.000001   -0.000044 Ang=   0.01 deg.
 Overlap will be assumed to be unity.
 Keep J ints in memory in canonical form, NReq=889405.
 Requested convergence on RMS density matrix=1.00D-08 within 128 cycles.
 Requested convergence on MAX density matrix=1.00D-06.
 Requested convergence on             energy=1.00D-06.
 No special actions if energy rises.
 SCF Done:  E(RAM1) = -0.545143640517E-02 A.U. after    8 cycles
            NFock=  7  Conv=0.78D-08     -V/T= 0.9996
 Calling FoFJK, ICntrl=      2127 FMM=F ISym2X=0 I1Cent= 0 IOpClX= 0 NMat=1 NMatS=1 NMatT=0.
 ***** Axes restored to original set *****
 -------------------------------------------------------------------
 Center     Atomic                   Forces (Hartrees/Bohr)
 Number     Number              X              Y              Z
 -------------------------------------------------------------------
      1        6          -0.000450828   -0.000230158   -0.000173538
      2        6           0.000450666    0.000230901    0.000172238
      3        6          -0.000177936    0.000183418    0.000104289
      4        6           0.000178829   -0.000184032   -0.000103954
      5        1          -0.000071332   -0.000059795   -0.000043119
      6        1           0.000071560    0.000058164    0.000045767
      7        1           0.000047768   -0.000069816   -0.000038009
      8        1           0.000001365   -0.000003736   -0.000057591
      9        1          -0.000002342   -0.000048109    0.000020780
     10        1           0.000002117    0.000050267   -0.000021580
     11        1          -0.000001693    0.000003602    0.000055455
     12        1          -0.000048175    0.000069294    0.000039261
 -------------------------------------------------------------------
 Cartesian Forces:  Max     0.000450828 RMS     0.000146800

 GradGradGradGradGradGradGradGradGradGradGradGradGradGradGradGradGradGrad
 Berny optimization.
 Using GEDIIS/GDIIS optimizer.
 FormGI is forming the generalized inverse of G from B-inverse, IUseBI=4.
 Internal  Forces:  Max     0.000578705 RMS     0.000099584
 Search for a local minimum.
 Step number   4 out of a maximum of   55
 All quantities printed in internal units (Hartrees-Bohrs-Radians)
 Mixed Optimization -- En-DIIS/RFO-DIIS
 Update second derivatives using D2CorX and points    1    2    3    4
 DE= -4.69D-05 DEPred=-4.77D-05 R= 9.81D-01
 TightC=F SS=  1.41D+00  RLast= 1.41D-02 DXNew= 8.4853D-01 4.2346D-02
 Trust test= 9.81D-01 RLast= 1.41D-02 DXMaxT set to 5.05D-01
 ITU=  1  1  1  0
 Use linear search instead of GDIIS.
     Eigenvalues ---    0.00736   0.00737   0.01676   0.01676   0.02942
     Eigenvalues ---    0.07155   0.07156   0.07285   0.07402   0.14798
     Eigenvalues ---    0.15985   0.16000   0.16000   0.16000   0.16000
     Eigenvalues ---    0.16000   0.16753   0.22000   0.22345   0.32145
     Eigenvalues ---    0.33802   0.33818   0.33822   0.33825   0.34188
     Eigenvalues ---    0.34432   0.34569   0.35985   0.45679   0.76472
 RFO step:  Lambda=-9.50491689D-07 EMin= 7.36098875D-03
 Quartic linear search produced a step of -0.02876.
 Iteration  1 RMS(Cart)=  0.00041168 RMS(Int)=  0.00000008
 Iteration  2 RMS(Cart)=  0.00000009 RMS(Int)=  0.00000001
 Variable       Old X    -DE/DX   Delta X   Delta X   Delta X     New X
                                 (Linear)    (Quad)   (Total)
    R1        2.52451   0.00058   0.00015   0.00072   0.00088   2.52538
    R2        2.78873  -0.00014   0.00015  -0.00060  -0.00046   2.78827
    R3        2.08440   0.00006   0.00007   0.00005   0.00012   2.08452
    R4        2.78872  -0.00014   0.00014  -0.00060  -0.00046   2.78827
    R5        2.08440   0.00006   0.00007   0.00005   0.00012   2.08452
    R6        2.11173   0.00009   0.00012   0.00006   0.00018   2.11190
    R7        2.11492   0.00002   0.00010  -0.00008   0.00002   2.11494
    R8        2.11496   0.00002   0.00010  -0.00008   0.00002   2.11498
    R9        2.11495   0.00002   0.00010  -0.00008   0.00002   2.11497
   R10        2.11494   0.00002   0.00010  -0.00008   0.00002   2.11496
   R11        2.11173   0.00009   0.00012   0.00006   0.00018   2.11190
    A1        2.16300   0.00002   0.00002   0.00005   0.00008   2.16308
    A2        2.11058   0.00008  -0.00000   0.00050   0.00050   2.11108
    A3        2.00960  -0.00010  -0.00002  -0.00055  -0.00058   2.00902
    A4        2.16301   0.00002   0.00002   0.00005   0.00008   2.16308
    A5        2.11057   0.00008  -0.00000   0.00050   0.00050   2.11108
    A6        2.00961  -0.00010  -0.00002  -0.00056  -0.00058   2.00902
    A7        1.95381   0.00004   0.00001   0.00018   0.00019   1.95400
    A8        1.92096  -0.00000  -0.00004   0.00010   0.00007   1.92103
    A9        1.92081  -0.00000  -0.00004   0.00011   0.00007   1.92089
   A10        1.89078  -0.00003   0.00004  -0.00041  -0.00037   1.89040
   A11        1.89073  -0.00003   0.00004  -0.00041  -0.00037   1.89036
   A12        1.88506   0.00004  -0.00001   0.00042   0.00041   1.88548
   A13        1.92087  -0.00000  -0.00004   0.00011   0.00007   1.92094
   A14        1.92090  -0.00000  -0.00004   0.00011   0.00007   1.92097
   A15        1.95381   0.00004   0.00001   0.00018   0.00019   1.95400
   A16        1.88507   0.00004  -0.00001   0.00042   0.00041   1.88548
   A17        1.89075  -0.00004   0.00004  -0.00041  -0.00037   1.89038
   A18        1.89076  -0.00003   0.00004  -0.00041  -0.00037   1.89039
    D1        3.14144   0.00000   0.00000   0.00003   0.00003   3.14147
    D2       -0.00000   0.00000   0.00000   0.00002   0.00002   0.00002
    D3       -0.00019   0.00000  -0.00000   0.00001   0.00000  -0.00019
    D4        3.14155   0.00000  -0.00000  -0.00000  -0.00000   3.14155
    D5        2.10265  -0.00002   0.00003  -0.00024  -0.00022   2.10244
    D6       -2.10491   0.00002  -0.00003   0.00041   0.00038  -2.10453
    D7       -0.00111   0.00000  -0.00000   0.00008   0.00008  -0.00103
    D8       -1.03890  -0.00002   0.00003  -0.00022  -0.00019  -1.03909
    D9        1.03672   0.00002  -0.00003   0.00043   0.00040   1.03712
   D10        3.14052   0.00000  -0.00000   0.00011   0.00011   3.14062
   D11        0.00428  -0.00000   0.00000  -0.00036  -0.00035   0.00393
   D12        2.10814  -0.00002   0.00003  -0.00069  -0.00065   2.10749
   D13       -2.09942   0.00002  -0.00002  -0.00004  -0.00006  -2.09948
   D14       -3.13745  -0.00000   0.00000  -0.00035  -0.00034  -3.13780
   D15       -1.03359  -0.00002   0.00003  -0.00068  -0.00065  -1.03424
   D16        1.04203   0.00002  -0.00002  -0.00003  -0.00005   1.04198
         Item               Value     Threshold  Converged?
 Maximum Force            0.000579     0.000450     NO 
 RMS     Force            0.000100     0.000300     YES
 Maximum Displacement     0.001414     0.001800     YES
 RMS     Displacement     0.000412     0.001200     YES
 Predicted change in Energy=-5.161526D-07
 GradGradGradGradGradGradGradGradGradGradGradGradGradGradGradGradGradGrad

                          Input orientation:                          
 ---------------------------------------------------------------------
 Center     Atomic      Atomic             Coordinates (Angstroms)
 Number     Number       Type             X           Y           Z
 ---------------------------------------------------------------------
      1          6           0        1.973166    0.921085    0.877023
      2          6           0        2.952692    1.664541    1.400189
      3          6           0        4.386719    1.336907    1.284922
      4          6           0        0.539130    1.248642    0.992414
      5          1           0        2.198875   -0.001762    0.316493
      6          1           0        2.726984    2.587411    1.960681
      7          1           0        4.555175    0.396384    0.705261
      8          1           0        4.930619    2.169020    0.770798
      9          1           0        4.833930    1.207519    2.302699
     10          1           0        0.091096    1.375081   -0.025362
     11          1           0       -0.004114    0.417775    1.509256
     12          1           0        0.370827    2.190696    1.569626
 ---------------------------------------------------------------------
                    Distance matrix (angstroms):
                    1          2          3          4          5
     1  C    0.000000
     2  C    1.336376   0.000000
     3  C    2.482847   1.475488   0.000000
     4  C    1.475489   2.482847   3.859701   0.000000
     5  H    1.103079   2.125841   2.741633   2.185207   0.000000
     6  H    2.125841   1.103080   2.185208   2.741632   3.112245
     7  H    2.640376   2.158495   1.117572   4.115509   2.421118
     8  H    3.211721   2.136077   1.119179   4.492369   3.518680
     9  H    3.209138   2.135990   1.119200   4.490416   3.514383
    10  H    2.136024   3.210096   4.491178   1.119192   2.540727
    11  H    2.136042   3.210767   4.491608   1.119187   2.540050
    12  H    2.158495   2.640374   4.115508   1.117572   3.117527
                    6          7          8          9         10
     6  H    0.000000
     7  H    3.117525   0.000000
     8  H    2.539070   1.813144   0.000000
     9  H    2.541712   1.813133   1.811230   0.000000
    10  H    3.515966   4.628138   4.968419   5.286059   0.000000
    11  H    3.517102   4.629685   5.288077   4.965875   1.811230
    12  H    2.421112   4.634161   4.629287   4.628533   1.813137
                   11         12
    11  H    0.000000
    12  H    1.813140   0.000000
 Stoichiometry    C4H8
 Framework group  C1[X(C4H8)]
 Deg. of freedom    30
 Full point group                 C1      NOp   1
 Largest Abelian subgroup         C1      NOp   1
 Largest concise Abelian subgroup C1      NOp   1
                         Standard orientation:                         
 ---------------------------------------------------------------------
 Center     Atomic      Atomic             Coordinates (Angstroms)
 Number     Number       Type             X           Y           Z
 ---------------------------------------------------------------------
      1          6           0       -0.534690   -0.400726   -0.000026
      2          6           0        0.534690    0.400727   -0.000075
      3          6           0        1.927983   -0.084865    0.000015
      4          6           0       -1.927984    0.084865    0.000032
      5          1           0       -0.421415   -1.497974   -0.000089
      6          1           0        0.421414    1.497975   -0.000055
      7          1           0        1.981436   -1.201150   -0.003944
      8          1           0        2.467518    0.296217   -0.903446
      9          1           0        2.464956    0.289634    0.907770
     10          1           0       -2.465952   -0.292047   -0.906123
     11          1           0       -2.466524   -0.293813    0.905106
     12          1           0       -1.981435    1.201157    0.001098
 ---------------------------------------------------------------------
 Rotational constants (GHZ):     33.4533951      3.8236194      3.5927218
 Standard basis: VSTO-6G (5D, 7F)
 There are    24 symmetry adapted cartesian basis functions of A   symmetry.
 There are    24 symmetry adapted basis functions of A   symmetry.
    24 basis functions,   144 primitive gaussians,    24 cartesian basis functions
    12 alpha electrons       12 beta electrons
       nuclear repulsion energy        78.8583562646 Hartrees.
 Integral buffers will be    131072 words long.
 Regular integral format.
 Two-electron integral symmetry is turned off.
 Do NDO integrals.
 One-electron integrals computed using PRISM.
 NBasis=    24 RedAO= F EigKep=  0.00D+00  NBF=    24
 NBsUse=    24 1.00D-04 EigRej=  0.00D+00 NBFU=    24
 Initial guess from the checkpoint file:  "2-butene-E-opt.chk"
 B after Tr=    -0.000000    0.000000   -0.000000
         Rot=    1.000000    0.000052   -0.000003    0.000045 Ang=   0.01 deg.
 Overlap will be assumed to be unity.
 Keep J ints in memory in canonical form, NReq=889405.
 Requested convergence on RMS density matrix=1.00D-08 within 128 cycles.
 Requested convergence on MAX density matrix=1.00D-06.
 Requested convergence on             energy=1.00D-06.
 No special actions if energy rises.
 SCF Done:  E(RAM1) = -0.545188425630E-02 A.U. after    8 cycles
            NFock=  7  Conv=0.41D-08     -V/T= 0.9996
 Calling FoFJK, ICntrl=      2127 FMM=F ISym2X=0 I1Cent= 0 IOpClX= 0 NMat=1 NMatS=1 NMatT=0.
 ***** Axes restored to original set *****
 -------------------------------------------------------------------
 Center     Atomic                   Forces (Hartrees/Bohr)
 Number     Number              X              Y              Z
 -------------------------------------------------------------------
      1        6           0.000132398    0.000075883    0.000050171
      2        6          -0.000132697   -0.000074005   -0.000052963
      3        6          -0.000010453    0.000028107    0.000018293
      4        6           0.000010842   -0.000028901   -0.000017333
      5        1           0.000012763    0.000001891    0.000001440
      6        1          -0.000012856   -0.000003720    0.000001453
      7        1           0.000021113   -0.000041803   -0.000022339
      8        1           0.000008909    0.000008936   -0.000022763
      9        1           0.000007779   -0.000012199    0.000017639
     10        1          -0.000007227    0.000013962   -0.000018111
     11        1          -0.000009388   -0.000009250    0.000020941
     12        1          -0.000021184    0.000041099    0.000023574
 -------------------------------------------------------------------
 Cartesian Forces:  Max     0.000132697 RMS     0.000041601

 GradGradGradGradGradGradGradGradGradGradGradGradGradGradGradGradGradGrad
 Berny optimization.
 Using GEDIIS/GDIIS optimizer.
 FormGI is forming the generalized inverse of G from B-inverse, IUseBI=4.
 Internal  Forces:  Max     0.000163070 RMS     0.000028895
 Search for a local minimum.
 Step number   5 out of a maximum of   55
 All quantities printed in internal units (Hartrees-Bohrs-Radians)
 Mixed Optimization -- En-DIIS/RFO-DIIS
 Swapping is turned off.
 Update second derivatives using D2CorX and points    1    2    3    4    5
 DE= -4.48D-07 DEPred=-5.16D-07 R= 8.68D-01
 Trust test= 8.68D-01 RLast= 2.23D-03 DXMaxT set to 5.05D-01
 ITU=  0  1  1  1  0
     Eigenvalues ---    0.00729   0.00736   0.01677   0.01677   0.02942
     Eigenvalues ---    0.06832   0.07155   0.07155   0.07400   0.13867
     Eigenvalues ---    0.16000   0.16000   0.16000   0.16000   0.16000
     Eigenvalues ---    0.16170   0.16979   0.22000   0.22404   0.32145
     Eigenvalues ---    0.33691   0.33818   0.33822   0.33825   0.34188
     Eigenvalues ---    0.34541   0.34569   0.35234   0.51305   0.85948
 En-DIIS/RFO-DIIS IScMMF=        0 using points:     5    4
 RFO step:  Lambda=-4.94983532D-08.
 DidBck=F Rises=F RFO-DIIS coefs:    0.88320    0.11680
 Iteration  1 RMS(Cart)=  0.00015133 RMS(Int)=  0.00000001
 Iteration  2 RMS(Cart)=  0.00000002 RMS(Int)=  0.00000000
 Variable       Old X    -DE/DX   Delta X   Delta X   Delta X     New X
                                 (Linear)    (Quad)   (Total)
    R1        2.52538  -0.00016  -0.00010  -0.00009  -0.00020   2.52519
    R2        2.78827   0.00003   0.00005   0.00000   0.00005   2.78832
    R3        2.08452   0.00000  -0.00001   0.00003   0.00001   2.08453
    R4        2.78827   0.00003   0.00005   0.00000   0.00005   2.78832
    R5        2.08452   0.00000  -0.00001   0.00003   0.00001   2.08453
    R6        2.11190   0.00005  -0.00002   0.00017   0.00015   2.11205
    R7        2.11494   0.00002  -0.00000   0.00007   0.00006   2.11501
    R8        2.11498   0.00002  -0.00000   0.00006   0.00006   2.11504
    R9        2.11497   0.00002  -0.00000   0.00007   0.00006   2.11503
   R10        2.11496   0.00002  -0.00000   0.00007   0.00006   2.11502
   R11        2.11190   0.00005  -0.00002   0.00017   0.00015   2.11205
    A1        2.16308  -0.00001  -0.00001  -0.00002  -0.00003   2.16306
    A2        2.11108  -0.00001  -0.00006   0.00004  -0.00002   2.11106
    A3        2.00902   0.00002   0.00007  -0.00002   0.00005   2.00907
    A4        2.16308  -0.00001  -0.00001  -0.00002  -0.00003   2.16306
    A5        2.11108  -0.00001  -0.00006   0.00004  -0.00002   2.11106
    A6        2.00902   0.00002   0.00007  -0.00002   0.00005   2.00907
    A7        1.95400   0.00002  -0.00002   0.00012   0.00009   1.95409
    A8        1.92103  -0.00000  -0.00001   0.00001   0.00001   1.92104
    A9        1.92089   0.00000  -0.00001   0.00003   0.00002   1.92090
   A10        1.89040  -0.00001   0.00004  -0.00016  -0.00012   1.89029
   A11        1.89036  -0.00001   0.00004  -0.00016  -0.00011   1.89025
   A12        1.88548   0.00001  -0.00005   0.00015   0.00011   1.88558
   A13        1.92094   0.00000  -0.00001   0.00002   0.00001   1.92096
   A14        1.92097   0.00000  -0.00001   0.00002   0.00001   1.92098
   A15        1.95400   0.00002  -0.00002   0.00012   0.00009   1.95409
   A16        1.88548   0.00001  -0.00005   0.00015   0.00011   1.88558
   A17        1.89038  -0.00001   0.00004  -0.00016  -0.00011   1.89026
   A18        1.89039  -0.00001   0.00004  -0.00016  -0.00011   1.89027
    D1        3.14147   0.00000  -0.00000   0.00001   0.00000   3.14148
    D2        0.00002   0.00000  -0.00000   0.00000  -0.00000   0.00002
    D3       -0.00019   0.00000  -0.00000   0.00002   0.00002  -0.00017
    D4        3.14155   0.00000   0.00000   0.00001   0.00001   3.14156
    D5        2.10244  -0.00000   0.00003  -0.00001   0.00001   2.10245
    D6       -2.10453   0.00001  -0.00004   0.00020   0.00016  -2.10437
    D7       -0.00103   0.00000  -0.00001   0.00009   0.00009  -0.00094
    D8       -1.03909  -0.00000   0.00002  -0.00002   0.00000  -1.03909
    D9        1.03712   0.00000  -0.00005   0.00020   0.00015   1.03727
   D10        3.14062   0.00000  -0.00001   0.00009   0.00008   3.14070
   D11        0.00393  -0.00000   0.00004  -0.00034  -0.00030   0.00362
   D12        2.10749  -0.00001   0.00008  -0.00046  -0.00038   2.10711
   D13       -2.09948   0.00000   0.00001  -0.00024  -0.00024  -2.09972
   D14       -3.13780  -0.00000   0.00004  -0.00034  -0.00030  -3.13810
   D15       -1.03424  -0.00001   0.00008  -0.00045  -0.00038  -1.03461
   D16        1.04198   0.00000   0.00001  -0.00024  -0.00023   1.04175
         Item               Value     Threshold  Converged?
 Maximum Force            0.000163     0.000450     YES
 RMS     Force            0.000029     0.000300     YES
 Maximum Displacement     0.000492     0.001800     YES
 RMS     Displacement     0.000151     0.001200     YES
 Predicted change in Energy=-3.754111D-08
 Optimization completed.
    -- Stationary point found.
                           ----------------------------
                           !   Optimized Parameters   !
                           ! (Angstroms and Degrees)  !
 --------------------------                            --------------------------
 ! Name  Definition              Value          Derivative Info.                !
 --------------------------------------------------------------------------------
 ! R1    R(1,2)                  1.3364         -DE/DX =   -0.0002              !
 ! R2    R(1,4)                  1.4755         -DE/DX =    0.0                 !
 ! R3    R(1,5)                  1.1031         -DE/DX =    0.0                 !
 ! R4    R(2,3)                  1.4755         -DE/DX =    0.0                 !
 ! R5    R(2,6)                  1.1031         -DE/DX =    0.0                 !
 ! R6    R(3,7)                  1.1176         -DE/DX =    0.0                 !
 ! R7    R(3,8)                  1.1192         -DE/DX =    0.0                 !
 ! R8    R(3,9)                  1.1192         -DE/DX =    0.0                 !
 ! R9    R(4,10)                 1.1192         -DE/DX =    0.0                 !
 ! R10   R(4,11)                 1.1192         -DE/DX =    0.0                 !
 ! R11   R(4,12)                 1.1176         -DE/DX =    0.0001              !
 ! A1    A(2,1,4)              123.9356         -DE/DX =    0.0                 !
 ! A2    A(2,1,5)              120.9559         -DE/DX =    0.0                 !
 ! A3    A(4,1,5)              115.1086         -DE/DX =    0.0                 !
 ! A4    A(1,2,3)              123.9356         -DE/DX =    0.0                 !
 ! A5    A(1,2,6)              120.9558         -DE/DX =    0.0                 !
 ! A6    A(3,2,6)              115.1086         -DE/DX =    0.0                 !
 ! A7    A(2,3,7)              111.9558         -DE/DX =    0.0                 !
 ! A8    A(2,3,8)              110.0668         -DE/DX =    0.0                 !
 ! A9    A(2,3,9)              110.0587         -DE/DX =    0.0                 !
 ! A10   A(7,3,8)              108.3121         -DE/DX =    0.0                 !
 ! A11   A(7,3,9)              108.3097         -DE/DX =    0.0                 !
 ! A12   A(8,3,9)              108.0299         -DE/DX =    0.0                 !
 ! A13   A(1,4,10)             110.0618         -DE/DX =    0.0                 !
 ! A14   A(1,4,11)             110.0635         -DE/DX =    0.0                 !
 ! A15   A(1,4,12)             111.9559         -DE/DX =    0.0                 !
 ! A16   A(10,4,11)            108.0299         -DE/DX =    0.0                 !
 ! A17   A(10,4,12)            108.3106         -DE/DX =    0.0                 !
 ! A18   A(11,4,12)            108.3112         -DE/DX =    0.0                 !
 ! D1    D(4,1,2,3)            179.9931         -DE/DX =    0.0                 !
 ! D2    D(4,1,2,6)              0.0011         -DE/DX =    0.0                 !
 ! D3    D(5,1,2,3)             -0.0107         -DE/DX =    0.0                 !
 ! D4    D(5,1,2,6)            179.9973         -DE/DX =    0.0                 !
 ! D5    D(2,1,4,10)           120.4609         -DE/DX =    0.0                 !
 ! D6    D(2,1,4,11)          -120.5808         -DE/DX =    0.0                 !
 ! D7    D(2,1,4,12)            -0.059          -DE/DX =    0.0                 !
 ! D8    D(5,1,4,10)           -59.5356         -DE/DX =    0.0                 !
 ! D9    D(5,1,4,11)            59.4228         -DE/DX =    0.0                 !
 ! D10   D(5,1,4,12)           179.9446         -DE/DX =    0.0                 !
 ! D11   D(1,2,3,7)              0.2251         -DE/DX =    0.0                 !
 ! D12   D(1,2,3,8)            120.7502         -DE/DX =    0.0                 !
 ! D13   D(1,2,3,9)           -120.2914         -DE/DX =    0.0                 !
 ! D14   D(6,2,3,7)           -179.7825         -DE/DX =    0.0                 !
 ! D15   D(6,2,3,8)            -59.2574         -DE/DX =    0.0                 !
 ! D16   D(6,2,3,9)             59.701          -DE/DX =    0.0                 !
 --------------------------------------------------------------------------------
 GradGradGradGradGradGradGradGradGradGradGradGradGradGradGradGradGradGrad

                          Input orientation:                          
 ---------------------------------------------------------------------
 Center     Atomic      Atomic             Coordinates (Angstroms)
 Number     Number       Type             X           Y           Z
 ---------------------------------------------------------------------
      1          6           0        1.973166    0.921085    0.877023
      2          6           0        2.952692    1.664541    1.400189
      3          6           0        4.386719    1.336907    1.284922
      4          6           0        0.539130    1.248642    0.992414
      5          1           0        2.198875   -0.001762    0.316493
      6          1           0        2.726984    2.587411    1.960681
      7          1           0        4.555175    0.396384    0.705261
      8          1           0        4.930619    2.169020    0.770798
      9          1           0        4.833930    1.207519    2.302699
     10          1           0        0.091096    1.375081   -0.025362
     11          1           0       -0.004114    0.417775    1.509256
     12          1           0        0.370827    2.190696    1.569626
 ---------------------------------------------------------------------
                    Distance matrix (angstroms):
                    1          2          3          4          5
     1  C    0.000000
     2  C    1.336376   0.000000
     3  C    2.482847   1.475488   0.000000
     4  C    1.475489   2.482847   3.859701   0.000000
     5  H    1.103079   2.125841   2.741633   2.185207   0.000000
     6  H    2.125841   1.103080   2.185208   2.741632   3.112245
     7  H    2.640376   2.158495   1.117572   4.115509   2.421118
     8  H    3.211721   2.136077   1.119179   4.492369   3.518680
     9  H    3.209138   2.135990   1.119200   4.490416   3.514383
    10  H    2.136024   3.210096   4.491178   1.119192   2.540727
    11  H    2.136042   3.210767   4.491608   1.119187   2.540050
    12  H    2.158495   2.640374   4.115508   1.117572   3.117527
                    6          7          8          9         10
     6  H    0.000000
     7  H    3.117525   0.000000
     8  H    2.539070   1.813144   0.000000
     9  H    2.541712   1.813133   1.811230   0.000000
    10  H    3.515966   4.628138   4.968419   5.286059   0.000000
    11  H    3.517102   4.629685   5.288077   4.965875   1.811230
    12  H    2.421112   4.634161   4.629287   4.628533   1.813137
                   11         12
    11  H    0.000000
    12  H    1.813140   0.000000
 Stoichiometry    C4H8
 Framework group  C1[X(C4H8)]
 Deg. of freedom    30
 Full point group                 C1      NOp   1
 Largest Abelian subgroup         C1      NOp   1
 Largest concise Abelian subgroup C1      NOp   1
                         Standard orientation:                         
 ---------------------------------------------------------------------
 Center     Atomic      Atomic             Coordinates (Angstroms)
 Number     Number       Type             X           Y           Z
[...]
                             1988.59  1991.35  1993.89  1994.00  2075.00
                             2103.43  2727.33  4378.52  4378.60  4393.83
                             4393.87  4522.33  4524.74  4540.02  4565.58
 
 Zero-point correction=                           0.108372 (Hartree/Particle)
 Thermal correction to Energy=                    0.114127
 Thermal correction to Enthalpy=                  0.115071
 Thermal correction to Gibbs Free Energy=         0.080096
 Sum of electronic and zero-point Energies=              0.102920
 Sum of electronic and thermal Energies=                 0.108675
 Sum of electronic and thermal Enthalpies=               0.109620
 Sum of electronic and thermal Free Energies=            0.074644
 
                     E (Thermal)             CV                S
                      KCal/Mol        Cal/Mol-Kelvin    Cal/Mol-Kelvin
 Total                   71.616             18.111             73.612
 Electronic               0.000              0.000              0.000
 Translational            0.889              2.981             37.993
 Rotational               0.889              2.981             24.062
 Vibrational             69.838             12.150             11.556
 Vibration     1          0.601              1.957              3.695
 Vibration     2          0.608              1.937              3.189
 Vibration     3          0.654              1.790              1.852
 Vibration     4          0.693              1.673              1.414
 Vibration     5          0.899              1.154              0.557
                       Q            Log10(Q)             Ln(Q)
 Total Bot       0.144033D-36        -36.841538        -84.830776
 Total V=0       0.101357D+14         13.005853         29.947083
 Vib (Bot)       0.215624D-48        -48.666302       -112.058303
 Vib (Bot)    1  0.232624D+01          0.366654          0.844253
 Vib (Bot)    2  0.178524D+01          0.251697          0.579554
 Vib (Bot)    3  0.842302D+00         -0.074532         -0.171617
 Vib (Bot)    4  0.632465D+00         -0.198963         -0.458130
 Vib (Bot)    5  0.290415D+00         -0.536981         -1.236443
 Vib (V=0)       0.151736D+02          1.181088          2.719556
 Vib (V=0)    1  0.287937D+01          0.459297          1.057570
 Vib (V=0)    2  0.235394D+01          0.371795          0.856090
 Vib (V=0)    3  0.147953D+01          0.170123          0.391722
 Vib (V=0)    4  0.130623D+01          0.116021          0.267148
 Vib (V=0)    5  0.107822D+01          0.032708          0.075314
 Electronic      0.100000D+01          0.000000          0.000000
 Translational   0.164993D+08          7.217465         16.618827
 Rotational      0.404855D+05          4.607300         10.608699
 ***** Axes restored to original set *****
 -------------------------------------------------------------------
 Center     Atomic                   Forces (Hartrees/Bohr)
 Number     Number              X              Y              Z
 -------------------------------------------------------------------
      1        6           0.000132398    0.000075883    0.000050171
      2        6          -0.000132697   -0.000074005   -0.000052964
      3        6          -0.000010452    0.000028107    0.000018293
      4        6           0.000010842   -0.000028901   -0.000017333
      5        1           0.000012762    0.000001891    0.000001439
      6        1          -0.000012856   -0.000003720    0.000001453
      7        1           0.000021113   -0.000041803   -0.000022339
      8        1           0.000008909    0.000008936   -0.000022763
      9        1           0.000007779   -0.000012199    0.000017640
     10        1          -0.000007227    0.000013962   -0.000018111
     11        1          -0.000009388   -0.000009250    0.000020941
     12        1          -0.000021184    0.000041099    0.000023574
 -------------------------------------------------------------------
 Cartesian Forces:  Max     0.000132697 RMS     0.000041601
 FormGI is forming the generalized inverse of G from B-inverse, IUseBI=4.

 GradGradGradGradGradGradGradGradGradGradGradGradGradGradGradGradGradGrad
 Berny optimization.
 Internal  Forces:  Max     0.000163070 RMS     0.000028895
 Search for a local minimum.
 Step number   1 out of a maximum of    2
 All quantities printed in internal units (Hartrees-Bohrs-Radians)
 Second derivative matrix not updated -- analytic derivatives used.
 ITU=  0
     Eigenvalues ---    0.00061   0.00061   0.01944   0.02139   0.02675
     Eigenvalues ---    0.05741   0.05767   0.05890   0.05891   0.11331
     Eigenvalues ---    0.12015   0.13112   0.13234   0.13321   0.13574
     Eigenvalues ---    0.14497   0.14761   0.15885   0.16230   0.32843
     Eigenvalues ---    0.32881   0.33129   0.33131   0.35874   0.35976
     Eigenvalues ---    0.36419   0.36540   0.50372   0.52055   0.84294
 Angle between quadratic step and forces=  86.04 degrees.
 Linear search not attempted -- first point.
 Iteration  1 RMS(Cart)=  0.00159339 RMS(Int)=  0.00000174
 Iteration  2 RMS(Cart)=  0.00000187 RMS(Int)=  0.00000000
 Iteration  3 RMS(Cart)=  0.00000000 RMS(Int)=  0.00000000
 Variable       Old X    -DE/DX   Delta X   Delta X   Delta X     New X
                                 (Linear)    (Quad)   (Total)
    R1        2.52538  -0.00016   0.00000  -0.00020  -0.00020   2.52518
    R2        2.78827   0.00003   0.00000   0.00006   0.00006   2.78833
    R3        2.08452   0.00000   0.00000   0.00001   0.00001   2.08453
    R4        2.78827   0.00003   0.00000   0.00006   0.00006   2.78833
    R5        2.08452   0.00000   0.00000   0.00001   0.00001   2.08453
    R6        2.11190   0.00005   0.00000   0.00015   0.00015   2.11206
    R7        2.11494   0.00002   0.00000   0.00006   0.00006   2.11501
    R8        2.11498   0.00002   0.00000   0.00003   0.00003   2.11501
    R9        2.11497   0.00002   0.00000   0.00004   0.00004   2.11501
   R10        2.11496   0.00002   0.00000   0.00005   0.00005   2.11501
   R11        2.11190   0.00005   0.00000   0.00015   0.00015   2.11206
    A1        2.16308  -0.00001   0.00000  -0.00001  -0.00001   2.16307
    A2        2.11108  -0.00001   0.00000  -0.00004  -0.00004   2.11104
    A3        2.00902   0.00002   0.00000   0.00005   0.00005   2.00908
    A4        2.16308  -0.00001   0.00000  -0.00001  -0.00001   2.16307
    A5        2.11108  -0.00001   0.00000  -0.00004  -0.00004   2.11104
    A6        2.00902   0.00002   0.00000   0.00005   0.00005   2.00908
    A7        1.95400   0.00002   0.00000   0.00008   0.00008   1.95408
    A8        1.92103  -0.00000   0.00000  -0.00006  -0.00006   1.92097
    A9        1.92089   0.00000   0.00000   0.00009   0.00009   1.92097
   A10        1.89040  -0.00001   0.00000  -0.00015  -0.00015   1.89025
   A11        1.89036  -0.00001   0.00000  -0.00011  -0.00011   1.89025
   A12        1.88548   0.00001   0.00000   0.00015   0.00015   1.88562
   A13        1.92094   0.00000   0.00000   0.00003   0.00003   1.92097
   A14        1.92097   0.00000   0.00000   0.00000   0.00000   1.92097
   A15        1.95400   0.00002   0.00000   0.00008   0.00008   1.95408
   A16        1.88548   0.00001   0.00000   0.00015   0.00015   1.88562
   A17        1.89038  -0.00001   0.00000  -0.00012  -0.00012   1.89025
   A18        1.89039  -0.00001   0.00000  -0.00013  -0.00013   1.89025
    D1        3.14147   0.00000   0.00000   0.00012   0.00012   3.14159
    D2        0.00002   0.00000   0.00000  -0.00002  -0.00002  -0.00000
    D3       -0.00019   0.00000   0.00000   0.00019   0.00019   0.00000
    D4        3.14155   0.00000   0.00000   0.00005   0.00005   3.14159
    D5        2.10244  -0.00000   0.00000   0.00095   0.00095   2.10339
    D6       -2.10453   0.00001   0.00000   0.00115   0.00115  -2.10338
    D7       -0.00103   0.00000   0.00000   0.00103   0.00103   0.00000
    D8       -1.03909  -0.00000   0.00000   0.00088   0.00088  -1.03821
    D9        1.03712   0.00000   0.00000   0.00108   0.00108   1.03821
   D10        3.14062   0.00000   0.00000   0.00097   0.00097  -3.14159
   D11        0.00393  -0.00000   0.00000  -0.00393  -0.00393  -0.00000
   D12        2.10749  -0.00001   0.00000  -0.00410  -0.00410   2.10339
   D13       -2.09948   0.00000   0.00000  -0.00390  -0.00390  -2.10339
   D14       -3.13780  -0.00000   0.00000  -0.00380  -0.00380   3.14159
   D15       -1.03424  -0.00001   0.00000  -0.00397  -0.00397  -1.03821
   D16        1.04198   0.00000   0.00000  -0.00377  -0.00377   1.03821
         Item               Value     Threshold  Converged?
 Maximum Force            0.000163     0.000450     YES
 RMS     Force            0.000029     0.000300     YES
 Maximum Displacement     0.004649     0.001800     NO 
 RMS     Displacement     0.001593     0.001200     NO 
 Predicted change in Energy=-6.642269D-08
 GradGradGradGradGradGradGradGradGradGradGradGradGradGradGradGradGradGrad

 1\1\GINC-GTX1080DELTA\Freq\RAM1\ZDO\C4H8\MVEROT\16-Apr-2022\0\\#N Geom
 =AllCheck Guess=TCheck SCRF=Check GenChk RAM1/ZDO Freq\\Optimisation d
 e geometrie\\0,1\C,1.9731661451,0.9210852591,0.8770226486\C,2.95269187
 2,1.6645413892,1.4001885491\C,4.3867192739,1.3369066141,1.2849220961\C
 ,0.539130454,1.2486419553,0.9924141922\H,2.1988749462,-0.0017617526,0.
 3164931569\H,2.7269842684,2.5874114353,1.9606807722\H,4.5551752482,0.3
 963842188,0.7052612862\H,4.9306186819,2.1690199396,0.7707981532\H,4.83
 39299252,1.2075186078,2.3026990214\H,0.0910958507,1.3750812009,-0.0253
 623046\H,-0.0041136972,0.4177748672,1.509256225\H,0.3708270317,2.19069
 62654,1.5696262036\\Version=AM64L-G09RevD.01\State=1-A\HF=-0.0054519\R
 MSD=2.883e-10\RMSF=4.160e-05\ZeroPoint=0.1083716\Thermal=0.1141273\Dip
 ole=-0.0000078,-0.0000786,0.0001246\DipoleDeriv=0.0272393,0.0107712,0.
 0232055,-0.0430935,-0.1463579,0.055809,-0.0102019,0.0593113,-0.2041382
 ,0.0272149,0.0106805,0.0233372,-0.0432533,-0.1463722,0.0557041,-0.0099
 403,0.0594144,-0.2041,-0.0578915,-0.0036158,-0.0054073,-0.0414339,-0.0
 735982,-0.0418531,-0.0295428,-0.0400076,-0.036803,-0.0579266,-0.003709
 6,-0.0052771,-0.041694,-0.0736143,-0.0420111,-0.0291188,-0.0398558,-0.
 0367532,0.0001464,-0.0002989,-0.008493,0.0465855,0.1163053,-0.0090614,
 0.0206579,-0.0119926,0.1293215,0.0001445,-0.0003248,-0.0084572,0.04659
 05,0.1162856,-0.0090812,0.0206503,-0.0119549,0.1293435,0.0212694,0.007
 6112,0.0035385,-0.0002014,0.0184723,-0.0134813,-0.0011773,-0.0129087,0
 .0318284,0.0048623,-0.0101466,-0.0015645,0.0226186,0.0377212,0.0123462
 ,0.0033655,-0.000549,0.0446343,0.0043992,-0.0042118,-0.0114393,0.01567
 5,0.0474764,-0.0036376,0.0166529,0.0060229,0.0351138,0.0045056,-0.0041
 74,-0.0114132,0.0157237,0.0474645,-0.0036821,0.0165975,0.0059723,0.035
 1079,0.0047639,-0.0101816,-0.001591,0.0226528,0.0377662,0.0123853,0.00
 3293,-0.00052,0.0445997,0.021272,0.0075986,0.0035604,-0.0001684,0.0184
 52,-0.0134367,-0.001235,-0.0129321,0.0318463\Polar=49.0025108,8.621404
 5,32.7199957,7.1096386,7.8800087,26.2656606\HyperPolar=0.006523,0.0234
 855,0.0199899,0.0988599,-0.0329889,-0.0016128,0.0203365,-0.0258318,-0.
 1179832,0.0057495\PG=C01 [X(C4H8)]\NImag=0\\0.86917290,0.13544727,0.58
 310243,0.12816507,0.27276812,0.33600498,-0.37302535,-0.23246683,-0.164
 08014,0.86917019,-0.23246790,-0.25372452,-0.13566154,0.13542888,0.5831
 1957,-0.16407837,-0.13566119,-0.15337384,0.12819528,0.27275835,0.33599
 122,-0.06107428,-0.00681916,-0.00833831,-0.30905922,0.05972939,0.02236
 863,0.60210199,-0.01948327,0.00596567,-0.00074541,0.06195153,-0.083040
 38,-0.00456180,-0.01843716,0.51959849,-0.01623492,0.00002955,0.0042342
 6,0.02381752,-0.00469901,-0.07101111,-0.00474071,0.01646757,0.50129656
 ,-0.30905862,0.05971604,0.02239003,-0.06107487,-0.00682081,-0.00833673
 ,-0.00010133,-0.00093936,-0.00123155,0.60209412,0.06196069,-0.08303509
 ,-0.00456437,-0.01948957,0.00595850,-0.00074537,-0.00093763,0.00162032
 ,-0.00556308,-0.01846907,0.51960713,0.02380335,-0.00470183,-0.07101605
 ,-0.01622539,0.00003597,0.00424210,-0.00123453,-0.00556542,0.00692063,
 -0.00468922,0.01646165,0.50129517,-0.04843352,0.04687123,0.02891487,0.
 00263807,-0.02156459,-0.01374075,-0.00024163,-0.00090670,-0.00034602,-
 0.01638039,0.02610237,0.01478950,0.06894866,0.04481930,-0.22755767,-0.
 11138490,-0.00565214,-0.02317049,-0.01961548,-0.00036710,-0.00076204,0
 .00187693,0.01232103,-0.00842761,-0.00901441,-0.05094832,0.25784914,0.
 02763595,-0.11126034,-0.11173137,-0.00383106,-0.02059456,-0.00527584,-
 0.00001050,0.00184355,-0.00266274,0.00621132,-0.00816106,0.00257783,-0
 .02891970,0.14267717,0.11061779,0.00263827,-0.02156496,-0.01374005,-0.
 04843314,0.04687329,0.02891076,-0.01638058,0.02610109,0.01479049,-0.00
 024176,-0.00090717,-0.00034518,-0.00191936,-0.00087799,-0.00119135,0.0
 6894868,-0.00564999,-0.02317108,-0.01961397,0.04482136,-0.22756770,-0.
 11137998,0.01232006,-0.00843219,-0.00901738,-0.00036783,-0.00076072,0.
 00187607,-0.00087790,0.00181564,-0.00423833,-0.05094858,0.25786037,-0.
 00383471,-0.02059547,-0.00527548,0.02763198,-0.11125470,-0.11172159,0.
 00621283,-0.00815369,0.00258267,-0.00000916,0.00184304,-0.00266393,-0.
 00119155,-0.00423883,0.00582675,-0.02891835,0.14267142,0.11060646,-0.0
 0143175,0.00057948,0.00027664,-0.01556449,0.02984359,0.01748828,-0.045
 36563,0.02754067,0.01707622,0.00007862,0.00007021,0.00004745,-0.000875
 44,-0.00049306,-0.00035944,-0.00334354,0.00061880,0.00013508,0.0588798
 9,0.00008501,0.00039628,0.00026375,0.01294245,-0.00982017,-0.00789123,
 0.02963459,-0.21474591,-0.10663586,-0.00008300,-0.00007012,-0.00001439
 ,0.00023524,-0.00004044,-0.00002664,0.00051455,0.00037999,-0.00014851,
 -0.03935858,0.25376004,-0.00002853,0.00029874,0.00016326,0.00687089,-0
 .00683502,0.00020821,0.01839309,-0.10676899,-0.10771078,-0.00004435,-0
 .00000690,-0.00005767,0.00009390,-0.00006920,-0.00001557,0.00006957,-0
 .00013616,0.00058074,-0.02362577,0.13064027,0.12215900,-0.00195644,0.0
 0094584,0.00103541,-0.03168858,-0.02097305,0.01601598,-0.09395080,-0.0
 8708760,0.05469267,-0.00016850,0.00061190,-0.00164753,-0.00000145,-0.0
 0013866,0.00050693,-0.00022815,0.00018936,0.00005244,0.00357452,-0.002
 92203,-0.00016107,0.11811052,0.00119966,0.00009882,0.00035284,-0.00584
 036,0.00530231,-0.00008124,-0.08641132,-0.17637994,0.08272135,-0.00005
 919,-0.00003263,0.00038321,0.00003101,-0.00005018,-0.00004225,0.000170
 24,0.00006421,0.00002205,-0.01194456,-0.03007644,0.00698688,0.10541175
 ,0.20563262,-0.00001062,0.00002964,-0.00020834,0.00841637,0.00338667,0
 .00114938,0.05397456,0.08273353,-0.09133326,-0.00000925,0.00000569,-0.
 00001084,-0.00002389,-0.00006539,0.00005517,0.00033033,-0.00008222,-0.
 00003433,-0.00396408,-0.00914868,0.00767533,-0.06750744,-0.10111869,0.
 10392910,-0.00194852,0.00140810,0.00022382,-0.02762643,0.00701665,-0.0
 2835821,-0.07549583,0.01178554,-0.08748611,-0.00034279,-0.00120780,0.0
 0126414,0.00004747,0.00039751,-0.00035285,-0.00021106,0.00012928,0.000
 12627,0.00397997,-0.00098133,-0.00152948,0.00640703,-0.00262176,0.0087
 9458,0.09528408,0.00060189,-0.00011311,0.00011098,0.00641209,0.0025551
 7,0.00644998,0.01143064,-0.04392819,0.02460447,0.00000099,0.00020653,-
 0.00015298,-0.00000376,-0.00003000,-0.00006610,0.00037608,-0.00006763,
 -0.00001086,-0.00682555,0.00020153,-0.02411071,0.00396599,-0.00455181,
 0.02425655,-0.01599055,0.04573812,0.00093820,0.00047127,0.00000889,-0.
 01168535,0.00206966,-0.00016589,-0.08652481,0.02455885,-0.24217387,-0.
 00004850,0.00019293,-0.00007319,0.00003783,-0.00003000,-0.00001535,-0.
 00001244,0.00008543,0.00007410,-0.00705870,-0.00703747,-0.02301136,-0.
 00305502,0.01077880,-0.02121734,0.10735858,-0.03108832,0.28657896,-0.0
 2765700,0.00693340,-0.02836368,-0.00195484,0.00141053,0.00022523,-0.00
 034386,-0.00120774,0.00126143,-0.07564116,0.01155579,-0.08764973,-0.00
 021121,0.00013066,0.00012375,0.00004758,0.00039672,-0.00035193,0.00002
 449,-0.00001461,-0.00003230,-0.00035262,0.00010105,-0.00000709,0.00023
 423,-0.00002196,-0.00000113,0.09546825,0.00637225,0.00258067,0.0064296
 2,0.00060777,-0.00011005,0.00011061,0.00000048,0.00020678,-0.00015196,
 0.01120366,-0.04379208,0.02401714,0.00037846,-0.00006746,-0.00000879,-
 0.00000357,-0.00002984,-0.00006653,-0.00000305,0.00000819,0.00000665,0
 .00005713,-0.00001894,-0.00000079,-0.00002183,0.00000014,0.00000103,-0
 .01570817,0.04556348,-0.01167462,0.00205263,-0.00016087,0.00093703,0.0
 0046969,0.00000712,-0.00004786,0.00019329,-0.00007330,-0.08670288,0.02
 397644,-0.24218958,-0.00001336,0.00008518,0.00007640,0.00003787,-0.000
 02999,-0.00001513,-0.00001078,0.00000968,0.00000823,0.00006211,-0.0000
 1189,-0.00000306,-0.00000121,0.00000104,-0.00001013,0.10756174,-0.0303
 7746,0.28659616,-0.03166599,-0.02093354,0.01609363,-0.00194976,0.00094
 342,0.00103467,-0.00016727,0.00061430,-0.00164876,-0.09380800,-0.08685
 172,0.05490761,-0.00022746,0.00019091,0.00005024,-0.00000169,-0.000139
 16,0.00050805,0.00002268,-0.00003655,0.00000303,0.00023219,-0.00002434
 ,0.00000257,-0.00035309,0.00005711,0.00006208,0.00641094,0.00397896,-0
 .00309022,0.11793089,-0.00583396,0.00530538,-0.00008301,0.00119796,0.0
 0010066,0.00035209,-0.00005963,-0.00003324,0.00038300,-0.08616311,-0.1
 7596157,0.08303349,0.00016972,0.00006154,0.00002358,0.00003090,-0.0000
 5019,-0.00004238,-0.00001216,0.00001736,0.00000543,-0.00002433,-0.0000
 0543,0.00000355,0.00010105,-0.00001894,-0.00001186,-0.00258596,-0.0044
 5478,0.01073356,0.10511980,0.20512711,0.00846232,0.00339304,0.00112374
 ,-0.00001562,0.00002782,-0.00021183,-0.00000849,0.00000497,-0.00001053
 ,0.05418095,0.08304998,-0.09186956,0.00032780,-0.00008282,-0.00003463,
 -0.00002402,-0.00006506,0.00005492,0.00000403,0.00000013,0.00000216,0.
 00000242,0.00000358,-0.00000407,-0.00000713,-0.00000073,-0.00000310,0.
 00877366,0.02420989,-0.02131827,-0.06777084,-0.10149721,0.10458753,-0.
 01555959,0.02988309,0.01742268,-0.00143148,0.00058055,0.00027522,0.000
 07845,0.00006877,0.00004977,-0.04535532,0.02756206,0.01697956,-0.00334
 378,0.00061789,0.00013671,-0.00087528,-0.00049212,-0.00036093,0.000020
 68,-0.00001576,-0.00000899,0.00002225,-0.00001220,0.00000395,0.0000249
 3,-0.00000299,-0.00001074,0.00397517,-0.00686212,-0.00705781,0.0035765
 3,-0.01194029,-0.00392510,0.05886743,0.01294905,-0.00984773,-0.0078721
 4,0.00008686,0.00039714,0.00026522,-0.00008318,-0.00006928,-0.00001567
 ,0.02966065,-0.21531255,-0.10635857,0.00051324,0.00037954,-0.00014618,
 0.00023612,-0.00004090,-0.00002549,-0.00001581,-0.00001033,-0.00001100
 ,-0.00003632,0.00001736,0.00000015,-0.00001484,0.00000816,0.00000971,-
 0.00098971,0.00011386,-0.00710214,-0.00291921,-0.03008795,-0.00904359,
 -0.03938690,0.25445266,0.00685687,-0.00682421,0.00023089,-0.00003152,0
 .00029663,0.00016213,-0.00004391,-0.00000656,-0.00005835,0.01828933,-0
 .10648904,-0.10715475,0.00007139,-0.00013819,0.00058144,0.00009237,-0.
 00006978,-0.00001530,-0.00000892,-0.00001103,-0.00000161,0.00000313,0.
 00000540,0.00000222,-0.00003241,0.00000666,0.00000821,-0.00153997,-0.0
 2416940,-0.02291765,-0.00015204,0.00709980,0.00768361,-0.02350433,0.13
 029972,0.12147912\\-0.00013240,-0.00007588,-0.00005017,0.00013270,0.00
 007400,0.00005296,0.00001045,-0.00002811,-0.00001829,-0.00001084,0.000
 02890,0.00001733,-0.00001276,-0.00000189,-0.00000144,0.00001286,0.0000
 0372,-0.00000145,-0.00002111,0.00004180,0.00002234,-0.00000891,-0.0000
 0894,0.00002276,-0.00000778,0.00001220,-0.00001764,0.00000723,-0.00001
 396,0.00001811,0.00000939,0.00000925,-0.00002094,0.00002118,-0.0000411
 0,-0.00002357\\\@


 ... A MOLECULAR SYSTEM ... (PASSES) ... FROM ONE STATE OF EQUILIBRIUM 
 TO ANOTHER ... BY MEANS OF ALL POSSIBLE INTERMEDIATE PATHS, 
 BUT THE PATH MOST ECONOMICAL OF ENERGY WILL BE THE MORE OFTEN TRAVELED.

                      -- HENRY EYRING, 1945
 Job cpu time:       0 days  0 hours  0 minutes  1.0 seconds.
 File lengths (MBytes):  RWF=     82 Int=      0 D2E=      0 Chk=      2 Scr=      2
 Normal termination of Gaussian 09 at Sat Apr 16 11:42:52 2022.
