 Entering Gaussian System, Link 0=g09
 Input=/scratch/mverot/1-2-ethanediol-open-opt/1-2-ethanediol-open-opt.com
 Output=/scratch/mverot/1-2-ethanediol-open-opt/1-2-ethanediol-open-opt.log
 Initial command:
 /opt/g09/l1.exe "/scratch/mverot/1-2-ethanediol-open-opt/Gau-1476679.inp" -scrdir="/scratch/mverot/1-2-ethanediol-open-opt/"
 Entering Link 1 = /opt/g09/l1.exe PID=   1476681.
  
 Copyright (c) 1988,1990,1992,1993,1995,1998,2003,2009,2013,
            Gaussian, Inc.  All Rights Reserved.
  
 This is part of the Gaussian(R) 09 program.  It is based on
 the Gaussian(R) 03 system (copyright 2003, Gaussian, Inc.),
 the Gaussian(R) 98 system (copyright 1998, Gaussian, Inc.),
 the Gaussian(R) 94 system (copyright 1995, Gaussian, Inc.),
 the Gaussian 92(TM) system (copyright 1992, Gaussian, Inc.),
 the Gaussian 90(TM) system (copyright 1990, Gaussian, Inc.),
 the Gaussian 88(TM) system (copyright 1988, Gaussian, Inc.),
 the Gaussian 86(TM) system (copyright 1986, Carnegie Mellon
 University), and the Gaussian 82(TM) system (copyright 1983,
 Carnegie Mellon University). Gaussian is a federally registered
 trademark of Gaussian, Inc.
  
 This software contains proprietary and confidential information,
 including trade secrets, belonging to Gaussian, Inc.
  
 This software is provided under written license and may be
 used, copied, transmitted, or stored only in accord with that
 written license.
  
 The following legend is applicable only to US Government
 contracts under FAR:
  
                    RESTRICTED RIGHTS LEGEND
  
 Use, reproduction and disclosure by the US Government is
 subject to restrictions as set forth in subparagraphs (a)
 and (c) of the Commercial Computer Software - Restricted
 Rights clause in FAR 52.227-19.
  
 Gaussian, Inc.
 340 Quinnipiac St., Bldg. 40, Wallingford CT 06492
  
  
 ---------------------------------------------------------------
 Warning -- This program may not be used in any manner that
 competes with the business of Gaussian, Inc. or will provide
 assistance to any competitor of Gaussian, Inc.  The licensee
 of this program is prohibited from giving any competitor of
 Gaussian, Inc. access to this program.  By using this program,
 the user acknowledges that Gaussian, Inc. is engaged in the
 business of creating and licensing software in the field of
 computational chemistry and represents and warrants to the
 licensee that it is not a competitor of Gaussian, Inc. and that
 it will not use this program in any manner prohibited above.
 ---------------------------------------------------------------
  

 Cite this work as:
 Gaussian 09, Revision D.01,
 M. J. Frisch, G. W. Trucks, H. B. Schlegel, G. E. Scuseria, 
 M. A. Robb, J. R. Cheeseman, G. Scalmani, V. Barone, B. Mennucci, 
 G. A. Petersson, H. Nakatsuji, M. Caricato, X. Li, H. P. Hratchian, 
 A. F. Izmaylov, J. Bloino, G. Zheng, J. L. Sonnenberg, M. Hada, 
 M. Ehara, K. Toyota, R. Fukuda, J. Hasegawa, M. Ishida, T. Nakajima, 
 Y. Honda, O. Kitao, H. Nakai, T. Vreven, J. A. Montgomery, Jr., 
 J. E. Peralta, F. Ogliaro, M. Bearpark, J. J. Heyd, E. Brothers, 
 K. N. Kudin, V. N. Staroverov, T. Keith, R. Kobayashi, J. Normand, 
 K. Raghavachari, A. Rendell, J. C. Burant, S. S. Iyengar, J. Tomasi, 
 M. Cossi, N. Rega, J. M. Millam, M. Klene, J. E. Knox, J. B. Cross, 
 V. Bakken, C. Adamo, J. Jaramillo, R. Gomperts, R. E. Stratmann, 
 O. Yazyev, A. J. Austin, R. Cammi, C. Pomelli, J. W. Ochterski, 
 R. L. Martin, K. Morokuma, V. G. Zakrzewski, G. A. Voth, 
 P. Salvador, J. J. Dannenberg, S. Dapprich, A. D. Daniels, 
 O. Farkas, J. B. Foresman, J. V. Ortiz, J. Cioslowski, 
 and D. J. Fox, Gaussian, Inc., Wallingford CT, 2013.
 
 ******************************************
 Gaussian 09:  AM64L-G09RevD.01 24-Apr-2013
                17-Apr-2022 
 ******************************************
 %chk=1-2-ethanediol-open-opt
 ----------
 #n AM1 Opt
 ----------
 1/14=-1,18=20,19=15,26=1,38=1/1,3;
 2/9=110,12=2,17=6,18=5,40=1/2;
 3/5=2,16=1,25=1,41=700000,71=1/1,2,3;
 4/35=1/1;
 5/5=2,35=1,38=5/2;
 6/7=2,8=2,9=2,10=2,28=1/1;
 7//1,2,3,16;
 1/14=-1,18=20,19=15,26=1/3(2);
 2/9=110/2;
 99//99;
 2/9=110/2;
 3/5=2,16=1,25=1,41=700000,71=1,135=20/1,2,3;
 4/5=5,16=3,35=1/1;
 5/5=2,35=1,38=5/2;
 7//1,2,3,16;
 1/14=-1,18=20,19=15,26=1/3(-5);
 2/9=110/2;
 6/7=2,8=2,9=2,10=2,19=2,28=1/1;
 99/9=1/99;
 -------------------------
 Optimisation de geometrie
 -------------------------
 Symbolic Z-matrix:
 Charge =  0 Multiplicity = 1
 C                     2.26235   2.30287   2.12682 
 O                     1.19477   2.753     2.94869 
 C                     1.86043   1.06071   1.33944 
 O                     2.93052   0.60593   0.52348 
 H                     3.12289   2.08284   2.7671 
 H                     2.56524   3.11234   1.45399 
 H                     0.48594   3.06486   2.35936 
 H                     1.00384   1.28284   0.6946 
 H                     1.55145   0.25316   2.0118 
 H                     3.63326   0.28804   1.11694 
 

 GradGradGradGradGradGradGradGradGradGradGradGradGradGradGradGradGradGrad
 Berny optimization.
 Initialization pass.
                           ----------------------------
                           !    Initial Parameters    !
                           ! (Angstroms and Degrees)  !
 --------------------------                            --------------------------
 ! Name  Definition              Value          Derivative Info.                !
 --------------------------------------------------------------------------------
 ! R1    R(1,2)                  1.4205         estimate D2E/DX2                !
 ! R2    R(1,3)                  1.5246         estimate D2E/DX2                !
 ! R3    R(1,5)                  1.0949         estimate D2E/DX2                !
 ! R4    R(1,6)                  1.0953         estimate D2E/DX2                !
 ! R5    R(2,7)                  0.9731         estimate D2E/DX2                !
 ! R6    R(3,4)                  1.4205         estimate D2E/DX2                !
 ! R7    R(3,8)                  1.0949         estimate D2E/DX2                !
 ! R8    R(3,9)                  1.0953         estimate D2E/DX2                !
 ! R9    R(4,10)                 0.9732         estimate D2E/DX2                !
 ! A1    A(2,1,3)              111.0298         estimate D2E/DX2                !
 ! A2    A(2,1,5)              108.4218         estimate D2E/DX2                !
 ! A3    A(2,1,6)              109.2116         estimate D2E/DX2                !
 ! A4    A(3,1,5)              110.2098         estimate D2E/DX2                !
 ! A5    A(3,1,6)              110.9636         estimate D2E/DX2                !
 ! A6    A(5,1,6)              106.8811         estimate D2E/DX2                !
 ! A7    A(1,2,7)              107.373          estimate D2E/DX2                !
 ! A8    A(1,3,4)              111.0336         estimate D2E/DX2                !
 ! A9    A(1,3,8)              110.1876         estimate D2E/DX2                !
 ! A10   A(1,3,9)              110.9796         estimate D2E/DX2                !
 ! A11   A(4,3,8)              108.4213         estimate D2E/DX2                !
 ! A12   A(4,3,9)              109.2132         estimate D2E/DX2                !
 ! A13   A(8,3,9)              106.882          estimate D2E/DX2                !
 ! A14   A(3,4,10)             107.3539         estimate D2E/DX2                !
 ! D1    D(3,1,2,7)            -66.807          estimate D2E/DX2                !
 ! D2    D(5,1,2,7)            171.9844         estimate D2E/DX2                !
 ! D3    D(6,1,2,7)             55.8686         estimate D2E/DX2                !
 ! D4    D(2,1,3,4)           -179.6574         estimate D2E/DX2                !
 ! D5    D(2,1,3,8)             60.2031         estimate D2E/DX2                !
 ! D6    D(2,1,3,9)            -57.985          estimate D2E/DX2                !
 ! D7    D(5,1,3,4)            -59.5052         estimate D2E/DX2                !
 ! D8    D(5,1,3,8)           -179.6446         estimate D2E/DX2                !
 ! D9    D(5,1,3,9)             62.1673         estimate D2E/DX2                !
 ! D10   D(6,1,3,4)             58.6859         estimate D2E/DX2                !
 ! D11   D(6,1,3,8)            -61.4536         estimate D2E/DX2                !
 ! D12   D(6,1,3,9)           -179.6417         estimate D2E/DX2                !
 ! D13   D(1,3,4,10)            67.1313         estimate D2E/DX2                !
 ! D14   D(8,3,4,10)          -171.6856         estimate D2E/DX2                !
 ! D15   D(9,3,4,10)           -55.5681         estimate D2E/DX2                !
 --------------------------------------------------------------------------------
 Trust Radius=3.00D-01 FncErr=1.00D-07 GrdErr=1.00D-07
 Number of steps in this run=     48 maximum allowed number of steps=    100.
 GradGradGradGradGradGradGradGradGradGradGradGradGradGradGradGradGradGrad

                          Input orientation:                          
 ---------------------------------------------------------------------
 Center     Atomic      Atomic             Coordinates (Angstroms)
 Number     Number       Type             X           Y           Z
 ---------------------------------------------------------------------
      1          6           0        2.262350    2.302870    2.126820
      2          8           0        1.194770    2.753000    2.948690
      3          6           0        1.860430    1.060710    1.339440
      4          8           0        2.930520    0.605930    0.523480
      5          1           0        3.122890    2.082840    2.767100
      6          1           0        2.565240    3.112340    1.453990
      7          1           0        0.485940    3.064860    2.359360
      8          1           0        1.003840    1.282840    0.694600
      9          1           0        1.551450    0.253160    2.011800
     10          1           0        3.633260    0.288040    1.116940
 ---------------------------------------------------------------------
                    Distance matrix (angstroms):
                    1          2          3          4          5
     1  C    0.000000
     2  O    1.420498   0.000000
     3  C    1.524621   2.428299   0.000000
     4  O    2.428324   3.674831   1.420461   0.000000
     5  H    1.094943   2.049326   2.162584   2.692972   0.000000
     6  H    1.095301   2.059476   2.172341   2.698401   1.759290
     7  H    1.946879   0.973143   2.635541   3.923361   2.843259
     8  H    2.162305   2.697915   1.094946   2.049289   3.070119
     9  H    2.172538   2.693359   1.095296   2.059460   2.527376
    10  H    2.637952   3.921424   1.946651   0.973187   2.490946
                    6          7          8          9         10
     6  H    0.000000
     7  H    2.268356   0.000000
     8  H    2.522244   2.493039   0.000000
     9  H    3.084450   3.026841   1.759299   0.000000
    10  H    3.038246   4.377209   2.842859   2.266258   0.000000
 Stoichiometry    C2H6O2
 Framework group  C1[X(C2H6O2)]
 Deg. of freedom    24
 Full point group                 C1      NOp   1
 Largest Abelian subgroup         C1      NOp   1
 Largest concise Abelian subgroup C1      NOp   1
                         Standard orientation:                         
 ---------------------------------------------------------------------
 Center     Atomic      Atomic             Coordinates (Angstroms)
 Number     Number       Type             X           Y           Z
 ---------------------------------------------------------------------
      1          6           0       -0.561529   -0.511441    0.066756
      2          8           0       -1.830826    0.098540   -0.119314
      3          6           0        0.561402    0.511665   -0.062662
      4          8           0        1.831129   -0.099664    0.115608
      5          1           0       -0.443201   -1.299920   -0.683711
      6          1           0       -0.536262   -0.999118    1.047173
      7          1           0       -1.974557    0.704281    0.628634
      8          1           0        0.446271    1.296577    0.692033
      9          1           0        0.532531    1.004031   -1.040627
     10          1           0        1.973553   -0.698205   -0.638419
 ---------------------------------------------------------------------
 Rotational constants (GHZ):     28.9954263      3.9450889      3.6953605
 Standard basis: VSTO-6G (5D, 7F)
 There are    22 symmetry adapted cartesian basis functions of A   symmetry.
 There are    22 symmetry adapted basis functions of A   symmetry.
    22 basis functions,   132 primitive gaussians,    22 cartesian basis functions
    13 alpha electrons       13 beta electrons
       nuclear repulsion energy       102.0441907091 Hartrees.
 Integral buffers will be    131072 words long.
 Regular integral format.
 Two-electron integral symmetry is turned off.
 Do NDO integrals.
 One-electron integrals computed using PRISM.
 NBasis=    22 RedAO= F EigKep=  0.00D+00  NBF=    22
 NBsUse=    22 1.00D-04 EigRej=  0.00D+00 NBFU=    22
 Simple Huckel Guess.
 Overlap will be assumed to be unity.
 Keep J ints in memory in canonical form, NReq=887849.
 Requested convergence on RMS density matrix=1.00D-08 within 128 cycles.
 Requested convergence on MAX density matrix=1.00D-06.
 Requested convergence on             energy=1.00D-06.
 No special actions if energy rises.
 SCF Done:  E(RAM1) = -0.172328891002     A.U. after   13 cycles
            NFock= 12  Conv=0.35D-08     -V/T= 0.9897

 **********************************************************************

            Population analysis using the SCF density.

 **********************************************************************

 Orbital symmetries:
       Occupied  (A) (A) (A) (A) (A) (A) (A) (A) (A) (A) (A) (A)
                 (A)
       Virtual   (A) (A) (A) (A) (A) (A) (A) (A) (A)
 The electronic state is 1-A.
 Alpha  occ. eigenvalues --   -1.43735  -1.36868  -1.09679  -0.88314  -0.68305
 Alpha  occ. eigenvalues --   -0.67131  -0.61615  -0.56864  -0.53409  -0.51678
 Alpha  occ. eigenvalues --   -0.45072  -0.43778  -0.40180
 Alpha virt. eigenvalues --    0.11323   0.12931   0.13696   0.14016   0.15159
 Alpha virt. eigenvalues --    0.16250   0.17544   0.21561   0.22291
          Condensed to atoms (all electrons):
               1          2          3          4          5          6
     1  C    4.055373   0.000000   0.000000   0.000000   0.000000   0.000000
     2  O    0.000000   6.321538   0.000000   0.000000   0.000000   0.000000
     3  C    0.000000   0.000000   4.055469   0.000000   0.000000   0.000000
     4  O    0.000000   0.000000   0.000000   6.321432   0.000000   0.000000
     5  H    0.000000   0.000000   0.000000   0.000000   0.898038   0.000000
     6  H    0.000000   0.000000   0.000000   0.000000   0.000000   0.926505
     7  H    0.000000   0.000000   0.000000   0.000000   0.000000   0.000000
     8  H    0.000000   0.000000   0.000000   0.000000   0.000000   0.000000
     9  H    0.000000   0.000000   0.000000   0.000000   0.000000   0.000000
    10  H    0.000000   0.000000   0.000000   0.000000   0.000000   0.000000
               7          8          9         10
     1  C    0.000000   0.000000   0.000000   0.000000
     2  O    0.000000   0.000000   0.000000   0.000000
     3  C    0.000000   0.000000   0.000000   0.000000
     4  O    0.000000   0.000000   0.000000   0.000000
     5  H    0.000000   0.000000   0.000000   0.000000
     6  H    0.000000   0.000000   0.000000   0.000000
     7  H    0.798512   0.000000   0.000000   0.000000
     8  H    0.000000   0.898179   0.000000   0.000000
     9  H    0.000000   0.000000   0.926482   0.000000
    10  H    0.000000   0.000000   0.000000   0.798473
 Mulliken charges:
               1
     1  C   -0.055373
     2  O   -0.321538
     3  C   -0.055469
     4  O   -0.321432
     5  H    0.101962
     6  H    0.073495
     7  H    0.201488
     8  H    0.101821
     9  H    0.073518
    10  H    0.201527
 Sum of Mulliken charges =  -0.00000
 Mulliken charges with hydrogens summed into heavy atoms:
               1
     1  C    0.120084
     2  O   -0.120049
     3  C    0.119870
     4  O   -0.119905
 Charge=             -0.0000 electrons
 Dipole moment (field-independent basis, Debye):
    X=             -0.0012    Y=              0.0114    Z=             -0.0009  Tot=              0.0115
 N-N= 1.020441907091D+02 E-N=-1.683102923591D+02  KE=-1.679017483634D+01
 Calling FoFJK, ICntrl=      2127 FMM=F ISym2X=0 I1Cent= 0 IOpClX= 0 NMat=1 NMatS=1 NMatT=0.
 ***** Axes restored to original set *****
 -------------------------------------------------------------------
 Center     Atomic                   Forces (Hartrees/Bohr)
 Number     Number              X              Y              Z
 -------------------------------------------------------------------
      1        6          -0.018563992   -0.001093328   -0.001935274
      2        8           0.001718184   -0.002875998   -0.001259693
      3        6           0.018521018    0.001006320    0.002011498
      4        8          -0.001688241    0.002844601    0.001296490
      5        1           0.009112818   -0.003708170    0.017042238
      6        1           0.005178593    0.013163675   -0.015121695
      7        1           0.006216965   -0.003157607    0.002867293
      8        1          -0.009032377    0.003701987   -0.017097125
      9        1          -0.005301250   -0.013105959    0.015145788
     10        1          -0.006161718    0.003224478   -0.002949520
 -------------------------------------------------------------------
 Cartesian Forces:  Max     0.018563992 RMS     0.009073498

 GradGradGradGradGradGradGradGradGradGradGradGradGradGradGradGradGradGrad
 Berny optimization.
 FormGI is forming the generalized inverse of G from B-inverse, IUseBI=4.
 Internal  Forces:  Max     0.020455764 RMS     0.007176632
 Search for a local minimum.
 Step number   1 out of a maximum of   48
 All quantities printed in internal units (Hartrees-Bohrs-Radians)
 Mixed Optimization -- RFO/linear search
 Second derivative matrix not updated -- first step.
 ITU=  0
     Eigenvalues ---    0.00440   0.01421   0.01421   0.04968   0.04968
     Eigenvalues ---    0.05779   0.05780   0.11590   0.11590   0.13891
     Eigenvalues ---    0.13891   0.16000   0.16000   0.21981   0.21981
     Eigenvalues ---    0.29926   0.34207   0.34208   0.34247   0.34248
     Eigenvalues ---    0.42385   0.42391   0.52731   0.52740
 RFO step:  Lambda=-7.56562709D-03 EMin= 4.40262180D-03
 Linear search not attempted -- first point.
 Iteration  1 RMS(Cart)=  0.03774348 RMS(Int)=  0.00092308
 Iteration  2 RMS(Cart)=  0.00091857 RMS(Int)=  0.00037069
 Iteration  3 RMS(Cart)=  0.00000065 RMS(Int)=  0.00037069
 Variable       Old X    -DE/DX   Delta X   Delta X   Delta X     New X
                                 (Linear)    (Quad)   (Total)
    R1        2.68435  -0.00695   0.00000  -0.01610  -0.01610   2.66825
    R2        2.88112   0.00369   0.00000   0.01201   0.01201   2.89313
    R3        2.06914   0.01787   0.00000   0.05106   0.05106   2.12020
    R4        2.06982   0.02045   0.00000   0.05849   0.05849   2.12831
    R5        1.83897  -0.00728   0.00000  -0.01360  -0.01360   1.82537
    R6        2.68428  -0.00691   0.00000  -0.01601  -0.01601   2.66827
    R7        2.06915   0.01789   0.00000   0.05110   0.05110   2.12025
    R8        2.06981   0.02046   0.00000   0.05850   0.05850   2.12831
    R9        1.83906  -0.00730   0.00000  -0.01365  -0.01365   1.82541
    A1        1.93784  -0.00065   0.00000  -0.01000  -0.01033   1.92751
    A2        1.89232  -0.00578   0.00000  -0.06714  -0.06728   1.82503
    A3        1.90610   0.00383   0.00000   0.03632   0.03653   1.94263
    A4        1.92352   0.00326   0.00000   0.01187   0.01100   1.93453
    A5        1.93668  -0.00286   0.00000  -0.00446  -0.00460   1.93208
    A6        1.86543   0.00225   0.00000   0.03371   0.03395   1.89938
    A7        1.87401  -0.00355   0.00000  -0.02117  -0.02117   1.85284
    A8        1.93790  -0.00070   0.00000  -0.01019  -0.01052   1.92739
    A9        1.92314   0.00330   0.00000   0.01217   0.01131   1.93444
   A10        1.93696  -0.00290   0.00000  -0.00486  -0.00500   1.93196
   A11        1.89231  -0.00578   0.00000  -0.06707  -0.06721   1.82510
   A12        1.90613   0.00387   0.00000   0.03653   0.03674   1.94287
   A13        1.86544   0.00224   0.00000   0.03371   0.03396   1.89940
   A14        1.87368  -0.00347   0.00000  -0.02072  -0.02072   1.85296
    D1       -1.16600   0.00067   0.00000  -0.00484  -0.00424  -1.17024
    D2        3.00169   0.00081   0.00000   0.03041   0.02938   3.03108
    D3        0.97509  -0.00075   0.00000   0.00765   0.00808   0.98317
    D4       -3.13561  -0.00000   0.00000  -0.00011  -0.00011  -3.13573
    D5        1.05074   0.00552   0.00000   0.08247   0.08252   1.13326
    D6       -1.01203   0.00246   0.00000   0.03605   0.03597  -0.97606
    D7       -1.03856  -0.00552   0.00000  -0.08288  -0.08293  -1.12149
    D8       -3.13539  -0.00000   0.00000  -0.00030  -0.00030  -3.13569
    D9        1.08502  -0.00306   0.00000  -0.04673  -0.04685   1.03818
   D10        1.02426  -0.00246   0.00000  -0.03640  -0.03633   0.98794
   D11       -1.07257   0.00306   0.00000   0.04618   0.04631  -1.02626
   D12       -3.13534  -0.00000   0.00000  -0.00025  -0.00025  -3.13558
   D13        1.17166  -0.00071   0.00000   0.00394   0.00335   1.17501
   D14       -2.99648  -0.00082   0.00000  -0.03098  -0.02996  -3.02643
   D15       -0.96985   0.00076   0.00000  -0.00807  -0.00850  -0.97834
         Item               Value     Threshold  Converged?
 Maximum Force            0.020456     0.000450     NO 
 RMS     Force            0.007177     0.000300     NO 
 Maximum Displacement     0.104184     0.001800     NO 
 RMS     Displacement     0.038003     0.001200     NO 
 Predicted change in Energy=-3.969355D-03
 GradGradGradGradGradGradGradGradGradGradGradGradGradGradGradGradGradGrad

                          Input orientation:                          
 ---------------------------------------------------------------------
 Center     Atomic      Atomic             Coordinates (Angstroms)
 Number     Number       Type             X           Y           Z
 ---------------------------------------------------------------------
      1          6           0        2.266157    2.310207    2.119043
      2          8           0        1.212840    2.740933    2.954916
      3          6           0        1.856290    1.053139    1.347241
      4          8           0        2.912446    0.618117    0.517177
      5          1           0        3.111923    2.088834    2.822232
      6          1           0        2.586144    3.125468    1.410947
      7          1           0        0.505401    3.034442    2.366332
      8          1           0        1.014589    1.276002    0.639623
      9          1           0        1.530366    0.240070    2.055155
     10          1           0        3.614534    0.319377    1.109555
 ---------------------------------------------------------------------
                    Distance matrix (angstroms):
                    1          2          3          4          5
     1  C    0.000000
     2  O    1.411979   0.000000
     3  C    1.530977   2.418118   0.000000
     4  O    2.418022   3.652064   1.411989   0.000000
     5  H    1.121963   2.012300   2.196560   2.741546   0.000000
     6  H    1.126252   2.101826   2.198020   2.681809   1.828326
     7  H    1.919877   0.965945   2.605572   3.879672   2.809978
     8  H    2.196517   2.746982   1.121986   2.012378   3.134213
     9  H    2.197940   2.676698   1.126256   2.102008   2.551012
    10  H    2.607794   3.877811   1.919980   0.965963   2.513336
                    6          7          8          9         10
     6  H    0.000000
     7  H    2.291405   0.000000
     8  H    2.546615   2.516527   0.000000
     9  H    3.139298   2.992641   1.828364   0.000000
    10  H    3.003759   4.314831   2.809925   2.290023   0.000000
 Stoichiometry    C2H6O2
 Framework group  C1[X(C2H6O2)]
 Deg. of freedom    24
 Full point group                 C1      NOp   1
 Largest Abelian subgroup         C1      NOp   1
 Largest concise Abelian subgroup C1      NOp   1
                         Standard orientation:                         
 ---------------------------------------------------------------------
 Center     Atomic      Atomic             Coordinates (Angstroms)
 Number     Number       Type             X           Y           Z
 ---------------------------------------------------------------------
      1          6           0       -0.563853   -0.513096    0.069836
      2          8           0       -1.819335    0.106362   -0.113795
      3          6           0        0.563778    0.513512   -0.065868
      4          8           0        1.819574   -0.107535    0.110171
      5          1           0       -0.505593   -1.280286   -0.746758
      6          1           0       -0.507689   -1.036882    1.065293
      7          1           0       -1.937949    0.701527    0.637709
      8          1           0        0.509084    1.277145    0.754331
      9          1           0        0.503787    1.041663   -1.058797
     10          1           0        1.936900   -0.696289   -0.646591
 ---------------------------------------------------------------------
 Rotational constants (GHZ):     28.3406354      3.9844369      3.7328731
 Standard basis: VSTO-6G (5D, 7F)
 There are    22 symmetry adapted cartesian basis functions of A   symmetry.
 There are    22 symmetry adapted basis functions of A   symmetry.
    22 basis functions,   132 primitive gaussians,    22 cartesian basis functions
    13 alpha electrons       13 beta electrons
       nuclear repulsion energy       102.0402116068 Hartrees.
 Integral buffers will be    131072 words long.
 Regular integral format.
 Two-electron integral symmetry is turned off.
 Do NDO integrals.
 One-electron integrals computed using PRISM.
 NBasis=    22 RedAO= F EigKep=  0.00D+00  NBF=    22
 NBsUse=    22 1.00D-04 EigRej=  0.00D+00 NBFU=    22
 Initial guess from the checkpoint file:  "1-2-ethanediol-open-opt.chk"
 B after Tr=    -0.000000    0.000000   -0.000000
         Rot=    0.999953   -0.008998   -0.002485    0.002487 Ang=  -1.11 deg.
 Overlap will be assumed to be unity.
 Keep J ints in memory in canonical form, NReq=887849.
 Requested convergence on RMS density matrix=1.00D-08 within 128 cycles.
 Requested convergence on MAX density matrix=1.00D-06.
 Requested convergence on             energy=1.00D-06.
 No special actions if energy rises.
 SCF Done:  E(RAM1) = -0.175617460420     A.U. after   11 cycles
            NFock= 10  Conv=0.42D-08     -V/T= 0.9895
 Calling FoFJK, ICntrl=      2127 FMM=F ISym2X=0 I1Cent= 0 IOpClX= 0 NMat=1 NMatS=1 NMatT=0.
 ***** Axes restored to original set *****
 -------------------------------------------------------------------
 Center     Atomic                   Forces (Hartrees/Bohr)
 Number     Number              X              Y              Z
 -------------------------------------------------------------------
      1        6          -0.000067375   -0.002035556   -0.000010425
      2        8          -0.000972609    0.002159822   -0.002867649
      3        6           0.000086111    0.002051740   -0.000011190
      4        8           0.000912371   -0.002187253    0.002877893
      5        1           0.000944343   -0.000669634   -0.000066300
      6        1          -0.001674557   -0.002571025    0.001476662
      7        1          -0.001066836    0.000164263    0.002216403
      8        1          -0.000923894    0.000661064    0.000063289
      9        1           0.001698003    0.002559005   -0.001472694
     10        1           0.001064443   -0.000132425   -0.002205989
 -------------------------------------------------------------------
 Cartesian Forces:  Max     0.002877893 RMS     0.001570853

 GradGradGradGradGradGradGradGradGradGradGradGradGradGradGradGradGradGrad
 Berny optimization.
 Using GEDIIS/GDIIS optimizer.
 FormGI is forming the generalized inverse of G from B-inverse, IUseBI=4.
 Internal  Forces:  Max     0.004375932 RMS     0.001611574
 Search for a local minimum.
 Step number   2 out of a maximum of   48
 All quantities printed in internal units (Hartrees-Bohrs-Radians)
 Mixed Optimization -- RFO/linear search
 Update second derivatives using D2CorX and points    1    2
 DE= -3.29D-03 DEPred=-3.97D-03 R= 8.28D-01
 TightC=F SS=  1.41D+00  RLast= 2.26D-01 DXNew= 5.0454D-01 6.7804D-01
 Trust test= 8.28D-01 RLast= 2.26D-01 DXMaxT set to 5.05D-01
 ITU=  1  0
 Use linear search instead of GDIIS.
     Eigenvalues ---    0.00440   0.01419   0.01421   0.05051   0.05208
     Eigenvalues ---    0.05755   0.06053   0.11527   0.11570   0.13592
     Eigenvalues ---    0.13828   0.16000   0.16858   0.21957   0.22035
     Eigenvalues ---    0.29894   0.33012   0.34207   0.34247   0.36904
     Eigenvalues ---    0.42388   0.43298   0.52428   0.52736
 RFO step:  Lambda=-3.32475633D-04 EMin= 4.40261983D-03
 Quartic linear search produced a step of -0.10929.
 Iteration  1 RMS(Cart)=  0.01144083 RMS(Int)=  0.00013199
 Iteration  2 RMS(Cart)=  0.00012046 RMS(Int)=  0.00002723
 Iteration  3 RMS(Cart)=  0.00000002 RMS(Int)=  0.00002723
 Variable       Old X    -DE/DX   Delta X   Delta X   Delta X     New X
                                 (Linear)    (Quad)   (Total)
    R1        2.66825   0.00184   0.00176   0.00138   0.00314   2.67139
    R2        2.89313  -0.00281  -0.00131  -0.00648  -0.00779   2.88534
    R3        2.12020   0.00080  -0.00558   0.01001   0.00443   2.12463
    R4        2.12831  -0.00327  -0.00639   0.00059  -0.00581   2.12250
    R5        1.82537  -0.00052   0.00149  -0.00298  -0.00150   1.82387
    R6        2.66827   0.00180   0.00175   0.00129   0.00304   2.67132
    R7        2.12025   0.00078  -0.00558   0.00997   0.00439   2.12463
    R8        2.12831  -0.00326  -0.00639   0.00059  -0.00580   2.12251
    R9        1.82541  -0.00054   0.00149  -0.00302  -0.00153   1.82387
    A1        1.92751   0.00237   0.00113   0.00830   0.00946   1.93697
    A2        1.82503   0.00009   0.00735  -0.00188   0.00546   1.83049
    A3        1.94263  -0.00091  -0.00399  -0.00148  -0.00547   1.93716
    A4        1.93453  -0.00080  -0.00120   0.00019  -0.00096   1.93356
    A5        1.93208  -0.00140   0.00050  -0.01198  -0.01146   1.92062
    A6        1.89938   0.00071  -0.00371   0.00757   0.00382   1.90320
    A7        1.85284   0.00438   0.00231   0.02100   0.02332   1.87616
    A8        1.92739   0.00237   0.00115   0.00826   0.00943   1.93682
    A9        1.93444  -0.00078  -0.00124   0.00040  -0.00079   1.93365
   A10        1.93196  -0.00141   0.00055  -0.01209  -0.01152   1.92044
   A11        1.82510   0.00007   0.00734  -0.00198   0.00535   1.83045
   A12        1.94287  -0.00091  -0.00402  -0.00147  -0.00549   1.93738
   A13        1.89940   0.00071  -0.00371   0.00762   0.00387   1.90327
   A14        1.85296   0.00434   0.00226   0.02088   0.02314   1.87610
    D1       -1.17024   0.00049   0.00046   0.01537   0.01580  -1.15444
    D2        3.03108   0.00019  -0.00321   0.01201   0.00888   3.03996
    D3        0.98317  -0.00025  -0.00088   0.00488   0.00396   0.98713
    D4       -3.13573  -0.00000   0.00001  -0.00049  -0.00048  -3.13621
    D5        1.13326  -0.00104  -0.00902  -0.00324  -0.01227   1.12099
    D6       -0.97606  -0.00048  -0.00393  -0.00503  -0.00897  -0.98504
    D7       -1.12149   0.00104   0.00906   0.00229   0.01136  -1.11013
    D8       -3.13569   0.00000   0.00003  -0.00046  -0.00043  -3.13612
    D9        1.03818   0.00056   0.00512  -0.00225   0.00287   1.04104
   D10        0.98794   0.00047   0.00397   0.00395   0.00793   0.99587
   D11       -1.02626  -0.00057  -0.00506   0.00120  -0.00386  -1.03012
   D12       -3.13558  -0.00001   0.00003  -0.00059  -0.00056  -3.13615
   D13        1.17501  -0.00052  -0.00037  -0.01648  -0.01681   1.15820
   D14       -3.02643  -0.00020   0.00327  -0.01296  -0.00976  -3.03620
   D15       -0.97834   0.00024   0.00093  -0.00582  -0.00485  -0.98319
         Item               Value     Threshold  Converged?
 Maximum Force            0.004376     0.000450     NO 
 RMS     Force            0.001612     0.000300     NO 
 Maximum Displacement     0.028540     0.001800     NO 
 RMS     Displacement     0.011487     0.001200     NO 
 Predicted change in Energy=-2.148837D-04
 GradGradGradGradGradGradGradGradGradGradGradGradGradGradGradGradGradGrad

                          Input orientation:                          
 ---------------------------------------------------------------------
 Center     Atomic      Atomic             Coordinates (Angstroms)
 Number     Number       Type             X           Y           Z
 ---------------------------------------------------------------------
      1          6           0        2.263688    2.307079    2.121165
      2          8           0        1.209504    2.750794    2.951940
      3          6           0        1.858700    1.055998    1.345236
      4          8           0        2.915411    0.608386    0.519848
      5          1           0        3.111277    2.083063    2.825066
      6          1           0        2.582350    3.115262    1.409247
      7          1           0        0.490557    3.042222    2.377743
      8          1           0        1.014903    1.281246    0.637184
      9          1           0        1.534663    0.249851    2.057045
     10          1           0        3.629636    0.312690    1.097746
 ---------------------------------------------------------------------
                    Distance matrix (angstroms):
                    1          2          3          4          5
     1  C    0.000000
     2  O    1.413638   0.000000
     3  C    1.526855   2.423898   0.000000
     4  O    2.423741   3.662663   1.413599   0.000000
     5  H    1.124308   2.019580   2.194017   2.743550   0.000000
     6  H    1.123179   2.097008   2.183652   2.680744   1.830230
     7  H    1.936559   0.965152   2.623541   3.905797   2.826351
     8  H    2.194082   2.748733   1.124307   2.019515   3.134409
     9  H    2.183524   2.676057   1.123185   2.097138   2.536973
    10  H    2.625031   3.903770   1.936485   0.965152   2.527162
                    6          7          8          9         10
     6  H    0.000000
     7  H    2.306278   0.000000
     8  H    2.533098   2.530913   0.000000
     9  H    3.118953   2.998390   1.830281   0.000000
    10  H    3.008031   4.352304   2.826136   2.305019   0.000000
 Stoichiometry    C2H6O2
 Framework group  C1[X(C2H6O2)]
 Deg. of freedom    24
 Full point group                 C1      NOp   1
 Largest Abelian subgroup         C1      NOp   1
 Largest concise Abelian subgroup C1      NOp   1
                         Standard orientation:                         
 ---------------------------------------------------------------------
 Center     Atomic      Atomic             Coordinates (Angstroms)
 Number     Number       Type             X           Y           Z
 ---------------------------------------------------------------------
      1          6           0       -0.563676   -0.509777    0.072527
      2          8           0       -1.825020    0.100905   -0.113082
      3          6           0        0.563659    0.510224   -0.068896
      4          8           0        1.825223   -0.101983    0.109769
      5          1           0       -0.499196   -1.290138   -0.734286
      6          1           0       -0.503921   -1.013082    1.074847
      7          1           0       -1.959926    0.716199    0.618171
      8          1           0        0.502615    1.287394    0.741257
      9          1           0        0.500356    1.017477   -1.069011
     10          1           0        1.958551   -0.711903   -0.626262
 ---------------------------------------------------------------------
 Rotational constants (GHZ):     28.6012246      3.9605171      3.7140703
 Standard basis: VSTO-6G (5D, 7F)
 There are    22 symmetry adapted cartesian basis functions of A   symmetry.
 There are    22 symmetry adapted basis functions of A   symmetry.
    22 basis functions,   132 primitive gaussians,    22 cartesian basis functions
    13 alpha electrons       13 beta electrons
       nuclear repulsion energy       101.9775198106 Hartrees.
 Integral buffers will be    131072 words long.
 Regular integral format.
 Two-electron integral symmetry is turned off.
 Do NDO integrals.
 One-electron integrals computed using PRISM.
 NBasis=    22 RedAO= F EigKep=  0.00D+00  NBF=    22
 NBsUse=    22 1.00D-04 EigRej=  0.00D+00 NBFU=    22
 Initial guess from the checkpoint file:  "1-2-ethanediol-open-opt.chk"
 B after Tr=     0.000000   -0.000000   -0.000000
         Rot=    0.999976    0.006913    0.000275   -0.000865 Ang=   0.80 deg.
 Overlap will be assumed to be unity.
 Keep J ints in memory in canonical form, NReq=887849.
 Requested convergence on RMS density matrix=1.00D-08 within 128 cycles.
 Requested convergence on MAX density matrix=1.00D-06.
 Requested convergence on             energy=1.00D-06.
 No special actions if energy rises.
 SCF Done:  E(RAM1) = -0.175794158554     A.U. after   10 cycles
            NFock=  9  Conv=0.67D-08     -V/T= 0.9895
 Calling FoFJK, ICntrl=      2127 FMM=F ISym2X=0 I1Cent= 0 IOpClX= 0 NMat=1 NMatS=1 NMatT=0.
 ***** Axes restored to original set *****
 -------------------------------------------------------------------
 Center     Atomic                   Forces (Hartrees/Bohr)
 Number     Number              X              Y              Z
 -------------------------------------------------------------------
      1        6          -0.000681575    0.000606698   -0.000196241
      2        8           0.001187666    0.000081325   -0.000038274
      3        6           0.000659541   -0.000586317    0.000208390
      4        8          -0.001182171   -0.000108933    0.000020995
      5        1          -0.001081977    0.000184679   -0.000327313
      6        1          -0.000279678   -0.000383018    0.000726254
      7        1           0.000736169   -0.000610453   -0.000350695
      8        1           0.001075137   -0.000183944    0.000341003
      9        1           0.000285851    0.000373641   -0.000726211
     10        1          -0.000718962    0.000626323    0.000342091
 -------------------------------------------------------------------
 Cartesian Forces:  Max     0.001187666 RMS     0.000597344

 GradGradGradGradGradGradGradGradGradGradGradGradGradGradGradGradGradGrad
 Berny optimization.
 Using GEDIIS/GDIIS optimizer.
 FormGI is forming the generalized inverse of G from B-inverse, IUseBI=4.
 Internal  Forces:  Max     0.001829325 RMS     0.000658449
 Search for a local minimum.
 Step number   3 out of a maximum of   48
 All quantities printed in internal units (Hartrees-Bohrs-Radians)
 Mixed Optimization -- En-DIIS/RFO-DIIS
 Update second derivatives using D2CorX and points    1    2    3
 DE= -1.77D-04 DEPred=-2.15D-04 R= 8.22D-01
 TightC=F SS=  1.41D+00  RLast= 5.53D-02 DXNew= 8.4853D-01 1.6581D-01
 Trust test= 8.22D-01 RLast= 5.53D-02 DXMaxT set to 5.05D-01
 ITU=  1  1  0
 Use linear search instead of GDIIS.
     Eigenvalues ---    0.00440   0.01346   0.01421   0.05038   0.05211
     Eigenvalues ---    0.05775   0.06065   0.11591   0.11735   0.13712
     Eigenvalues ---    0.13857   0.16000   0.20358   0.20869   0.22058
     Eigenvalues ---    0.29657   0.33918   0.34207   0.34247   0.35280
     Eigenvalues ---    0.42388   0.48454   0.52388   0.52736
 RFO step:  Lambda=-4.40901090D-05 EMin= 4.40240717D-03
 Quartic linear search produced a step of -0.15182.
 Iteration  1 RMS(Cart)=  0.00416280 RMS(Int)=  0.00002447
 Iteration  2 RMS(Cart)=  0.00001980 RMS(Int)=  0.00000330
 Iteration  3 RMS(Cart)=  0.00000000 RMS(Int)=  0.00000330
 Variable       Old X    -DE/DX   Delta X   Delta X   Delta X     New X
                                 (Linear)    (Quad)   (Total)
    R1        2.67139  -0.00183  -0.00048  -0.00271  -0.00318   2.66821
    R2        2.88534  -0.00023   0.00118  -0.00276  -0.00157   2.88376
    R3        2.12463  -0.00106  -0.00067  -0.00152  -0.00219   2.12244
    R4        2.12250  -0.00082   0.00088  -0.00371  -0.00283   2.11967
    R5        1.82387  -0.00052   0.00023  -0.00119  -0.00096   1.82291
    R6        2.67132  -0.00180  -0.00046  -0.00267  -0.00313   2.66819
    R7        2.12463  -0.00106  -0.00067  -0.00154  -0.00220   2.12243
    R8        2.12251  -0.00081   0.00088  -0.00370  -0.00282   2.11969
    R9        1.82387  -0.00052   0.00023  -0.00119  -0.00096   1.82291
    A1        1.93697   0.00035  -0.00144   0.00354   0.00211   1.93908
    A2        1.83049  -0.00040  -0.00083  -0.00215  -0.00298   1.82752
    A3        1.93716  -0.00025   0.00083  -0.00254  -0.00171   1.93545
    A4        1.93356   0.00005   0.00015  -0.00002   0.00013   1.93369
    A5        1.92062   0.00017   0.00174  -0.00087   0.00087   1.92149
    A6        1.90320   0.00005  -0.00058   0.00198   0.00140   1.90460
    A7        1.87616  -0.00151  -0.00354  -0.00153  -0.00507   1.87109
    A8        1.93682   0.00036  -0.00143   0.00359   0.00216   1.93898
    A9        1.93365   0.00005   0.00012   0.00001   0.00014   1.93379
   A10        1.92044   0.00016   0.00175  -0.00091   0.00084   1.92128
   A11        1.83045  -0.00040  -0.00081  -0.00215  -0.00296   1.82750
   A12        1.93738  -0.00025   0.00083  -0.00257  -0.00174   1.93564
   A13        1.90327   0.00005  -0.00059   0.00198   0.00139   1.90466
   A14        1.87610  -0.00149  -0.00351  -0.00148  -0.00500   1.87110
    D1       -1.15444   0.00007  -0.00240   0.01233   0.00992  -1.14452
    D2        3.03996   0.00006  -0.00135   0.01177   0.01043   3.05039
    D3        0.98713   0.00035  -0.00060   0.01193   0.01132   0.99845
    D4       -3.13621  -0.00000   0.00007  -0.00051  -0.00044  -3.13664
    D5        1.12099   0.00024   0.00186  -0.00006   0.00180   1.12279
    D6       -0.98504   0.00004   0.00136  -0.00194  -0.00058  -0.98562
    D7       -1.11013  -0.00025  -0.00173  -0.00101  -0.00274  -1.11286
    D8       -3.13612  -0.00001   0.00007  -0.00056  -0.00050  -3.13662
    D9        1.04104  -0.00021  -0.00044  -0.00245  -0.00288   1.03816
   D10        0.99587  -0.00004  -0.00120   0.00088  -0.00032   0.99554
   D11       -1.03012   0.00020   0.00059   0.00133   0.00192  -1.02821
   D12       -3.13615  -0.00000   0.00009  -0.00055  -0.00046  -3.13661
   D13        1.15820  -0.00008   0.00255  -0.01322  -0.01066   1.14754
   D14       -3.03620  -0.00007   0.00148  -0.01259  -0.01112  -3.04732
   D15       -0.98319  -0.00036   0.00074  -0.01278  -0.01204  -0.99523
         Item               Value     Threshold  Converged?
 Maximum Force            0.001829     0.000450     NO 
 RMS     Force            0.000658     0.000300     NO 
 Maximum Displacement     0.014036     0.001800     NO 
 RMS     Displacement     0.004166     0.001200     NO 
 Predicted change in Energy=-2.797191D-05
 GradGradGradGradGradGradGradGradGradGradGradGradGradGradGradGradGradGrad

                          Input orientation:                          
 ---------------------------------------------------------------------
 Center     Atomic      Atomic             Coordinates (Angstroms)
 Number     Number       Type             X           Y           Z
 ---------------------------------------------------------------------
      1          6           0        2.264027    2.306637    2.120801
      2          8           0        1.213299    2.752935    2.951708
      3          6           0        1.858302    1.056252    1.345774
      4          8           0        2.911335    0.606330    0.519773
      5          1           0        3.109222    2.082140    2.825574
      6          1           0        2.582595    3.113988    1.410258
      7          1           0        0.493695    3.035563    2.374799
      8          1           0        1.016562    1.281838    0.637232
      9          1           0        1.534834    0.250789    2.056264
     10          1           0        3.626818    0.320118    1.100036
 ---------------------------------------------------------------------
                    Distance matrix (angstroms):
                    1          2          3          4          5
     1  C    0.000000
     2  O    1.411955   0.000000
     3  C    1.526022   2.423590   0.000000
     4  O    2.423498   3.661358   1.411944   0.000000
     5  H    1.123147   2.015043   2.192500   2.744793   0.000000
     6  H    1.121682   2.093179   2.182438   2.681302   1.828980
     7  H    1.931301   0.964641   2.615094   3.897086   2.820141
     8  H    2.192569   2.749478   1.123142   2.015012   3.131861
     9  H    2.182292   2.676927   1.121694   2.093315   2.534636
    10  H    2.616376   3.895172   1.931302   0.964644   2.519942
                    6          7          8          9         10
     6  H    0.000000
     7  H    2.302171   0.000000
     8  H    2.531166   2.523506   0.000000
     9  H    3.116574   2.990051   1.829022   0.000000
    10  H    2.998724   4.337640   2.820023   2.301212   0.000000
 Stoichiometry    C2H6O2
 Framework group  C1[X(C2H6O2)]
 Deg. of freedom    24
 Full point group                 C1      NOp   1
 Largest Abelian subgroup         C1      NOp   1
 Largest concise Abelian subgroup C1      NOp   1
                         Standard orientation:                         
 ---------------------------------------------------------------------
 Center     Atomic      Atomic             Coordinates (Angstroms)
 Number     Number       Type             X           Y           Z
 ---------------------------------------------------------------------
      1          6           0       -0.564210   -0.508486    0.073096
      2          8           0       -1.824413    0.100722   -0.112291
      3          6           0        0.564178    0.508900   -0.069772
      4          8           0        1.824628   -0.101679    0.109244
      5          1           0       -0.502818   -1.287846   -0.733309
      6          1           0       -0.505994   -1.010439    1.074508
      7          1           0       -1.950725    0.722006    0.614748
      8          1           0        0.505922    1.285361    0.739649
      9          1           0        0.502686    1.014441   -1.069194
     10          1           0        1.949404   -0.718354   -0.621974
 ---------------------------------------------------------------------
 Rotational constants (GHZ):     28.6883145      3.9646549      3.7183372
 Standard basis: VSTO-6G (5D, 7F)
 There are    22 symmetry adapted cartesian basis functions of A   symmetry.
 There are    22 symmetry adapted basis functions of A   symmetry.
    22 basis functions,   132 primitive gaussians,    22 cartesian basis functions
    13 alpha electrons       13 beta electrons
       nuclear repulsion energy       102.0281161490 Hartrees.
 Integral buffers will be    131072 words long.
 Regular integral format.
 Two-electron integral symmetry is turned off.
 Do NDO integrals.
 One-electron integrals computed using PRISM.
 NBasis=    22 RedAO= F EigKep=  0.00D+00  NBF=    22
 NBsUse=    22 1.00D-04 EigRej=  0.00D+00 NBFU=    22
 Initial guess from the checkpoint file:  "1-2-ethanediol-open-opt.chk"
 B after Tr=     0.000000    0.000000    0.000000
         Rot=    1.000000    0.000855   -0.000146    0.000408 Ang=   0.11 deg.
 Overlap will be assumed to be unity.
 Keep J ints in memory in canonical form, NReq=887849.
 Requested convergence on RMS density matrix=1.00D-08 within 128 cycles.
 Requested convergence on MAX density matrix=1.00D-06.
 Requested convergence on             energy=1.00D-06.
 No special actions if energy rises.
 SCF Done:  E(RAM1) = -0.175823016327     A.U. after    9 cycles
            NFock=  8  Conv=0.85D-08     -V/T= 0.9895
 Calling FoFJK, ICntrl=      2127 FMM=F ISym2X=0 I1Cent= 0 IOpClX= 0 NMat=1 NMatS=1 NMatT=0.
 ***** Axes restored to original set *****
 -------------------------------------------------------------------
 Center     Atomic                   Forces (Hartrees/Bohr)
 Number     Number              X              Y              Z
 -------------------------------------------------------------------
      1        6           0.000384112    0.000181664    0.000046982
      2        8          -0.000264635    0.000396450    0.000441089
      3        6          -0.000378745   -0.000173258   -0.000045609
      4        8           0.000251224   -0.000414530   -0.000443800
      5        1           0.000018053   -0.000101122   -0.000040629
      6        1           0.000231553    0.000256634   -0.000103623
      7        1          -0.000200824   -0.000185607   -0.000071826
      8        1          -0.000018757    0.000103910    0.000045227
      9        1          -0.000228191   -0.000263045    0.000098051
     10        1           0.000206210    0.000198904    0.000074138
 -------------------------------------------------------------------
 Cartesian Forces:  Max     0.000443800 RMS     0.000235654

 GradGradGradGradGradGradGradGradGradGradGradGradGradGradGradGradGradGrad
 Berny optimization.
 Using GEDIIS/GDIIS optimizer.
 FormGI is forming the generalized inverse of G from B-inverse, IUseBI=4.
 Internal  Forces:  Max     0.000631907 RMS     0.000206597
 Search for a local minimum.
 Step number   4 out of a maximum of   48
 All quantities printed in internal units (Hartrees-Bohrs-Radians)
 Mixed Optimization -- En-DIIS/RFO-DIIS
 Swapping is turned off.
 Update second derivatives using D2CorX and points    1    2    3    4
 DE= -2.89D-05 DEPred=-2.80D-05 R= 1.03D+00
 TightC=F SS=  1.41D+00  RLast= 2.97D-02 DXNew= 8.4853D-01 8.8997D-02
 Trust test= 1.03D+00 RLast= 2.97D-02 DXMaxT set to 5.05D-01
 ITU=  1  1  1  0
     Eigenvalues ---    0.00440   0.00877   0.01421   0.05026   0.05265
     Eigenvalues ---    0.05766   0.06098   0.11611   0.11744   0.13741
     Eigenvalues ---    0.13865   0.16000   0.20400   0.20995   0.22062
     Eigenvalues ---    0.30272   0.33625   0.34207   0.34247   0.38562
     Eigenvalues ---    0.42388   0.51319   0.52736   0.62932
 En-DIIS/RFO-DIIS IScMMF=        0 using points:     4    3
 RFO step:  Lambda=-3.26827455D-06.
 DidBck=F Rises=F RFO-DIIS coefs:    1.03218   -0.03218
 Iteration  1 RMS(Cart)=  0.00418406 RMS(Int)=  0.00003402
 Iteration  2 RMS(Cart)=  0.00002902 RMS(Int)=  0.00000023
 Iteration  3 RMS(Cart)=  0.00000000 RMS(Int)=  0.00000023
 Variable       Old X    -DE/DX   Delta X   Delta X   Delta X     New X
                                 (Linear)    (Quad)   (Total)
    R1        2.66821   0.00063  -0.00010   0.00075   0.00065   2.66886
    R2        2.88376   0.00063  -0.00005   0.00141   0.00136   2.88512
    R3        2.12244   0.00001  -0.00007  -0.00031  -0.00038   2.12206
    R4        2.11967   0.00032  -0.00009  -0.00001  -0.00010   2.11957
    R5        1.82291   0.00014  -0.00003  -0.00010  -0.00013   1.82278
    R6        2.66819   0.00063  -0.00010   0.00075   0.00065   2.66884
    R7        2.12243   0.00001  -0.00007  -0.00032  -0.00039   2.12205
    R8        2.11969   0.00032  -0.00009  -0.00000  -0.00010   2.11960
    R9        1.82291   0.00014  -0.00003  -0.00010  -0.00013   1.82278
    A1        1.93908  -0.00006   0.00007   0.00089   0.00096   1.94004
    A2        1.82752   0.00006  -0.00010  -0.00047  -0.00057   1.82695
    A3        1.93545   0.00003  -0.00006  -0.00005  -0.00011   1.93534
    A4        1.93369  -0.00007   0.00000  -0.00087  -0.00086   1.93283
    A5        1.92149   0.00009   0.00003   0.00046   0.00048   1.92197
    A6        1.90460  -0.00004   0.00005  -0.00003   0.00002   1.90462
    A7        1.87109   0.00001  -0.00016  -0.00032  -0.00048   1.87060
    A8        1.93898  -0.00005   0.00007   0.00094   0.00101   1.93999
    A9        1.93379  -0.00007   0.00000  -0.00086  -0.00086   1.93293
   A10        1.92128   0.00009   0.00003   0.00047   0.00050   1.92178
   A11        1.82750   0.00006  -0.00010  -0.00049  -0.00058   1.82691
   A12        1.93564   0.00002  -0.00006  -0.00010  -0.00016   1.93548
   A13        1.90466  -0.00004   0.00004  -0.00003   0.00002   1.90468
   A14        1.87110   0.00001  -0.00016  -0.00033  -0.00049   1.87062
    D1       -1.14452   0.00009   0.00032   0.01328   0.01360  -1.13092
    D2        3.05039   0.00017   0.00034   0.01413   0.01446   3.06485
    D3        0.99845   0.00017   0.00036   0.01445   0.01482   1.01326
    D4       -3.13664  -0.00000  -0.00001  -0.00063  -0.00064  -3.13728
    D5        1.12279   0.00000   0.00006  -0.00007  -0.00001   1.12278
    D6       -0.98562   0.00005  -0.00002   0.00022   0.00020  -0.98541
    D7       -1.11286  -0.00001  -0.00009  -0.00120  -0.00129  -1.11415
    D8       -3.13662  -0.00000  -0.00002  -0.00064  -0.00066  -3.13727
    D9        1.03816   0.00004  -0.00009  -0.00035  -0.00045   1.03772
   D10        0.99554  -0.00005  -0.00001  -0.00149  -0.00150   0.99404
   D11       -1.02821  -0.00005   0.00006  -0.00094  -0.00087  -1.02908
   D12       -3.13661  -0.00000  -0.00001  -0.00065  -0.00066  -3.13728
   D13        1.14754  -0.00009  -0.00034  -0.01416  -0.01450   1.13303
   D14       -3.04732  -0.00018  -0.00036  -0.01499  -0.01535  -3.06267
   D15       -0.99523  -0.00018  -0.00039  -0.01535  -0.01574  -1.01097
         Item               Value     Threshold  Converged?
 Maximum Force            0.000632     0.000450     NO 
 RMS     Force            0.000207     0.000300     YES
 Maximum Displacement     0.014409     0.001800     NO 
 RMS     Displacement     0.004184     0.001200     NO 
 Predicted change in Energy=-7.441540D-06
 GradGradGradGradGradGradGradGradGradGradGradGradGradGradGradGradGradGrad

                          Input orientation:                          
 ---------------------------------------------------------------------
 Center     Atomic      Atomic             Coordinates (Angstroms)
 Number     Number       Type             X           Y           Z
 ---------------------------------------------------------------------
      1          6           0        2.265088    2.306750    2.120658
      2          8           0        1.215316    2.756906    2.951276
      3          6           0        1.857182    1.055871    1.346158
      4          8           0        2.908925    0.602522    0.519799
      5          1           0        3.108903    2.080227    2.826121
      6          1           0        2.586487    3.112857    1.410062
      7          1           0        0.492008    3.028985    2.374042
      8          1           0        1.016375    1.283314    0.637424
      9          1           0        1.531542    0.251416    2.056718
     10          1           0        3.628865    0.327743    1.099962
 ---------------------------------------------------------------------
                    Distance matrix (angstroms):
                    1          2          3          4          5
     1  C    0.000000
     2  O    1.412298   0.000000
     3  C    1.526741   2.425266   0.000000
     4  O    2.425216   3.663572   1.412288   0.000000
     5  H    1.122948   2.014752   2.192351   2.746402   0.000000
     6  H    1.121629   2.093359   2.183383   2.682968   1.828787
     7  H    1.931227   0.964573   2.610254   3.894538   2.820045
     8  H    2.192416   2.750447   1.122938   2.014710   3.131155
     9  H    2.183250   2.679125   1.121643   2.093461   2.534679
    10  H    2.611164   3.892738   1.931228   0.964575   2.514197
                    6          7          8          9         10
     6  H    0.000000
     7  H    2.307192   0.000000
     8  H    2.531689   2.517572   0.000000
     9  H    3.117518   2.982652   1.828826   0.000000
    10  H    2.989911   4.331265   2.819957   2.306506   0.000000
 Stoichiometry    C2H6O2
 Framework group  C1[X(C2H6O2)]
 Deg. of freedom    24
 Full point group                 C1      NOp   1
 Largest Abelian subgroup         C1      NOp   1
 Largest concise Abelian subgroup C1      NOp   1
                         Standard orientation:                         
 ---------------------------------------------------------------------
 Center     Atomic      Atomic             Coordinates (Angstroms)
 Number     Number       Type             X           Y           Z
 ---------------------------------------------------------------------
      1          6           0       -0.564588   -0.508577    0.073259
      2          8           0       -1.825634    0.100000   -0.111087
      3          6           0        0.564560    0.508937   -0.070372
      4          8           0        1.825840   -0.100789    0.108420
      5          1           0       -0.503607   -1.286952   -0.733851
      6          1           0       -0.505766   -1.011526    1.074075
      7          1           0       -1.945931    0.730041    0.609314
      8          1           0        0.506315    1.284797    0.739343
      9          1           0        0.502888    1.014989   -1.069467
     10          1           0        1.944622   -0.727193   -0.615399
 ---------------------------------------------------------------------
 Rotational constants (GHZ):     28.6866711      3.9616845      3.7146547
 Standard basis: VSTO-6G (5D, 7F)
 There are    22 symmetry adapted cartesian basis functions of A   symmetry.
 There are    22 symmetry adapted basis functions of A   symmetry.
    22 basis functions,   132 primitive gaussians,    22 cartesian basis functions
    13 alpha electrons       13 beta electrons
       nuclear repulsion energy       102.0175261184 Hartrees.
 Integral buffers will be    131072 words long.
 Regular integral format.
 Two-electron integral symmetry is turned off.
 Do NDO integrals.
 One-electron integrals computed using PRISM.
 NBasis=    22 RedAO= F EigKep=  0.00D+00  NBF=    22
 NBsUse=    22 1.00D-04 EigRej=  0.00D+00 NBFU=    22
 Initial guess from the checkpoint file:  "1-2-ethanediol-open-opt.chk"
 B after Tr=    -0.000000    0.000000    0.000000
         Rot=    1.000000    0.000634   -0.000123    0.000117 Ang=   0.08 deg.
 Overlap will be assumed to be unity.
 Keep J ints in memory in canonical form, NReq=887849.
 Requested convergence on RMS density matrix=1.00D-08 within 128 cycles.
 Requested convergence on MAX density matrix=1.00D-06.
 Requested convergence on             energy=1.00D-06.
 No special actions if energy rises.
 SCF Done:  E(RAM1) = -0.175834733663     A.U. after    9 cycles
            NFock=  8  Conv=0.87D-08     -V/T= 0.9895
 Calling FoFJK, ICntrl=      2127 FMM=F ISym2X=0 I1Cent= 0 IOpClX= 0 NMat=1 NMatS=1 NMatT=0.
 ***** Axes restored to original set *****
 -------------------------------------------------------------------
 Center     Atomic                   Forces (Hartrees/Bohr)
 Number     Number              X              Y              Z
 -------------------------------------------------------------------
      1        6           0.000151989   -0.000272566    0.000072761
      2        8           0.000022537    0.000134735    0.000046187
      3        6          -0.000145117    0.000274877   -0.000069523
      4        8          -0.000032587   -0.000145180   -0.000048724
      5        1           0.000150555   -0.000084706    0.000037552
      6        1           0.000127976    0.000242377   -0.000133501
      7        1          -0.000259936   -0.000089052   -0.000067200
      8        1          -0.000154173    0.000088511   -0.000034904
      9        1          -0.000125072   -0.000246843    0.000128302
     10        1           0.000263827    0.000097846    0.000069050
 -------------------------------------------------------------------
 Cartesian Forces:  Max     0.000274877 RMS     0.000148712

 GradGradGradGradGradGradGradGradGradGradGradGradGradGradGradGradGradGrad
 Berny optimization.
 Using GEDIIS/GDIIS optimizer.
 FormGI is forming the generalized inverse of G from B-inverse, IUseBI=4.
 Internal  Forces:  Max     0.000295444 RMS     0.000129688
 Search for a local minimum.
 Step number   5 out of a maximum of   48
 All quantities printed in internal units (Hartrees-Bohrs-Radians)
 Mixed Optimization -- En-DIIS/RFO-DIIS
 Swapping is turned off.
 Update second derivatives using D2CorX and points    1    2    3    4    5
 DE= -1.17D-05 DEPred=-7.44D-06 R= 1.57D+00
 TightC=F SS=  1.41D+00  RLast= 3.64D-02 DXNew= 8.4853D-01 1.0906D-01
 Trust test= 1.57D+00 RLast= 3.64D-02 DXMaxT set to 5.05D-01
 ITU=  1  1  1  1  0
     Eigenvalues ---    0.00270   0.00442   0.01421   0.05019   0.05610
     Eigenvalues ---    0.05767   0.06134   0.11616   0.11754   0.13663
     Eigenvalues ---    0.13869   0.16000   0.20626   0.22063   0.23322
     Eigenvalues ---    0.32943   0.34207   0.34247   0.36200   0.40166
     Eigenvalues ---    0.42389   0.52736   0.53446   0.61037
 En-DIIS/RFO-DIIS IScMMF=        0 using points:     5    4    3
 RFO step:  Lambda=-2.04609782D-06.
 DidBck=F Rises=F RFO-DIIS coefs:    2.33360   -1.27600   -0.05760
 Iteration  1 RMS(Cart)=  0.01111537 RMS(Int)=  0.00021061
 Iteration  2 RMS(Cart)=  0.00017999 RMS(Int)=  0.00000035
 Iteration  3 RMS(Cart)=  0.00000005 RMS(Int)=  0.00000034
 Variable       Old X    -DE/DX   Delta X   Delta X   Delta X     New X
                                 (Linear)    (Quad)   (Total)
    R1        2.66886   0.00018   0.00068  -0.00077  -0.00009   2.66877
    R2        2.88512  -0.00003   0.00172  -0.00209  -0.00037   2.88475
    R3        2.12206   0.00015  -0.00063   0.00072   0.00009   2.12216
    R4        2.11957   0.00030  -0.00030   0.00054   0.00024   2.11981
    R5        1.82278   0.00021  -0.00023   0.00031   0.00008   1.82286
    R6        2.66884   0.00018   0.00069  -0.00077  -0.00008   2.66876
    R7        2.12205   0.00016  -0.00064   0.00073   0.00009   2.12213
    R8        2.11960   0.00029  -0.00029   0.00054   0.00025   2.11984
    R9        1.82278   0.00021  -0.00023   0.00031   0.00008   1.82286
    A1        1.94004  -0.00023   0.00140  -0.00113   0.00027   1.94031
    A2        1.82695   0.00014  -0.00093   0.00125   0.00032   1.82727
    A3        1.93534   0.00005  -0.00024  -0.00123  -0.00148   1.93386
    A4        1.93283   0.00001  -0.00114   0.00068  -0.00046   1.93237
    A5        1.92197   0.00008   0.00069  -0.00020   0.00049   1.92247
    A6        1.90462  -0.00004   0.00011   0.00074   0.00084   1.90547
    A7        1.87060   0.00012  -0.00094   0.00099   0.00006   1.87066
    A8        1.93999  -0.00022   0.00147  -0.00109   0.00038   1.94037
    A9        1.93293   0.00001  -0.00114   0.00064  -0.00050   1.93243
   A10        1.92178   0.00008   0.00071  -0.00016   0.00055   1.92233
   A11        1.82691   0.00014  -0.00094   0.00126   0.00031   1.82723
   A12        1.93548   0.00004  -0.00031  -0.00128  -0.00160   1.93388
   A13        1.90468  -0.00004   0.00010   0.00073   0.00083   1.90551
   A14        1.87062   0.00012  -0.00094   0.00100   0.00006   1.87068
    D1       -1.13092   0.00010   0.01870   0.01695   0.03565  -1.09527
    D2        3.06485   0.00013   0.01989   0.01599   0.03588   3.10073
    D3        1.01326   0.00008   0.02041   0.01503   0.03544   1.04870
    D4       -3.13728  -0.00000  -0.00088  -0.00088  -0.00176  -3.13904
    D5        1.12278  -0.00004   0.00009  -0.00216  -0.00207   1.12071
    D6       -0.98541  -0.00005   0.00023  -0.00338  -0.00315  -0.98856
    D7       -1.11415   0.00003  -0.00187   0.00038  -0.00149  -1.11564
    D8       -3.13727  -0.00000  -0.00091  -0.00089  -0.00180  -3.13907
    D9        1.03772  -0.00001  -0.00076  -0.00212  -0.00288   1.03484
   D10        0.99404   0.00004  -0.00203   0.00161  -0.00041   0.99363
   D11       -1.02908   0.00001  -0.00106   0.00033  -0.00072  -1.02980
   D12       -3.13728  -0.00000  -0.00091  -0.00089  -0.00180  -3.13908
   D13        1.13303  -0.00011  -0.01996  -0.01790  -0.03786   1.09517
   D14       -3.06267  -0.00013  -0.02111  -0.01696  -0.03807  -3.10074
   D15       -1.01097  -0.00008  -0.02168  -0.01603  -0.03771  -1.04867
         Item               Value     Threshold  Converged?
 Maximum Force            0.000295     0.000450     YES
 RMS     Force            0.000130     0.000300     YES
 Maximum Displacement     0.039581     0.001800     NO 
 RMS     Displacement     0.011102     0.001200     NO 
 Predicted change in Energy=-1.196966D-05
 GradGradGradGradGradGradGradGradGradGradGradGradGradGradGradGradGradGrad

                          Input orientation:                          
 ---------------------------------------------------------------------
 Center     Atomic      Atomic             Coordinates (Angstroms)
 Number     Number       Type             X           Y           Z
 ---------------------------------------------------------------------
      1          6           0        2.268704    2.305574    2.120172
      2          8           0        1.220855    2.764994    2.948060
      3          6           0        1.853436    1.056334    1.347327
      4          8           0        2.902365    0.594933    0.521923
      5          1           0        3.109786    2.073945    2.827317
      6          1           0        2.595955    3.108960    1.408967
      7          1           0        0.488324    3.010752    2.370583
      8          1           0        1.014120    1.288477    0.638276
      9          1           0        1.523720    0.253933    2.058534
     10          1           0        3.633425    0.348688    1.101060
 ---------------------------------------------------------------------
                    Distance matrix (angstroms):
                    1          2          3          4          5
     1  C    0.000000
     2  O    1.412251   0.000000
     3  C    1.526544   2.425288   0.000000
     4  O    2.425329   3.663712   1.412245   0.000000
     5  H    1.122998   2.014990   2.191875   2.746879   0.000000
     6  H    1.121756   2.092372   2.183668   2.683481   1.829479
     7  H    1.931252   0.964614   2.594288   3.883468   2.821041
     8  H    2.191913   2.749171   1.122984   2.014946   3.130603
     9  H    2.183582   2.681122   1.121774   2.092394   2.533590
    10  H    2.594312   3.882066   1.931262   0.964617   2.496132
                    6          7          8          9         10
     6  H    0.000000
     7  H    2.318720   0.000000
     8  H    2.531863   2.498716   0.000000
     9  H    3.118142   2.961330   1.829509   0.000000
    10  H    2.964836   4.311604   2.821016   2.318747   0.000000
 Stoichiometry    C2H6O2
 Framework group  C1[X(C2H6O2)]
 Deg. of freedom    24
 Full point group                 C1      NOp   1
 Largest Abelian subgroup         C1      NOp   1
 Largest concise Abelian subgroup C1      NOp   1
                         Standard orientation:                         
 ---------------------------------------------------------------------
 Center     Atomic      Atomic             Coordinates (Angstroms)
 Number     Number       Type             X           Y           Z
 ---------------------------------------------------------------------
      1          6           0       -0.563850   -0.509185    0.073568
      2          8           0       -1.826004    0.097822   -0.107981
      3          6           0        0.563834    0.509397   -0.071888
      4          8           0        1.826176   -0.098184    0.106360
      5          1           0       -0.503086   -1.287148   -0.734025
      6          1           0       -0.503810   -1.011812    1.074616
      7          1           0       -1.931851    0.750675    0.594201
      8          1           0        0.504677    1.285892    0.737216
      9          1           0        0.502112    1.013822   -1.071948
     10          1           0        1.930677   -0.749804   -0.597172
 ---------------------------------------------------------------------
 Rotational constants (GHZ):     28.6623589      3.9661430      3.7155675
 Standard basis: VSTO-6G (5D, 7F)
 There are    22 symmetry adapted cartesian basis functions of A   symmetry.
 There are    22 symmetry adapted basis functions of A   symmetry.
    22 basis functions,   132 primitive gaussians,    22 cartesian basis functions
    13 alpha electrons       13 beta electrons
       nuclear repulsion energy       102.0329824964 Hartrees.
 Integral buffers will be    131072 words long.
 Regular integral format.
 Two-electron integral symmetry is turned off.
 Do NDO integrals.
 One-electron integrals computed using PRISM.
 NBasis=    22 RedAO= F EigKep=  0.00D+00  NBF=    22
 NBsUse=    22 1.00D-04 EigRej=  0.00D+00 NBFU=    22
 Initial guess from the checkpoint file:  "1-2-ethanediol-open-opt.chk"
 B after Tr=     0.000000   -0.000000   -0.000000
         Rot=    0.999997    0.002251   -0.000279    0.000135 Ang=   0.26 deg.
 Overlap will be assumed to be unity.
 Keep J ints in memory in canonical form, NReq=887849.
 Requested convergence on RMS density matrix=1.00D-08 within 128 cycles.
 Requested convergence on MAX density matrix=1.00D-06.
 Requested convergence on             energy=1.00D-06.
 No special actions if energy rises.
 SCF Done:  E(RAM1) = -0.175845514960     A.U. after   10 cycles
            NFock=  9  Conv=0.82D-08     -V/T= 0.9895
 Calling FoFJK, ICntrl=      2127 FMM=F ISym2X=0 I1Cent= 0 IOpClX= 0 NMat=1 NMatS=1 NMatT=0.
 ***** Axes restored to original set *****
 -------------------------------------------------------------------
 Center     Atomic                   Forces (Hartrees/Bohr)
 Number     Number              X              Y              Z
 -------------------------------------------------------------------
      1        6          -0.000076538   -0.000246887    0.000158349
      2        8           0.000002288    0.000091268    0.000217117
      3        6           0.000081187    0.000241831   -0.000155057
      4        8          -0.000002123   -0.000087499   -0.000217839
      5        1           0.000131038    0.000070501    0.000053100
      6        1           0.000127113    0.000189284   -0.000126682
      7        1          -0.000219094    0.000097369   -0.000064233
      8        1          -0.000137652   -0.000068478   -0.000052087
      9        1          -0.000124185   -0.000188981    0.000122276
     10        1           0.000217967   -0.000098409    0.000065055
 -------------------------------------------------------------------
 Cartesian Forces:  Max     0.000246887 RMS     0.000141428

 GradGradGradGradGradGradGradGradGradGradGradGradGradGradGradGradGradGrad
 Berny optimization.
 Using GEDIIS/GDIIS optimizer.
 FormGI is forming the generalized inverse of G from B-inverse, IUseBI=4.
 Internal  Forces:  Max     0.000311853 RMS     0.000134775
 Search for a local minimum.
 Step number   6 out of a maximum of   48
 All quantities printed in internal units (Hartrees-Bohrs-Radians)
 Mixed Optimization -- En-DIIS/RFO-DIIS
 Swapping is turned off.
 Update second derivatives using D2CorX and points    1    2    3    4    5
                                                      6
 DE= -1.08D-05 DEPred=-1.20D-05 R= 9.01D-01
 TightC=F SS=  1.41D+00  RLast= 9.03D-02 DXNew= 8.4853D-01 2.7103D-01
 Trust test= 9.01D-01 RLast= 9.03D-02 DXMaxT set to 5.05D-01
 ITU=  1  1  1  1  1  0
     Eigenvalues ---    0.00282   0.00444   0.01421   0.05019   0.05612
     Eigenvalues ---    0.05766   0.06182   0.11620   0.11928   0.13753
     Eigenvalues ---    0.13870   0.16000   0.20816   0.22066   0.22521
     Eigenvalues ---    0.33070   0.34207   0.34247   0.35895   0.38622
     Eigenvalues ---    0.42388   0.52736   0.53720   0.62573
 En-DIIS/RFO-DIIS IScMMF=        0 using points:     6    5    4    3
 RFO step:  Lambda=-1.05551000D-06.
 DidBck=F Rises=F RFO-DIIS coefs:    0.84983    0.41887   -0.36740    0.09871
 Iteration  1 RMS(Cart)=  0.00097341 RMS(Int)=  0.00000048
 Iteration  2 RMS(Cart)=  0.00000040 RMS(Int)=  0.00000017
 Variable       Old X    -DE/DX   Delta X   Delta X   Delta X     New X
                                 (Linear)    (Quad)   (Total)
    R1        2.66877   0.00031   0.00050  -0.00019   0.00032   2.66908
    R2        2.88475   0.00028   0.00058  -0.00007   0.00051   2.88526
    R3        2.12216   0.00012   0.00010   0.00015   0.00025   2.12241
    R4        2.11981   0.00025   0.00022   0.00039   0.00060   2.12041
    R5        1.82286   0.00023   0.00005   0.00031   0.00036   1.82321
    R6        2.66876   0.00031   0.00050  -0.00018   0.00032   2.66907
    R7        2.12213   0.00012   0.00010   0.00016   0.00026   2.12240
    R8        2.11984   0.00025   0.00022   0.00038   0.00059   2.12044
    R9        1.82286   0.00023   0.00005   0.00031   0.00036   1.82322
    A1        1.94031   0.00016   0.00001   0.00060   0.00060   1.94091
    A2        1.82727  -0.00006   0.00009  -0.00024  -0.00014   1.82712
    A3        1.93386  -0.00006   0.00036  -0.00064  -0.00028   1.93358
    A4        1.93237   0.00004  -0.00017   0.00074   0.00056   1.93293
    A5        1.92247  -0.00002  -0.00003   0.00000  -0.00003   1.92244
    A6        1.90547  -0.00006  -0.00026  -0.00048  -0.00074   1.90473
    A7        1.87066   0.00017   0.00036   0.00019   0.00055   1.87121
    A8        1.94037   0.00015   0.00000   0.00059   0.00059   1.94096
    A9        1.93243   0.00004  -0.00017   0.00071   0.00054   1.93297
   A10        1.92233  -0.00002  -0.00003   0.00003  -0.00000   1.92233
   A11        1.82723  -0.00006   0.00009  -0.00022  -0.00013   1.82710
   A12        1.93388  -0.00006   0.00037  -0.00065  -0.00028   1.93361
   A13        1.90551  -0.00006  -0.00026  -0.00049  -0.00075   1.90476
   A14        1.87068   0.00017   0.00035   0.00020   0.00055   1.87123
    D1       -1.09527   0.00001  -0.00268   0.00151  -0.00117  -1.09643
    D2        3.10073  -0.00008  -0.00253   0.00047  -0.00207   3.09866
    D3        1.04870   0.00005  -0.00246   0.00148  -0.00098   1.04772
    D4       -3.13904  -0.00000   0.00014  -0.00032  -0.00019  -3.13923
    D5        1.12071  -0.00004   0.00013  -0.00085  -0.00072   1.11999
    D6       -0.98856   0.00001   0.00058  -0.00072  -0.00013  -0.98870
    D7       -1.11564   0.00004   0.00015   0.00020   0.00035  -1.11529
    D8       -3.13907  -0.00000   0.00014  -0.00032  -0.00018  -3.13925
    D9        1.03484   0.00006   0.00060  -0.00019   0.00041   1.03524
   D10        0.99363  -0.00002  -0.00031   0.00008  -0.00023   0.99340
   D11       -1.02980  -0.00006  -0.00032  -0.00044  -0.00076  -1.03056
   D12       -3.13908  -0.00000   0.00014  -0.00031  -0.00017  -3.13925
   D13        1.09517  -0.00001   0.00284  -0.00156   0.00128   1.09645
   D14       -3.10074   0.00008   0.00269  -0.00054   0.00215  -3.09859
   D15       -1.04867  -0.00005   0.00262  -0.00156   0.00106  -1.04761
         Item               Value     Threshold  Converged?
 Maximum Force            0.000312     0.000450     YES
 RMS     Force            0.000135     0.000300     YES
 Maximum Displacement     0.003017     0.001800     NO 
 RMS     Displacement     0.000973     0.001200     YES
 Predicted change in Energy=-9.044594D-07
 GradGradGradGradGradGradGradGradGradGradGradGradGradGradGradGradGradGrad

                          Input orientation:                          
 ---------------------------------------------------------------------
 Center     Atomic      Atomic             Coordinates (Angstroms)
 Number     Number       Type             X           Y           Z
 ---------------------------------------------------------------------
      1          6           0        2.268402    2.305651    2.120484
      2          8           0        1.220450    2.765293    2.948403
      3          6           0        1.853745    1.056223    1.347085
      4          8           0        2.902705    0.594755    0.521471
      5          1           0        3.109742    2.074830    2.827797
      6          1           0        2.595834    3.109469    1.409347
      7          1           0        0.487951    3.012349    2.371124
      8          1           0        1.014040    1.287548    0.638007
      9          1           0        1.524016    0.253313    2.058205
     10          1           0        3.633805    0.347160    1.100296
 ---------------------------------------------------------------------
                    Distance matrix (angstroms):
                    1          2          3          4          5
     1  C    0.000000
     2  O    1.412418   0.000000
     3  C    1.526813   2.426150   0.000000
     4  O    2.426180   3.664862   1.412412   0.000000
     5  H    1.123131   2.015120   2.192623   2.748204   0.000000
     6  H    1.122074   2.092566   2.184122   2.684452   1.829367
     7  H    1.931903   0.964802   2.596243   3.885487   2.821574
     8  H    2.192647   2.750321   1.123124   2.015093   3.131607
     9  H    2.184052   2.682285   1.122087   2.092587   2.534704
    10  H    2.596305   3.884218   1.931913   0.964805   2.498749
                    6          7          8          9         10
     6  H    0.000000
     7  H    2.318969   0.000000
     8  H    2.533069   2.501080   0.000000
     9  H    3.118885   2.963719   1.829393   0.000000
    10  H    2.967027   4.314468   2.821562   2.318967   0.000000
 Stoichiometry    C2H6O2
 Framework group  C1[X(C2H6O2)]
 Deg. of freedom    24
 Full point group                 C1      NOp   1
 Largest Abelian subgroup         C1      NOp   1
 Largest concise Abelian subgroup C1      NOp   1
                         Standard orientation:                         
 ---------------------------------------------------------------------
 Center     Atomic      Atomic             Coordinates (Angstroms)
 Number     Number       Type             X           Y           Z
 ---------------------------------------------------------------------
      1          6           0       -0.564200   -0.509019    0.073410
      2          8           0       -1.826577    0.097945   -0.108034
      3          6           0        0.564186    0.509216   -0.071853
      4          8           0        1.826732   -0.098291    0.106535
      5          1           0       -0.503932   -1.287594   -0.733814
      6          1           0       -0.504404   -1.011966    1.074669
      7          1           0       -1.933407    0.750218    0.594796
      8          1           0        0.505388    1.286423    0.736787
      9          1           0        0.502841    1.013848   -1.072184
     10          1           0        1.932353   -0.749352   -0.597604
 ---------------------------------------------------------------------
 Rotational constants (GHZ):     28.6636152      3.9632715      3.7131357
 Standard basis: VSTO-6G (5D, 7F)
 There are    22 symmetry adapted cartesian basis functions of A   symmetry.
 There are    22 symmetry adapted basis functions of A   symmetry.
    22 basis functions,   132 primitive gaussians,    22 cartesian basis functions
    13 alpha electrons       13 beta electrons
       nuclear repulsion energy       102.0191479519 Hartrees.
 Integral buffers will be    131072 words long.
 Regular integral format.
 Two-electron integral symmetry is turned off.
 Do NDO integrals.
 One-electron integrals computed using PRISM.
 NBasis=    22 RedAO= F EigKep=  0.00D+00  NBF=    22
 NBsUse=    22 1.00D-04 EigRej=  0.00D+00 NBFU=    22
 Initial guess from the checkpoint file:  "1-2-ethanediol-open-opt.chk"
 B after Tr=     0.000000   -0.000000   -0.000000
         Rot=    1.000000   -0.000004    0.000022    0.000029 Ang=  -0.00 deg.
 Overlap will be assumed to be unity.
 Keep J ints in memory in canonical form, NReq=887849.
 Requested convergence on RMS density matrix=1.00D-08 within 128 cycles.
 Requested convergence on MAX density matrix=1.00D-06.
 Requested convergence on             energy=1.00D-06.
 No special actions if energy rises.
 SCF Done:  E(RAM1) = -0.175846412257     A.U. after    9 cycles
            NFock=  8  Conv=0.28D-08     -V/T= 0.9895
 Calling FoFJK, ICntrl=      2127 FMM=F ISym2X=0 I1Cent= 0 IOpClX= 0 NMat=1 NMatS=1 NMatT=0.
 ***** Axes restored to original set *****
 -------------------------------------------------------------------
 Center     Atomic                   Forces (Hartrees/Bohr)
 Number     Number              X              Y              Z
 -------------------------------------------------------------------
      1        6          -0.000079684   -0.000165107   -0.000023408
      2        8           0.000027045   -0.000025309    0.000017313
      3        6           0.000082026    0.000163298    0.000025214
      4        8          -0.000028191    0.000028091   -0.000019198
      5        1           0.000020344    0.000009426   -0.000011052
      6        1           0.000042028    0.000030967   -0.000037898
      7        1          -0.000037148    0.000011348   -0.000026576
      8        1          -0.000023108   -0.000009700    0.000012840
      9        1          -0.000039092   -0.000031645    0.000035556
     10        1           0.000035779   -0.000011369    0.000027209
 -------------------------------------------------------------------
 Cartesian Forces:  Max     0.000165107 RMS     0.000053401

 GradGradGradGradGradGradGradGradGradGradGradGradGradGradGradGradGradGrad
 Berny optimization.
 Using GEDIIS/GDIIS optimizer.
 FormGI is forming the generalized inverse of G from B-inverse, IUseBI=4.
 Internal  Forces:  Max     0.000162272 RMS     0.000033382
 Search for a local minimum.
 Step number   7 out of a maximum of   48
 All quantities printed in internal units (Hartrees-Bohrs-Radians)
 Mixed Optimization -- En-DIIS/RFO-DIIS
 Swapping is turned off.
 Update second derivatives using D2CorX and points    1    2    3    4    5
                                                      6    7
 DE= -8.97D-07 DEPred=-9.04D-07 R= 9.92D-01
 Trust test= 9.92D-01 RLast= 4.50D-03 DXMaxT set to 5.05D-01
 ITU=  0  1  1  1  1  1  0
     Eigenvalues ---    0.00287   0.00443   0.01421   0.05014   0.05557
     Eigenvalues ---    0.05762   0.05832   0.11625   0.12067   0.13644
     Eigenvalues ---    0.13872   0.16000   0.20697   0.22064   0.23052
     Eigenvalues ---    0.33511   0.34207   0.34248   0.35919   0.39714
     Eigenvalues ---    0.42390   0.51534   0.52736   0.68768
 En-DIIS/RFO-DIIS IScMMF=        0 using points:     7    6    5    4    3
 RFO step:  Lambda=-7.30982710D-08.
 DidBck=F Rises=F RFO-DIIS coefs:    1.01616    0.01666   -0.11060    0.06161    0.01617
 Iteration  1 RMS(Cart)=  0.00020446 RMS(Int)=  0.00000008
 Iteration  2 RMS(Cart)=  0.00000002 RMS(Int)=  0.00000008
 Variable       Old X    -DE/DX   Delta X   Delta X   Delta X     New X
                                 (Linear)    (Quad)   (Total)
    R1        2.66908  -0.00000   0.00000   0.00004   0.00004   2.66912
    R2        2.88526  -0.00016  -0.00008  -0.00035  -0.00043   2.88482
    R3        2.12241   0.00001   0.00007  -0.00006   0.00002   2.12242
    R4        2.12041   0.00006   0.00007   0.00015   0.00022   2.12063
    R5        1.82321   0.00005   0.00003   0.00008   0.00011   1.82333
    R6        2.66907  -0.00000   0.00000   0.00003   0.00003   2.66911
    R7        2.12240   0.00001   0.00007  -0.00005   0.00002   2.12242
    R8        2.12044   0.00006   0.00007   0.00014   0.00021   2.12065
    R9        1.82322   0.00005   0.00003   0.00008   0.00011   1.82333
    A1        1.94091  -0.00003  -0.00009   0.00010   0.00001   1.94093
    A2        1.82712   0.00002   0.00010  -0.00001   0.00009   1.82722
    A3        1.93358   0.00002  -0.00002   0.00018   0.00016   1.93374
    A4        1.93293   0.00001   0.00006   0.00001   0.00007   1.93300
    A5        1.92244  -0.00000  -0.00004  -0.00001  -0.00004   1.92239
    A6        1.90473  -0.00002  -0.00001  -0.00029  -0.00030   1.90443
    A7        1.87121   0.00000   0.00013  -0.00011   0.00002   1.87122
    A8        1.94096  -0.00003  -0.00009   0.00010   0.00001   1.94096
    A9        1.93297   0.00001   0.00006   0.00001   0.00006   1.93303
   A10        1.92233   0.00000  -0.00003   0.00001  -0.00002   1.92231
   A11        1.82710   0.00002   0.00010  -0.00001   0.00009   1.82719
   A12        1.93361   0.00002  -0.00002   0.00018   0.00016   1.93377
   A13        1.90476  -0.00002  -0.00001  -0.00029  -0.00030   1.90446
   A14        1.87123   0.00000   0.00013  -0.00012   0.00001   1.87123
    D1       -1.09643   0.00001  -0.00007   0.00006  -0.00001  -1.09644
    D2        3.09866  -0.00000  -0.00015  -0.00001  -0.00016   3.09850
    D3        1.04772  -0.00000  -0.00019   0.00025   0.00006   1.04778
    D4       -3.13923  -0.00000  -0.00000  -0.00026  -0.00026  -3.13949
    D5        1.11999  -0.00001  -0.00011  -0.00031  -0.00042   1.11957
    D6       -0.98870   0.00001  -0.00011   0.00004  -0.00007  -0.98876
    D7       -1.11529   0.00001   0.00010  -0.00020  -0.00009  -1.11539
    D8       -3.13925  -0.00000  -0.00000  -0.00025  -0.00025  -3.13950
    D9        1.03524   0.00001  -0.00001   0.00011   0.00010   1.03535
   D10        0.99340  -0.00001   0.00011  -0.00055  -0.00045   0.99295
   D11       -1.03056  -0.00002   0.00000  -0.00061  -0.00061  -1.03117
   D12       -3.13925  -0.00000  -0.00000  -0.00025  -0.00025  -3.13950
   D13        1.09645  -0.00000   0.00008  -0.00003   0.00005   1.09650
   D14       -3.09859   0.00000   0.00016   0.00002   0.00018  -3.09841
   D15       -1.04761   0.00000   0.00020  -0.00024  -0.00005  -1.04766
         Item               Value     Threshold  Converged?
 Maximum Force            0.000162     0.000450     YES
 RMS     Force            0.000033     0.000300     YES
 Maximum Displacement     0.000591     0.001800     YES
 RMS     Displacement     0.000204     0.001200     YES
 Predicted change in Energy=-7.216373D-08
 Optimization completed.
    -- Stationary point found.
                           ----------------------------
                           !   Optimized Parameters   !
                           ! (Angstroms and Degrees)  !
 --------------------------                            --------------------------
 ! Name  Definition              Value          Derivative Info.                !
 --------------------------------------------------------------------------------
 ! R1    R(1,2)                  1.4124         -DE/DX =    0.0                 !
 ! R2    R(1,3)                  1.5268         -DE/DX =   -0.0002              !
 ! R3    R(1,5)                  1.1231         -DE/DX =    0.0                 !
 ! R4    R(1,6)                  1.1221         -DE/DX =    0.0001              !
 ! R5    R(2,7)                  0.9648         -DE/DX =    0.0                 !
 ! R6    R(3,4)                  1.4124         -DE/DX =    0.0                 !
 ! R7    R(3,8)                  1.1231         -DE/DX =    0.0                 !
 ! R8    R(3,9)                  1.1221         -DE/DX =    0.0001              !
 ! R9    R(4,10)                 0.9648         -DE/DX =    0.0                 !
 ! A1    A(2,1,3)              111.2062         -DE/DX =    0.0                 !
 ! A2    A(2,1,5)              104.6864         -DE/DX =    0.0                 !
 ! A3    A(2,1,6)              110.7861         -DE/DX =    0.0                 !
 ! A4    A(3,1,5)              110.7488         -DE/DX =    0.0                 !
 ! A5    A(3,1,6)              110.1475         -DE/DX =    0.0                 !
 ! A6    A(5,1,6)              109.1328         -DE/DX =    0.0                 !
 ! A7    A(1,2,7)              107.2123         -DE/DX =    0.0                 !
 ! A8    A(1,3,4)              111.2086         -DE/DX =    0.0                 !
 ! A9    A(1,3,8)              110.751          -DE/DX =    0.0                 !
 ! A10   A(1,3,9)              110.1413         -DE/DX =    0.0                 !
 ! A11   A(4,3,8)              104.6851         -DE/DX =    0.0                 !
 ! A12   A(4,3,9)              110.7874         -DE/DX =    0.0                 !
 ! A13   A(8,3,9)              109.1348         -DE/DX =    0.0                 !
 ! A14   A(3,4,10)             107.2134         -DE/DX =    0.0                 !
 ! D1    D(3,1,2,7)            -62.821          -DE/DX =    0.0                 !
 ! D2    D(5,1,2,7)            177.5403         -DE/DX =    0.0                 !
 ! D3    D(6,1,2,7)             60.0301         -DE/DX =    0.0                 !
 ! D4    D(2,1,3,4)           -179.8647         -DE/DX =    0.0                 !
 ! D5    D(2,1,3,8)             64.1707         -DE/DX =    0.0                 !
 ! D6    D(2,1,3,9)            -56.6481         -DE/DX =    0.0                 !
 ! D7    D(5,1,3,4)            -63.9015         -DE/DX =    0.0                 !
 ! D8    D(5,1,3,8)           -179.866          -DE/DX =    0.0                 !
 ! D9    D(5,1,3,9)             59.3151         -DE/DX =    0.0                 !
 ! D10   D(6,1,3,4)             56.9176         -DE/DX =    0.0                 !
 ! D11   D(6,1,3,8)            -59.0469         -DE/DX =    0.0                 !
 ! D12   D(6,1,3,9)           -179.8658         -DE/DX =    0.0                 !
 ! D13   D(1,3,4,10)            62.822          -DE/DX =    0.0                 !
 ! D14   D(8,3,4,10)          -177.5361         -DE/DX =    0.0                 !
 ! D15   D(9,3,4,10)           -60.0238         -DE/DX =    0.0                 !
 --------------------------------------------------------------------------------
 GradGradGradGradGradGradGradGradGradGradGradGradGradGradGradGradGradGrad

                          Input orientation:                          
 ---------------------------------------------------------------------
 Center     Atomic      Atomic             Coordinates (Angstroms)
 Number     Number       Type             X           Y           Z
 ---------------------------------------------------------------------
      1          6           0        2.268402    2.305651    2.120484
      2          8           0        1.220450    2.765293    2.948403
      3          6           0        1.853745    1.056223    1.347085
      4          8           0        2.902705    0.594755    0.521471
      5          1           0        3.109742    2.074830    2.827797
      6          1           0        2.595834    3.109469    1.409347
      7          1           0        0.487951    3.012349    2.371124
      8          1           0        1.014040    1.287548    0.638007
      9          1           0        1.524016    0.253313    2.058205
     10          1           0        3.633805    0.347160    1.100296
 ---------------------------------------------------------------------
                    Distance matrix (angstroms):
                    1          2          3          4          5
     1  C    0.000000
     2  O    1.412418   0.000000
     3  C    1.526813   2.426150   0.000000
     4  O    2.426180   3.664862   1.412412   0.000000
     5  H    1.123131   2.015120   2.192623   2.748204   0.000000
     6  H    1.122074   2.092566   2.184122   2.684452   1.829367
     7  H    1.931903   0.964802   2.596243   3.885487   2.821574
     8  H    2.192647   2.750321   1.123124   2.015093   3.131607
     9  H    2.184052   2.682285   1.122087   2.092587   2.534704
    10  H    2.596305   3.884218   1.931913   0.964805   2.498749
                    6          7          8          9         10
     6  H    0.000000
     7  H    2.318969   0.000000
     8  H    2.533069   2.501080   0.000000
     9  H    3.118885   2.963719   1.829393   0.000000
    10  H    2.967027   4.314468   2.821562   2.318967   0.000000
 Stoichiometry    C2H6O2
 Framework group  C1[X(C2H6O2)]
 Deg. of freedom    24
 Full point group                 C1      NOp   1
 Largest Abelian subgroup         C1      NOp   1
 Largest concise Abelian subgroup C1      NOp   1
                         Standard orientation:                         
 ---------------------------------------------------------------------
 Center     Atomic      Atomic             Coordinates (Angstroms)
 Number     Number       Type             X           Y           Z
 ---------------------------------------------------------------------
      1          6           0       -0.564200   -0.509019    0.073410
      2          8           0       -1.826577    0.097945   -0.108034
      3          6           0        0.564186    0.509216   -0.071853
      4          8           0        1.826732   -0.098291    0.106535
      5          1           0       -0.503932   -1.287594   -0.733814
      6          1           0       -0.504404   -1.011966    1.074669
      7          1           0       -1.933407    0.750218    0.594796
      8          1           0        0.505388    1.286423    0.736787
      9          1           0        0.502841    1.013848   -1.072184
     10          1           0        1.932353   -0.749352   -0.597604
 ---------------------------------------------------------------------
 Rotational constants (GHZ):     28.6636152      3.9632715      3.7131357

 **********************************************************************

            Population analysis using the SCF density.

 **********************************************************************

 Orbital symmetries:
       Occupied  (A) (A) (A) (A) (A) (A) (A) (A) (A) (A) (A) (A)
                 (A)
       Virtual   (A) (A) (A) (A) (A) (A) (A) (A) (A)
 The electronic state is 1-A.
 Alpha  occ. eigenvalues --   -1.43941  -1.37403  -1.08878  -0.87754  -0.68026
 Alpha  occ. eigenvalues --   -0.67744  -0.61187  -0.56459  -0.53234  -0.52154
 Alpha  occ. eigenvalues --   -0.44788  -0.43787  -0.39969
 Alpha virt. eigenvalues --    0.11837   0.12621   0.13789   0.14038   0.14387
 Alpha virt. eigenvalues --    0.15866   0.16894   0.21862   0.22547
          Condensed to atoms (all electrons):
               1          2          3          4          5          6
     1  C    4.062087   0.000000   0.000000   0.000000   0.000000   0.000000
     2  O    0.000000   6.318032   0.000000   0.000000   0.000000   0.000000
     3  C    0.000000   0.000000   4.062097   0.000000   0.000000   0.000000
     4  O    0.000000   0.000000   0.000000   6.318020   0.000000   0.000000
     5  H    0.000000   0.000000   0.000000   0.000000   0.895971   0.000000
     6  H    0.000000   0.000000   0.000000   0.000000   0.000000   0.922302
     7  H    0.000000   0.000000   0.000000   0.000000   0.000000   0.000000
     8  H    0.000000   0.000000   0.000000   0.000000   0.000000   0.000000
     9  H    0.000000   0.000000   0.000000   0.000000   0.000000   0.000000
    10  H    0.000000   0.000000   0.000000   0.000000   0.000000   0.000000
               7          8          9         10
     1  C    0.000000   0.000000   0.000000   0.000000
     2  O    0.000000   0.000000   0.000000   0.000000
     3  C    0.000000   0.000000   0.000000   0.000000
     4  O    0.000000   0.000000   0.000000   0.000000
     5  H    0.000000   0.000000   0.000000   0.000000
     6  H    0.000000   0.000000   0.000000   0.000000
     7  H    0.801616   0.000000   0.000000   0.000000
     8  H    0.000000   0.895976   0.000000   0.000000
     9  H    0.000000   0.000000   0.922292   0.000000
    10  H    0.000000   0.000000   0.000000   0.801607
 Mulliken charges:
               1
     1  C   -0.062087
     2  O   -0.318032
     3  C   -0.062097
     4  O   -0.318020
     5  H    0.104029
     6  H    0.077698
     7  H    0.198384
     8  H    0.104024
     9  H    0.077708
    10  H    0.198393
 Sum of Mulliken charges =  -0.00000
 Mulliken charges with hydrogens summed into heavy atoms:
               1
     1  C    0.119639
     2  O   -0.119647
     3  C    0.119635
     4  O   -0.119627
 Charge=             -0.0000 electrons
 Dipole moment (field-independent basis, Debye):
    X=             -0.0017    Y=              0.0022    Z=              0.0013  Tot=              0.0031
 N-N= 1.020191479519D+02 E-N=-1.683065814621D+02  KE=-1.677689970434D+01
 1\1\GINC-GTX1080DELTA\FOpt\RAM1\ZDO\C2H6O2\MVEROT\17-Apr-2022\0\\#n AM
 1 Opt\\Optimisation de geometrie\\0,1\C,2.2684024017,2.305651349,2.120
 4841909\O,1.220450265,2.7652931486,2.9484033287\C,1.8537452547,1.05622
 32691,1.3470848741\O,2.9027048593,0.5947550474,0.5214710293\H,3.109741
 9823,2.0748295031,2.8277973502\H,2.5958340147,3.1094691842,1.409346799
 7\H,0.4879510266,3.0123485924,2.3711242091\H,1.0140395314,1.2875477157
 ,0.6380071843\H,1.5240156047,0.2533125227,2.0582049908\H,3.6338050594,
 0.3471596678,1.1002960429\\Version=AM64L-G09RevD.01\State=1-A\HF=-0.17
 58464\RMSD=2.801e-09\RMSF=5.340e-05\Dipole=-0.0011332,0.0004081,-0.000
 0896\PG=C01 [X(C2H6O2)]\\@


 Make no judgements where you have no compassion.
                               -- Anne McCaffrey
 Job cpu time:       0 days  0 hours  0 minutes  4.1 seconds.
 File lengths (MBytes):  RWF=     72 Int=      0 D2E=      0 Chk=      2 Scr=      2
 Normal termination of Gaussian 09 at Sun Apr 17 23:35:01 2022.
