 Entering Gaussian System, Link 0=g09
 Input=/scratch/mverot/anthracene-1-4-opt/anthracene-1-4-opt.com
 Output=/scratch/mverot/anthracene-1-4-opt/anthracene-1-4-opt.log
 Initial command:
 /opt/g09/l1.exe "/scratch/mverot/anthracene-1-4-opt/Gau-2803954.inp" -scrdir="/scratch/mverot/anthracene-1-4-opt/"
 Entering Link 1 = /opt/g09/l1.exe PID=   2803956.
  
 Copyright (c) 1988,1990,1992,1993,1995,1998,2003,2009,2013,
            Gaussian, Inc.  All Rights Reserved.
  
 This is part of the Gaussian(R) 09 program.  It is based on
 the Gaussian(R) 03 system (copyright 2003, Gaussian, Inc.),
 the Gaussian(R) 98 system (copyright 1998, Gaussian, Inc.),
 the Gaussian(R) 94 system (copyright 1995, Gaussian, Inc.),
 the Gaussian 92(TM) system (copyright 1992, Gaussian, Inc.),
 the Gaussian 90(TM) system (copyright 1990, Gaussian, Inc.),
 the Gaussian 88(TM) system (copyright 1988, Gaussian, Inc.),
 the Gaussian 86(TM) system (copyright 1986, Carnegie Mellon
 University), and the Gaussian 82(TM) system (copyright 1983,
 Carnegie Mellon University). Gaussian is a federally registered
 trademark of Gaussian, Inc.
  
 This software contains proprietary and confidential information,
 including trade secrets, belonging to Gaussian, Inc.
  
 This software is provided under written license and may be
 used, copied, transmitted, or stored only in accord with that
 written license.
  
 The following legend is applicable only to US Government
 contracts under FAR:
  
                    RESTRICTED RIGHTS LEGEND
  
 Use, reproduction and disclosure by the US Government is
 subject to restrictions as set forth in subparagraphs (a)
 and (c) of the Commercial Computer Software - Restricted
 Rights clause in FAR 52.227-19.
  
 Gaussian, Inc.
 340 Quinnipiac St., Bldg. 40, Wallingford CT 06492
  
  
 ---------------------------------------------------------------
 Warning -- This program may not be used in any manner that
 competes with the business of Gaussian, Inc. or will provide
 assistance to any competitor of Gaussian, Inc.  The licensee
 of this program is prohibited from giving any competitor of
 Gaussian, Inc. access to this program.  By using this program,
 the user acknowledges that Gaussian, Inc. is engaged in the
 business of creating and licensing software in the field of
 computational chemistry and represents and warrants to the
 licensee that it is not a competitor of Gaussian, Inc. and that
 it will not use this program in any manner prohibited above.
 ---------------------------------------------------------------
  

 Cite this work as:
 Gaussian 09, Revision D.01,
 M. J. Frisch, G. W. Trucks, H. B. Schlegel, G. E. Scuseria, 
 M. A. Robb, J. R. Cheeseman, G. Scalmani, V. Barone, B. Mennucci, 
 G. A. Petersson, H. Nakatsuji, M. Caricato, X. Li, H. P. Hratchian, 
 A. F. Izmaylov, J. Bloino, G. Zheng, J. L. Sonnenberg, M. Hada, 
 M. Ehara, K. Toyota, R. Fukuda, J. Hasegawa, M. Ishida, T. Nakajima, 
 Y. Honda, O. Kitao, H. Nakai, T. Vreven, J. A. Montgomery, Jr., 
 J. E. Peralta, F. Ogliaro, M. Bearpark, J. J. Heyd, E. Brothers, 
 K. N. Kudin, V. N. Staroverov, T. Keith, R. Kobayashi, J. Normand, 
 K. Raghavachari, A. Rendell, J. C. Burant, S. S. Iyengar, J. Tomasi, 
 M. Cossi, N. Rega, J. M. Millam, M. Klene, J. E. Knox, J. B. Cross, 
 V. Bakken, C. Adamo, J. Jaramillo, R. Gomperts, R. E. Stratmann, 
 O. Yazyev, A. J. Austin, R. Cammi, C. Pomelli, J. W. Ochterski, 
 R. L. Martin, K. Morokuma, V. G. Zakrzewski, G. A. Voth, 
 P. Salvador, J. J. Dannenberg, S. Dapprich, A. D. Daniels, 
 O. Farkas, J. B. Foresman, J. V. Ortiz, J. Cioslowski, 
 and D. J. Fox, Gaussian, Inc., Wallingford CT, 2013.
 
 ******************************************
 Gaussian 09:  AM64L-G09RevD.01 24-Apr-2013
                11-Apr-2022 
 ******************************************
 %chk=anthracene-1-4-opt
 ----------
 #n AM1 Opt
 ----------
 1/14=-1,18=20,19=15,26=1,38=1/1,3;
 2/9=110,12=2,17=6,18=5,40=1/2;
 3/5=2,16=1,25=1,41=700000,71=1/1,2,3;
 4/35=1/1;
 5/5=2,35=1,38=5/2;
 6/7=2,8=2,9=2,10=2,28=1/1;
 7//1,2,3,16;
 1/14=-1,18=20,19=15,26=1/3(2);
 2/9=110/2;
 99//99;
 2/9=110/2;
 3/5=2,16=1,25=1,41=700000,71=1,135=20/1,2,3;
 4/5=5,16=3,35=1/1;
 5/5=2,35=1,38=5/2;
 7//1,2,3,16;
 1/14=-1,18=20,19=15,26=1/3(-5);
 2/9=110/2;
 6/7=2,8=2,9=2,10=2,19=2,28=1/1;
 99/9=1/99;
 ---------------------
 Geometry optimization
 ---------------------
 Symbolic Z-matrix:
 Charge =  0 Multiplicity = 1
 C                     0.04676   1.46576  -0.0379 
 C                     1.309     0.70526  -0.01632 
 C                    -1.25193   0.73611  -0.03353 
 O                     0.11891   2.68892  -0.04836 
 C                     0.0209   -1.41933   0.0465 
 C                    -1.2646   -0.6667    0.0343 
 O                     0.07131  -2.6434    0.0699 
 C                     1.29657  -0.68169   0.01872 
 C                     2.53372   1.3913   -0.03147 
 C                    -2.50156  -1.34      0.07953 
 C                     2.50882  -1.3896    0.03011 
 C                    -2.47638   1.43145  -0.08504 
 C                     3.7379    0.68599  -0.0169 
 C                     3.72543  -0.70603   0.0117 
 C                    -3.69342   0.74989  -0.05049 
 C                    -3.70603  -0.6368    0.0383 
 H                     2.55265   2.47995  -0.05474 
 H                     2.50828  -2.47841   0.05391 
 H                     4.6829    1.2241   -0.02861 
 H                     4.66065  -1.26102   0.02091 
 H                    -4.66076  -1.15485   0.07066 
 H                    -4.63855   1.28482  -0.08941 
 O                    -2.51132   2.79376  -0.17822 
 H                    -3.42439   3.11936  -0.20251 
 O                    -2.56144  -2.70154   0.17129 
 H                    -3.48018  -3.0095    0.20836 
 

 GradGradGradGradGradGradGradGradGradGradGradGradGradGradGradGradGradGrad
 Berny optimization.
 Initialization pass.
                           ----------------------------
                           !    Initial Parameters    !
                           ! (Angstroms and Degrees)  !
 --------------------------                            --------------------------
 ! Name  Definition              Value          Derivative Info.                !
 --------------------------------------------------------------------------------
 ! R1    R(1,2)                  1.4738         estimate D2E/DX2                !
 ! R2    R(1,3)                  1.4896         estimate D2E/DX2                !
 ! R3    R(1,4)                  1.2253         estimate D2E/DX2                !
 ! R4    R(2,8)                  1.3874         estimate D2E/DX2                !
 ! R5    R(2,9)                  1.4039         estimate D2E/DX2                !
 ! R6    R(3,6)                  1.4045         estimate D2E/DX2                !
 ! R7    R(3,12)                 1.4091         estimate D2E/DX2                !
 ! R8    R(5,6)                  1.4897         estimate D2E/DX2                !
 ! R9    R(5,7)                  1.2253         estimate D2E/DX2                !
 ! R10   R(5,8)                  1.4738         estimate D2E/DX2                !
 ! R11   R(6,10)                 1.4091         estimate D2E/DX2                !
 ! R12   R(8,11)                 1.4039         estimate D2E/DX2                !
 ! R13   R(9,13)                 1.3956         estimate D2E/DX2                !
 ! R14   R(9,17)                 1.0891         estimate D2E/DX2                !
 ! R15   R(10,16)                1.3953         estimate D2E/DX2                !
 ! R16   R(10,25)                1.3659         estimate D2E/DX2                !
 ! R17   R(11,14)                1.3956         estimate D2E/DX2                !
 ! R18   R(11,18)                1.0891         estimate D2E/DX2                !
 ! R19   R(12,15)                1.3953         estimate D2E/DX2                !
 ! R20   R(12,23)                1.3659         estimate D2E/DX2                !
 ! R21   R(13,14)                1.3924         estimate D2E/DX2                !
 ! R22   R(13,19)                1.0875         estimate D2E/DX2                !
 ! R23   R(14,20)                1.0875         estimate D2E/DX2                !
 ! R24   R(15,16)                1.3896         estimate D2E/DX2                !
 ! R25   R(15,22)                1.0867         estimate D2E/DX2                !
 ! R26   R(16,21)                1.0867         estimate D2E/DX2                !
 ! R27   R(23,24)                0.9697         estimate D2E/DX2                !
 ! R28   R(25,26)                0.9697         estimate D2E/DX2                !
 ! A1    A(2,1,3)              119.5957         estimate D2E/DX2                !
 ! A2    A(2,1,4)              117.697          estimate D2E/DX2                !
 ! A3    A(3,1,4)              122.7048         estimate D2E/DX2                !
 ! A4    A(1,2,8)              120.5657         estimate D2E/DX2                !
 ! A5    A(1,2,9)              119.6594         estimate D2E/DX2                !
 ! A6    A(8,2,9)              119.7749         estimate D2E/DX2                !
 ! A7    A(1,3,6)              119.8172         estimate D2E/DX2                !
 ! A8    A(1,3,12)             121.0494         estimate D2E/DX2                !
 ! A9    A(6,3,12)             119.1312         estimate D2E/DX2                !
 ! A10   A(6,5,7)              122.7089         estimate D2E/DX2                !
 ! A11   A(6,5,8)              119.5969         estimate D2E/DX2                !
 ! A12   A(7,5,8)              117.6923         estimate D2E/DX2                !
 ! A13   A(3,6,5)              119.8172         estimate D2E/DX2                !
 ! A14   A(3,6,10)             119.1258         estimate D2E/DX2                !
 ! A15   A(5,6,10)             121.0552         estimate D2E/DX2                !
 ! A16   A(2,8,5)              120.5665         estimate D2E/DX2                !
 ! A17   A(2,8,11)             119.7719         estimate D2E/DX2                !
 ! A18   A(5,8,11)             119.6616         estimate D2E/DX2                !
 ! A19   A(2,9,13)             120.3746         estimate D2E/DX2                !
 ! A20   A(2,9,17)             120.2577         estimate D2E/DX2                !
 ! A21   A(13,9,17)            119.3676         estimate D2E/DX2                !
 ! A22   A(6,10,16)            121.0658         estimate D2E/DX2                !
 ! A23   A(6,10,25)            121.127          estimate D2E/DX2                !
 ! A24   A(16,10,25)           117.8065         estimate D2E/DX2                !
 ! A25   A(8,11,14)            120.3754         estimate D2E/DX2                !
 ! A26   A(8,11,18)            120.2576         estimate D2E/DX2                !
 ! A27   A(14,11,18)           119.367          estimate D2E/DX2                !
 ! A28   A(3,12,15)            121.0649         estimate D2E/DX2                !
 ! A29   A(3,12,23)            121.1239         estimate D2E/DX2                !
 ! A30   A(15,12,23)           117.8101         estimate D2E/DX2                !
 ! A31   A(9,13,14)            119.8505         estimate D2E/DX2                !
 ! A32   A(9,13,19)            119.9721         estimate D2E/DX2                !
 ! A33   A(14,13,19)           120.1774         estimate D2E/DX2                !
 ! A34   A(11,14,13)           119.8514         estimate D2E/DX2                !
 ! A35   A(11,14,20)           119.9722         estimate D2E/DX2                !
 ! A36   A(13,14,20)           120.1763         estimate D2E/DX2                !
 ! A37   A(12,15,16)           119.7979         estimate D2E/DX2                !
 ! A38   A(12,15,22)           121.149          estimate D2E/DX2                !
 ! A39   A(16,15,22)           119.053          estimate D2E/DX2                !
 ! A40   A(10,16,15)           119.7999         estimate D2E/DX2                !
 ! A41   A(10,16,21)           121.1482         estimate D2E/DX2                !
 ! A42   A(15,16,21)           119.0516         estimate D2E/DX2                !
 ! A43   A(12,23,24)           111.1419         estimate D2E/DX2                !
 ! A44   A(10,25,26)           111.1411         estimate D2E/DX2                !
 ! D1    D(3,1,2,8)             -0.5154         estimate D2E/DX2                !
 ! D2    D(3,1,2,9)            179.4804         estimate D2E/DX2                !
 ! D3    D(4,1,2,8)            178.9268         estimate D2E/DX2                !
 ! D4    D(4,1,2,9)             -1.0775         estimate D2E/DX2                !
 ! D5    D(2,1,3,6)              2.0341         estimate D2E/DX2                !
 ! D6    D(2,1,3,12)          -178.5135         estimate D2E/DX2                !
 ! D7    D(4,1,3,6)           -177.3789         estimate D2E/DX2                !
 ! D8    D(4,1,3,12)             2.0735         estimate D2E/DX2                !
 ! D9    D(1,2,8,5)             -0.5195         estimate D2E/DX2                !
 ! D10   D(1,2,8,11)           179.5879         estimate D2E/DX2                !
 ! D11   D(9,2,8,5)            179.4847         estimate D2E/DX2                !
 ! D12   D(9,2,8,11)            -0.4079         estimate D2E/DX2                !
 ! D13   D(1,2,9,13)          -179.7381         estimate D2E/DX2                !
 ! D14   D(1,2,9,17)             0.261          estimate D2E/DX2                !
 ! D15   D(8,2,9,13)             0.2577         estimate D2E/DX2                !
 ! D16   D(8,2,9,17)          -179.7432         estimate D2E/DX2                !
 ! D17   D(1,3,6,5)             -2.4401         estimate D2E/DX2                !
 ! D18   D(1,3,6,10)           178.0419         estimate D2E/DX2                !
 ! D19   D(12,3,6,5)           178.097          estimate D2E/DX2                !
 ! D20   D(12,3,6,10)           -1.421          estimate D2E/DX2                !
 ! D21   D(1,3,12,15)         -178.5371         estimate D2E/DX2                !
 ! D22   D(1,3,12,23)            1.8468         estimate D2E/DX2                !
 ! D23   D(6,3,12,15)            0.919          estimate D2E/DX2                !
 ! D24   D(6,3,12,23)         -178.6971         estimate D2E/DX2                !
 ! D25   D(7,5,6,3)           -178.0774         estimate D2E/DX2                !
 ! D26   D(7,5,6,10)             1.4311         estimate D2E/DX2                !
 ! D27   D(8,5,6,3)              1.413          estimate D2E/DX2                !
 ! D28   D(8,5,6,10)          -179.0785         estimate D2E/DX2                !
 ! D29   D(6,5,8,2)              0.1104         estimate D2E/DX2                !
 ! D30   D(6,5,8,11)          -179.9969         estimate D2E/DX2                !
 ! D31   D(7,5,8,2)            179.6261         estimate D2E/DX2                !
 ! D32   D(7,5,8,11)            -0.4812         estimate D2E/DX2                !
 ! D33   D(3,6,10,16)            0.9431         estimate D2E/DX2                !
 ! D34   D(3,6,10,25)         -178.755          estimate D2E/DX2                !
 ! D35   D(5,6,10,16)         -178.5688         estimate D2E/DX2                !
 ! D36   D(5,6,10,25)            1.7331         estimate D2E/DX2                !
 ! D37   D(2,8,11,14)            0.2527         estimate D2E/DX2                !
 ! D38   D(2,8,11,18)         -179.7772         estimate D2E/DX2                !
 ! D39   D(5,8,11,14)         -179.6409         estimate D2E/DX2                !
 ! D40   D(5,8,11,18)            0.3292         estimate D2E/DX2                !
 ! D41   D(2,9,13,14)            0.0536         estimate D2E/DX2                !
 ! D42   D(2,9,13,19)         -179.9899         estimate D2E/DX2                !
 ! D43   D(17,9,13,14)        -179.9455         estimate D2E/DX2                !
 ! D44   D(17,9,13,19)           0.011          estimate D2E/DX2                !
 ! D45   D(6,10,16,15)           0.0824         estimate D2E/DX2                !
 ! D46   D(6,10,16,21)         179.8495         estimate D2E/DX2                !
 ! D47   D(25,10,16,15)        179.7903         estimate D2E/DX2                !
 ! D48   D(25,10,16,21)         -0.4427         estimate D2E/DX2                !
 ! D49   D(6,10,25,26)         178.9618         estimate D2E/DX2                !
 ! D50   D(16,10,25,26)         -0.7459         estimate D2E/DX2                !
 ! D51   D(8,11,14,13)           0.0587         estimate D2E/DX2                !
 ! D52   D(8,11,14,20)         179.9858         estimate D2E/DX2                !
 ! D53   D(18,11,14,13)       -179.9117         estimate D2E/DX2                !
 ! D54   D(18,11,14,20)          0.0154         estimate D2E/DX2                !
 ! D55   D(3,12,15,16)           0.1067         estimate D2E/DX2                !
 ! D56   D(3,12,15,22)         179.9553         estimate D2E/DX2                !
 ! D57   D(23,12,15,16)        179.7352         estimate D2E/DX2                !
 ! D58   D(23,12,15,22)         -0.4163         estimate D2E/DX2                !
 ! D59   D(3,12,23,24)        -179.9405         estimate D2E/DX2                !
 ! D60   D(15,12,23,24)          0.4313         estimate D2E/DX2                !
 ! D61   D(9,13,14,11)          -0.2103         estimate D2E/DX2                !
 ! D62   D(9,13,14,20)         179.8627         estimate D2E/DX2                !
 ! D63   D(19,13,14,11)        179.8333         estimate D2E/DX2                !
 ! D64   D(19,13,14,20)         -0.0937         estimate D2E/DX2                !
 ! D65   D(12,15,16,10)         -0.6085         estimate D2E/DX2                !
 ! D66   D(12,15,16,21)        179.6195         estimate D2E/DX2                !
 ! D67   D(22,15,16,10)        179.5398         estimate D2E/DX2                !
 ! D68   D(22,15,16,21)         -0.2322         estimate D2E/DX2                !
 --------------------------------------------------------------------------------
 Trust Radius=3.00D-01 FncErr=1.00D-07 GrdErr=1.00D-07
 Number of steps in this run=    150 maximum allowed number of steps=    156.
 GradGradGradGradGradGradGradGradGradGradGradGradGradGradGradGradGradGrad

                          Input orientation:                          
 ---------------------------------------------------------------------
 Center     Atomic      Atomic             Coordinates (Angstroms)
 Number     Number       Type             X           Y           Z
 ---------------------------------------------------------------------
      1          6           0        0.046760    1.465760   -0.037900
      2          6           0        1.309000    0.705260   -0.016320
      3          6           0       -1.251930    0.736110   -0.033530
      4          8           0        0.118910    2.688920   -0.048360
      5          6           0        0.020900   -1.419330    0.046500
      6          6           0       -1.264600   -0.666700    0.034300
      7          8           0        0.071310   -2.643400    0.069900
      8          6           0        1.296570   -0.681690    0.018720
      9          6           0        2.533720    1.391300   -0.031470
     10          6           0       -2.501560   -1.340000    0.079530
     11          6           0        2.508820   -1.389600    0.030110
     12          6           0       -2.476380    1.431450   -0.085040
     13          6           0        3.737900    0.685990   -0.016900
     14          6           0        3.725430   -0.706030    0.011700
     15          6           0       -3.693420    0.749890   -0.050490
     16          6           0       -3.706030   -0.636800    0.038300
     17          1           0        2.552650    2.479950   -0.054740
     18          1           0        2.508280   -2.478410    0.053910
     19          1           0        4.682900    1.224100   -0.028610
     20          1           0        4.660650   -1.261020    0.020910
     21          1           0       -4.660760   -1.154850    0.070660
     22          1           0       -4.638550    1.284820   -0.089410
     23          8           0       -2.511320    2.793760   -0.178220
     24          1           0       -3.424390    3.119360   -0.202510
     25          8           0       -2.561440   -2.701540    0.171290
     26          1           0       -3.480180   -3.009500    0.208360
 ---------------------------------------------------------------------
                    Distance matrix (angstroms):
                    1          2          3          4          5
     1  C    0.000000
     2  C    1.473796   0.000000
     3  C    1.489632   2.561174   0.000000
     4  O    1.225331   2.313493   2.385978   0.000000
     5  C    2.886440   2.485363   2.504481   4.110514   0.000000
     6  C    2.504449   2.916891   1.404506   3.630581   1.489668
     7  O    4.110647   3.571111   3.630806   5.333844   1.225331
     8  C    2.485311   1.387448   2.916803   3.571050   1.473845
     9  C    2.488083   1.403859   3.841930   2.741425   3.770939
    10  C    3.792099   4.325811   2.425817   4.807849   2.523923
    11  C    3.770868   2.414573   4.320409   4.727806   2.488152
    12  C    2.523814   3.855020   1.409052   2.884113   3.792184
    13  C    3.772664   2.428977   4.990109   4.136400   4.272292
    14  C    4.272206   2.798510   5.182270   4.953411   3.772738
    15  C    3.808093   5.002736   2.441588   4.277114   4.302452
    16  C    4.302325   5.191785   2.812943   5.069328   3.808205
    17  H    2.703396   2.167410   4.185243   2.442703   4.650203
    18  H    4.650160   3.402787   4.947723   5.693931   2.703473
    19  H    4.642443   3.413583   5.954861   4.793338   5.359814
    20  H    5.359736   3.886026   6.241001   6.019487   4.642521
    21  H    5.388889   6.253448   3.899578   6.134654   4.689187
    22  H    4.689085   5.976168   3.431239   4.960505   5.389005
    23  O    2.885662   4.356936   2.416800   2.635520   4.920647
    24  H    3.848425   5.316721   3.229244   3.572676   5.703660
    25  O    4.920656   5.159631   3.684319   6.024083   2.885847
    26  H    5.703324   6.065160   4.364997   6.744727   3.848688
                    6          7          8          9         10
     6  C    0.000000
     7  O    2.386057   0.000000
     8  C    2.561261   2.313480   0.000000
     9  C    4.320524   4.727848   2.414611   0.000000
    10  C    1.409060   2.884199   3.855238   5.729430   0.000000
    11  C    3.842044   2.741360   1.403858   2.781693   5.010869
    12  C    2.425878   4.808236   4.325654   5.010547   2.776446
    13  C    5.182412   4.953408   2.798555   1.395609   6.560853
    14  C    4.990236   4.136349   2.428992   2.412640   6.259547
    15  C    2.813020   5.069724   5.191745   6.260115   2.409372
    16  C    2.441616   4.277352   5.002840   6.561443   1.395327
    17  H    4.947801   5.693970   3.402808   1.089063   6.336804
    18  H    4.185368   2.442601   2.167414   3.870735   5.137619
    19  H    6.241141   6.019470   3.886066   2.155676   7.629074
    20  H    5.954996   4.793268   3.413600   3.400202   7.162885
    21  H    3.431256   4.960672   5.976316   7.632421   2.167142
    22  H    3.899650   6.135069   6.253359   7.173294   3.388945
    23  O    3.684326   6.024471   5.159221   5.238402   4.141799
    24  H    4.365206   6.745630   6.065013   6.206007   4.562571
    25  O    2.416844   2.635343   4.357443   6.538586   1.365942
    26  H    3.229211   3.572993   5.317142   7.455974   1.939465
                   11         12         13         14         15
    11  C    0.000000
    12  C    5.729206   0.000000
    13  C    2.412659   6.259204   0.000000
    14  C    1.395617   6.560536   1.392370   0.000000
    15  C    6.561379   1.395315   7.431671   7.560615   0.000000
    16  C    6.260282   2.409338   7.560748   7.431830   1.389587
    17  H    3.870728   5.137257   2.150475   3.395629   6.481243
    18  H    1.089070   6.336651   3.395645   2.150481   6.992418
    19  H    3.400221   7.162504   1.087531   2.154942   8.389761
    20  H    2.155688   7.628749   2.154935   1.087536   8.592982
    21  H    7.173537   3.388909   8.598479   8.398399   2.139733
    22  H    7.632280   2.167141   8.398141   8.598248   1.086709
    23  O    6.538020   1.365940   6.597080   7.154135   2.364546
    24  H    7.455724   1.939475   7.566646   8.111684   2.389535
    25  O    5.239146   4.141805   7.154891   6.597898   3.639084
    26  H    6.206768   4.562426   8.112217   7.567395   3.774320
                   16         17         18         19         20
    16  C    0.000000
    17  H    6.992415   0.000000
    18  H    6.481467   4.959749   0.000000
    19  H    8.593112   2.473016   4.294690   0.000000
    20  H    8.389952   4.294676   2.473019   2.485713   0.000000
    21  H    1.086707   8.078414   7.290214   9.642263   9.322147
    22  H    2.139749   7.289917   8.078343   9.321846   9.642022
    23  O    3.639087   5.075186   7.283272   7.364986   8.241241
    24  H    3.774394   6.012960   8.160720   8.327689   9.198126
    25  O    2.364513   7.283738   5.075985   8.242031   7.365887
    26  H    2.389484   8.160779   6.013948   9.198663   8.328591
                   21         22         23         24         25
    21  H    0.000000
    22  H    2.445016   0.000000
    23  O    4.502616   2.609577   0.000000
    24  H    4.457814   2.202842   0.969692   0.000000
    25  O    2.609506   4.502601   5.506632   5.896379   0.000000
    26  H    2.202829   4.457765   5.896267   6.142870   0.969689
                   26
    26  H    0.000000
 Stoichiometry    C14H8O4
 Framework group  C1[X(C14H8O4)]
 Deg. of freedom    72
 Full point group                 C1      NOp   1
 Largest Abelian subgroup         C1      NOp   1
 Largest concise Abelian subgroup C1      NOp   1
                         Standard orientation:                         
 ---------------------------------------------------------------------
 Center     Atomic      Atomic             Coordinates (Angstroms)
 Number     Number       Type             X           Y           Z
 ---------------------------------------------------------------------
      1          6           0       -0.349603   -1.442970    0.022900
      2          6           0       -1.618586   -0.693545    0.011987
      3          6           0        0.942526   -0.702218   -0.003403
      4          8           0       -0.410837   -2.666070    0.064269
      5          6           0       -0.349518    1.443221   -0.015034
      6          6           0        0.942648    0.702263    0.004921
      7          8           0       -0.410855    2.666684   -0.043538
      8          6           0       -1.618544    0.693700   -0.011778
      9          6           0       -2.837131   -1.390524    0.025685
     10          6           0        2.173529    1.387898    0.021818
     11          6           0       -2.837065    1.390599   -0.030633
     12          6           0        2.173157   -1.388150   -0.025162
     13          6           0       -4.047561   -0.696015    0.010119
     14          6           0       -4.047520    0.696022   -0.020294
     15          6           0        3.384052   -0.694893   -0.019290
     16          6           0        3.384245    0.694371    0.010658
     17          1           0       -2.846340   -2.479308    0.048567
     18          1           0       -2.846247    2.479401   -0.052995
     19          1           0       -4.987718   -1.242559    0.021040
     20          1           0       -4.987657    1.242527   -0.034793
     21          1           0        4.334299    1.221835    0.021221
     22          1           0        4.333936   -1.222528   -0.035322
     23          8           0        2.220297   -2.752818   -0.060521
     24          1           0        3.136248   -3.070986   -0.070813
     25          8           0        2.221214    2.752584    0.055808
     26          1           0        3.137150    3.070033    0.079973
 ---------------------------------------------------------------------
 Rotational constants (GHZ):      0.7252359      0.3745419      0.2470555
 Standard basis: VSTO-6G (5D, 7F)
 There are    80 symmetry adapted cartesian basis functions of A   symmetry.
 There are    80 symmetry adapted basis functions of A   symmetry.
    80 basis functions,   480 primitive gaussians,    80 cartesian basis functions
    44 alpha electrons       44 beta electrons
       nuclear repulsion energy       674.5483275700 Hartrees.
 Integral buffers will be    131072 words long.
 Regular integral format.
 Two-electron integral symmetry is turned off.
 Do NDO integrals.
 One-electron integrals computed using PRISM.
 NBasis=    80 RedAO= F EigKep=  0.00D+00  NBF=    80
 NBsUse=    80 1.00D-04 EigRej=  0.00D+00 NBFU=    80
 Simple Huckel Guess.
 Overlap will be assumed to be unity.
 Keep J ints in memory in canonical form, NReq=933890.
 Requested convergence on RMS density matrix=1.00D-08 within 128 cycles.
 Requested convergence on MAX density matrix=1.00D-06.
 Requested convergence on             energy=1.00D-06.
 No special actions if energy rises.
 SCF Done:  E(RAM1) = -0.127026399639     A.U. after   16 cycles
            NFock= 15  Conv=0.88D-08     -V/T= 0.9980

 **********************************************************************

            Population analysis using the SCF density.

 **********************************************************************

 Orbital symmetries:
       Occupied  (A) (A) (A) (A) (A) (A) (A) (A) (A) (A) (A) (A)
                 (A) (A) (A) (A) (A) (A) (A) (A) (A) (A) (A) (A)
                 (A) (A) (A) (A) (A) (A) (A) (A) (A) (A) (A) (A)
                 (A) (A) (A) (A) (A) (A) (A) (A)
       Virtual   (A) (A) (A) (A) (A) (A) (A) (A) (A) (A) (A) (A)
                 (A) (A) (A) (A) (A) (A) (A) (A) (A) (A) (A) (A)
                 (A) (A) (A) (A) (A) (A) (A) (A) (A) (A) (A) (A)
 The electronic state is 1-A.
 Alpha  occ. eigenvalues --   -1.54472  -1.48772  -1.46621  -1.42932  -1.40749
 Alpha  occ. eigenvalues --   -1.35015  -1.24800  -1.16931  -1.16537  -1.10626
 Alpha  occ. eigenvalues --   -0.98482  -0.94326  -0.90538  -0.84884  -0.80531
 Alpha  occ. eigenvalues --   -0.77560  -0.72481  -0.69493  -0.66765  -0.66278
 Alpha  occ. eigenvalues --   -0.61958  -0.60611  -0.60336  -0.59681  -0.58009
 Alpha  occ. eigenvalues --   -0.57337  -0.55765  -0.55522  -0.55290  -0.54811
 Alpha  occ. eigenvalues --   -0.53243  -0.53052  -0.49691  -0.49051  -0.48944
 Alpha  occ. eigenvalues --   -0.48061  -0.45492  -0.44805  -0.40527  -0.39124
 Alpha  occ. eigenvalues --   -0.38648  -0.37216  -0.36602  -0.33461
 Alpha virt. eigenvalues --   -0.04730  -0.00869  -0.00784   0.00393   0.05062
 Alpha virt. eigenvalues --    0.05988   0.08358   0.08380   0.08802   0.09802
 Alpha virt. eigenvalues --    0.09883   0.10850   0.11890   0.12720   0.13318
 Alpha virt. eigenvalues --    0.13673   0.13897   0.14216   0.14817   0.14928
 Alpha virt. eigenvalues --    0.15151   0.15540   0.16151   0.16926   0.17207
 Alpha virt. eigenvalues --    0.17238   0.17769   0.18404   0.18574   0.19151
 Alpha virt. eigenvalues --    0.19407   0.20838   0.21691   0.22159   0.23408
 Alpha virt. eigenvalues --    0.24064
          Condensed to atoms (all electrons):
               1          2          3          4          5          6
     1  C    3.694830   0.000000   0.000000   0.000000   0.000000   0.000000
     2  C    0.000000   4.110207   0.000000   0.000000   0.000000   0.000000
     3  C    0.000000   0.000000   4.098006   0.000000   0.000000   0.000000
     4  O    0.000000   0.000000   0.000000   6.257099   0.000000   0.000000
     5  C    0.000000   0.000000   0.000000   0.000000   3.694847   0.000000
     6  C    0.000000   0.000000   0.000000   0.000000   0.000000   4.097988
     7  O    0.000000   0.000000   0.000000   0.000000   0.000000   0.000000
     8  C    0.000000   0.000000   0.000000   0.000000   0.000000   0.000000
     9  C    0.000000   0.000000   0.000000   0.000000   0.000000   0.000000
    10  C    0.000000   0.000000   0.000000   0.000000   0.000000   0.000000
    11  C    0.000000   0.000000   0.000000   0.000000   0.000000   0.000000
    12  C    0.000000   0.000000   0.000000   0.000000   0.000000   0.000000
    13  C    0.000000   0.000000   0.000000   0.000000   0.000000   0.000000
    14  C    0.000000   0.000000   0.000000   0.000000   0.000000   0.000000
    15  C    0.000000   0.000000   0.000000   0.000000   0.000000   0.000000
    16  C    0.000000   0.000000   0.000000   0.000000   0.000000   0.000000
    17  H    0.000000   0.000000   0.000000   0.000000   0.000000   0.000000
    18  H    0.000000   0.000000   0.000000   0.000000   0.000000   0.000000
    19  H    0.000000   0.000000   0.000000   0.000000   0.000000   0.000000
    20  H    0.000000   0.000000   0.000000   0.000000   0.000000   0.000000
    21  H    0.000000   0.000000   0.000000   0.000000   0.000000   0.000000
    22  H    0.000000   0.000000   0.000000   0.000000   0.000000   0.000000
    23  O    0.000000   0.000000   0.000000   0.000000   0.000000   0.000000
    24  H    0.000000   0.000000   0.000000   0.000000   0.000000   0.000000
    25  O    0.000000   0.000000   0.000000   0.000000   0.000000   0.000000
    26  H    0.000000   0.000000   0.000000   0.000000   0.000000   0.000000
               7          8          9         10         11         12
     1  C    0.000000   0.000000   0.000000   0.000000   0.000000   0.000000
     2  C    0.000000   0.000000   0.000000   0.000000   0.000000   0.000000
     3  C    0.000000   0.000000   0.000000   0.000000   0.000000   0.000000
     4  O    0.000000   0.000000   0.000000   0.000000   0.000000   0.000000
     5  C    0.000000   0.000000   0.000000   0.000000   0.000000   0.000000
     6  C    0.000000   0.000000   0.000000   0.000000   0.000000   0.000000
     7  O    6.257079   0.000000   0.000000   0.000000   0.000000   0.000000
     8  C    0.000000   4.110194   0.000000   0.000000   0.000000   0.000000
     9  C    0.000000   0.000000   4.084883   0.000000   0.000000   0.000000
    10  C    0.000000   0.000000   0.000000   3.895853   0.000000   0.000000
    11  C    0.000000   0.000000   0.000000   0.000000   4.084883   0.000000
    12  C    0.000000   0.000000   0.000000   0.000000   0.000000   3.895863
    13  C    0.000000   0.000000   0.000000   0.000000   0.000000   0.000000
    14  C    0.000000   0.000000   0.000000   0.000000   0.000000   0.000000
    15  C    0.000000   0.000000   0.000000   0.000000   0.000000   0.000000
    16  C    0.000000   0.000000   0.000000   0.000000   0.000000   0.000000
    17  H    0.000000   0.000000   0.000000   0.000000   0.000000   0.000000
    18  H    0.000000   0.000000   0.000000   0.000000   0.000000   0.000000
    19  H    0.000000   0.000000   0.000000   0.000000   0.000000   0.000000
    20  H    0.000000   0.000000   0.000000   0.000000   0.000000   0.000000
    21  H    0.000000   0.000000   0.000000   0.000000   0.000000   0.000000
    22  H    0.000000   0.000000   0.000000   0.000000   0.000000   0.000000
    23  O    0.000000   0.000000   0.000000   0.000000   0.000000   0.000000
    24  H    0.000000   0.000000   0.000000   0.000000   0.000000   0.000000
    25  O    0.000000   0.000000   0.000000   0.000000   0.000000   0.000000
    26  H    0.000000   0.000000   0.000000   0.000000   0.000000   0.000000
              13         14         15         16         17         18
     1  C    0.000000   0.000000   0.000000   0.000000   0.000000   0.000000
     2  C    0.000000   0.000000   0.000000   0.000000   0.000000   0.000000
     3  C    0.000000   0.000000   0.000000   0.000000   0.000000   0.000000
     4  O    0.000000   0.000000   0.000000   0.000000   0.000000   0.000000
     5  C    0.000000   0.000000   0.000000   0.000000   0.000000   0.000000
     6  C    0.000000   0.000000   0.000000   0.000000   0.000000   0.000000
     7  O    0.000000   0.000000   0.000000   0.000000   0.000000   0.000000
     8  C    0.000000   0.000000   0.000000   0.000000   0.000000   0.000000
     9  C    0.000000   0.000000   0.000000   0.000000   0.000000   0.000000
    10  C    0.000000   0.000000   0.000000   0.000000   0.000000   0.000000
    11  C    0.000000   0.000000   0.000000   0.000000   0.000000   0.000000
    12  C    0.000000   0.000000   0.000000   0.000000   0.000000   0.000000
    13  C    4.119466   0.000000   0.000000   0.000000   0.000000   0.000000
    14  C    0.000000   4.119465   0.000000   0.000000   0.000000   0.000000
    15  C    0.000000   0.000000   4.177281   0.000000   0.000000   0.000000
    16  C    0.000000   0.000000   0.000000   4.177299   0.000000   0.000000
    17  H    0.000000   0.000000   0.000000   0.000000   0.842077   0.000000
    18  H    0.000000   0.000000   0.000000   0.000000   0.000000   0.842074
    19  H    0.000000   0.000000   0.000000   0.000000   0.000000   0.000000
    20  H    0.000000   0.000000   0.000000   0.000000   0.000000   0.000000
    21  H    0.000000   0.000000   0.000000   0.000000   0.000000   0.000000
    22  H    0.000000   0.000000   0.000000   0.000000   0.000000   0.000000
    23  O    0.000000   0.000000   0.000000   0.000000   0.000000   0.000000
    24  H    0.000000   0.000000   0.000000   0.000000   0.000000   0.000000
    25  O    0.000000   0.000000   0.000000   0.000000   0.000000   0.000000
    26  H    0.000000   0.000000   0.000000   0.000000   0.000000   0.000000
              19         20         21         22         23         24
     1  C    0.000000   0.000000   0.000000   0.000000   0.000000   0.000000
     2  C    0.000000   0.000000   0.000000   0.000000   0.000000   0.000000
     3  C    0.000000   0.000000   0.000000   0.000000   0.000000   0.000000
     4  O    0.000000   0.000000   0.000000   0.000000   0.000000   0.000000
     5  C    0.000000   0.000000   0.000000   0.000000   0.000000   0.000000
     6  C    0.000000   0.000000   0.000000   0.000000   0.000000   0.000000
     7  O    0.000000   0.000000   0.000000   0.000000   0.000000   0.000000
     8  C    0.000000   0.000000   0.000000   0.000000   0.000000   0.000000
     9  C    0.000000   0.000000   0.000000   0.000000   0.000000   0.000000
    10  C    0.000000   0.000000   0.000000   0.000000   0.000000   0.000000
    11  C    0.000000   0.000000   0.000000   0.000000   0.000000   0.000000
    12  C    0.000000   0.000000   0.000000   0.000000   0.000000   0.000000
    13  C    0.000000   0.000000   0.000000   0.000000   0.000000   0.000000
    14  C    0.000000   0.000000   0.000000   0.000000   0.000000   0.000000
    15  C    0.000000   0.000000   0.000000   0.000000   0.000000   0.000000
    16  C    0.000000   0.000000   0.000000   0.000000   0.000000   0.000000
    17  H    0.000000   0.000000   0.000000   0.000000   0.000000   0.000000
    18  H    0.000000   0.000000   0.000000   0.000000   0.000000   0.000000
    19  H    0.860770   0.000000   0.000000   0.000000   0.000000   0.000000
    20  H    0.000000   0.860771   0.000000   0.000000   0.000000   0.000000
    21  H    0.000000   0.000000   0.857730   0.000000   0.000000   0.000000
    22  H    0.000000   0.000000   0.000000   0.857733   0.000000   0.000000
    23  O    0.000000   0.000000   0.000000   0.000000   6.227399   0.000000
    24  H    0.000000   0.000000   0.000000   0.000000   0.000000   0.774405
    25  O    0.000000   0.000000   0.000000   0.000000   0.000000   0.000000
    26  H    0.000000   0.000000   0.000000   0.000000   0.000000   0.000000
              25         26
     1  C    0.000000   0.000000
     2  C    0.000000   0.000000
     3  C    0.000000   0.000000
     4  O    0.000000   0.000000
     5  C    0.000000   0.000000
     6  C    0.000000   0.000000
     7  O    0.000000   0.000000
     8  C    0.000000   0.000000
     9  C    0.000000   0.000000
    10  C    0.000000   0.000000
    11  C    0.000000   0.000000
    12  C    0.000000   0.000000
    13  C    0.000000   0.000000
    14  C    0.000000   0.000000
    15  C    0.000000   0.000000
    16  C    0.000000   0.000000
    17  H    0.000000   0.000000
    18  H    0.000000   0.000000
    19  H    0.000000   0.000000
    20  H    0.000000   0.000000
    21  H    0.000000   0.000000
    22  H    0.000000   0.000000
    23  O    0.000000   0.000000
    24  H    0.000000   0.000000
    25  O    6.227382   0.000000
    26  H    0.000000   0.774416
 Mulliken charges:
               1
     1  C    0.305170
     2  C   -0.110207
     3  C   -0.098006
     4  O   -0.257099
     5  C    0.305153
     6  C   -0.097988
     7  O   -0.257079
     8  C   -0.110194
     9  C   -0.084883
    10  C    0.104147
    11  C   -0.084883
    12  C    0.104137
    13  C   -0.119466
    14  C   -0.119465
    15  C   -0.177281
    16  C   -0.177299
    17  H    0.157923
    18  H    0.157926
    19  H    0.139230
    20  H    0.139229
    21  H    0.142270
    22  H    0.142267
    23  O   -0.227399
    24  H    0.225595
    25  O   -0.227382
    26  H    0.225584
 Sum of Mulliken charges =   0.00000
 Mulliken charges with hydrogens summed into heavy atoms:
               1
     1  C    0.305170
     2  C   -0.110207
     3  C   -0.098006
     4  O   -0.257099
     5  C    0.305153
     6  C   -0.097988
     7  O   -0.257079
     8  C   -0.110194
     9  C    0.073040
    10  C    0.104147
    11  C    0.073043
    12  C    0.104137
    13  C    0.019764
    14  C    0.019764
    15  C   -0.035014
    16  C   -0.035030
    23  O   -0.001805
    25  O   -0.001798
 Charge=              0.0000 electrons
 Dipole moment (field-independent basis, Debye):
    X=              2.5970    Y=             -0.0017    Z=             -0.0056  Tot=              2.5970
 N-N= 6.745483275700D+02 E-N=-1.220140029859D+03  KE=-6.249003612934D+01
 Calling FoFJK, ICntrl=      2127 FMM=F ISym2X=0 I1Cent= 0 IOpClX= 0 NMat=1 NMatS=1 NMatT=0.
 ***** Axes restored to original set *****
 -------------------------------------------------------------------
 Center     Atomic                   Forces (Hartrees/Bohr)
 Number     Number              X              Y              Z
 -------------------------------------------------------------------
      1        6          -0.006949252   -0.014325682    0.000338256
      2        6           0.005197092    0.003478322   -0.000411431
      3        6           0.010529417    0.007885423   -0.000382998
      4        8          -0.008794623    0.031587543   -0.000638097
      5        6          -0.006688953    0.014458379   -0.000488733
      6        6           0.010401738   -0.008081183    0.000382702
      7        8          -0.009368332   -0.031408611    0.000924812
      8        6           0.005111696   -0.003573270    0.000277837
      9        6           0.001326979   -0.008048841    0.000056668
     10        6          -0.004207180   -0.002611078    0.000722863
     11        6           0.001474285    0.008016315   -0.000085236
     12        6          -0.004153273    0.002697744   -0.000558294
     13        6          -0.009466610   -0.001444076   -0.000024425
     14        6          -0.009441219    0.001607619    0.000056523
     15        6          -0.004677661   -0.023037225    0.001587231
     16        6          -0.004249856    0.023113140   -0.001677748
     17        1          -0.002344975    0.009414442   -0.000247172
     18        1          -0.002512469   -0.009366205    0.000256861
     19        1           0.007658625    0.004760323   -0.000106583
     20        1           0.007568378   -0.004897198    0.000071213
     21        1          -0.007845391   -0.006340278    0.000446108
     22        1          -0.007727856    0.006479968   -0.000438399
     23        8           0.021278539    0.015653403   -0.000697345
     24        1          -0.001622078   -0.006864738    0.000577460
     25        8           0.021005723   -0.016046465    0.000660843
     26        1          -0.001502743    0.006892229   -0.000602916
 -------------------------------------------------------------------
 Cartesian Forces:  Max     0.031587543 RMS     0.009207241

 GradGradGradGradGradGradGradGradGradGradGradGradGradGradGradGradGradGrad
 Berny optimization.
 FormGI is forming the generalized inverse of G from B-inverse, IUseBI=4.
 Internal  Forces:  Max     0.031019186 RMS     0.007273765
 Search for a local minimum.
 Step number   1 out of a maximum of  150
 All quantities printed in internal units (Hartrees-Bohrs-Radians)
 Mixed Optimization -- RFO/linear search
 Second derivative matrix not updated -- first step.
 ITU=  0
     Eigenvalues ---    0.01000   0.01001   0.01007   0.01483   0.01565
     Eigenvalues ---    0.01727   0.01782   0.01812   0.01930   0.02048
     Eigenvalues ---    0.02065   0.02074   0.02085   0.02090   0.02092
     Eigenvalues ---    0.02142   0.02142   0.02157   0.02162   0.02169
     Eigenvalues ---    0.02173   0.02176   0.02196   0.16000   0.16000
     Eigenvalues ---    0.16000   0.16000   0.16000   0.16000   0.16000
     Eigenvalues ---    0.16000   0.22000   0.22490   0.22588   0.24501
     Eigenvalues ---    0.24506   0.24991   0.24995   0.24997   0.24999
     Eigenvalues ---    0.24999   0.25000   0.25000   0.25000   0.32418
     Eigenvalues ---    0.32995   0.34732   0.34868   0.34920   0.34921
     Eigenvalues ---    0.35099   0.35099   0.35196   0.35196   0.39796
     Eigenvalues ---    0.41271   0.41429   0.41943   0.44054   0.45339
     Eigenvalues ---    0.45545   0.45762   0.45831   0.46485   0.46854
     Eigenvalues ---    0.46987   0.51764   0.51765   0.53440   0.53441
     Eigenvalues ---    0.93060   0.93060
 RFO step:  Lambda=-1.99559121D-02 EMin= 1.00004836D-02
 Linear search not attempted -- first point.
 Iteration  1 RMS(Cart)=  0.05047808 RMS(Int)=  0.00100517
 Iteration  2 RMS(Cart)=  0.00146314 RMS(Int)=  0.00008672
 Iteration  3 RMS(Cart)=  0.00000101 RMS(Int)=  0.00008672
 Iteration  4 RMS(Cart)=  0.00000000 RMS(Int)=  0.00008672
 Variable       Old X    -DE/DX   Delta X   Delta X   Delta X     New X
                                 (Linear)    (Quad)   (Total)
    R1        2.78507   0.00968   0.00000   0.02718   0.02708   2.81215
    R2        2.81500  -0.01081   0.00000  -0.03172  -0.03162   2.78338
    R3        2.31554   0.03102   0.00000   0.03263   0.03263   2.34817
    R4        2.62190   0.01764   0.00000   0.03825   0.03802   2.65992
    R5        2.65291  -0.00300   0.00000  -0.00586  -0.00588   2.64703
    R6        2.65413   0.00590   0.00000   0.00931   0.00954   2.66367
    R7        2.66272  -0.00473   0.00000  -0.01093  -0.01091   2.65181
    R8        2.81506  -0.01085   0.00000  -0.03183  -0.03173   2.78333
    R9        2.31554   0.03101   0.00000   0.03262   0.03262   2.34816
   R10        2.78516   0.00965   0.00000   0.02710   0.02700   2.81216
   R11        2.66274  -0.00474   0.00000  -0.01095  -0.01094   2.65180
   R12        2.65291  -0.00300   0.00000  -0.00586  -0.00588   2.64703
   R13        2.63732  -0.00040   0.00000  -0.00134  -0.00132   2.63599
   R14        2.05803   0.00938   0.00000   0.02540   0.02540   2.08343
   R15        2.63679   0.01844   0.00000   0.03876   0.03874   2.67553
   R16        2.58126   0.00827   0.00000   0.01539   0.01539   2.59665
   R17        2.63733  -0.00041   0.00000  -0.00137  -0.00135   2.63599
   R18        2.05804   0.00937   0.00000   0.02538   0.02538   2.08343
   R19        2.63676   0.01845   0.00000   0.03878   0.03876   2.67553
   R20        2.58125   0.00827   0.00000   0.01538   0.01538   2.59664
   R21        2.63120   0.00570   0.00000   0.01063   0.01066   2.64186
   R22        2.05514   0.00901   0.00000   0.02429   0.02429   2.07943
   R23        2.05515   0.00901   0.00000   0.02428   0.02428   2.07943
   R24        2.62594  -0.00099   0.00000  -0.00069  -0.00072   2.62522
   R25        2.05358   0.00993   0.00000   0.02669   0.02669   2.08027
   R26        2.05358   0.00993   0.00000   0.02670   0.02670   2.08027
   R27        1.83245  -0.00079   0.00000  -0.00143  -0.00143   1.83102
   R28        1.83245  -0.00079   0.00000  -0.00142  -0.00142   1.83102
    A1        2.08734  -0.01104   0.00000  -0.04098  -0.04099   2.04635
    A2        2.05420   0.01784   0.00000   0.06615   0.06615   2.12035
    A3        2.14160  -0.00680   0.00000  -0.02512  -0.02513   2.11648
    A4        2.10427   0.00222   0.00000   0.01156   0.01130   2.11557
    A5        2.08845  -0.00196   0.00000  -0.01170  -0.01149   2.07696
    A6        2.09047  -0.00027   0.00000   0.00014   0.00019   2.09066
    A7        2.09120   0.00880   0.00000   0.02941   0.02967   2.12088
    A8        2.11271  -0.01085   0.00000  -0.03520  -0.03540   2.07731
    A9        2.07923   0.00204   0.00000   0.00578   0.00572   2.08495
   A10        2.14167  -0.00682   0.00000  -0.02521  -0.02521   2.11647
   A11        2.08736  -0.01103   0.00000  -0.04094  -0.04095   2.04641
   A12        2.05412   0.01785   0.00000   0.06618   0.06618   2.12030
   A13        2.09120   0.00882   0.00000   0.02945   0.02972   2.12092
   A14        2.07914   0.00206   0.00000   0.00584   0.00578   2.08492
   A15        2.11281  -0.01088   0.00000  -0.03530  -0.03551   2.07730
   A16        2.10428   0.00223   0.00000   0.01159   0.01133   2.11561
   A17        2.09041  -0.00026   0.00000   0.00017   0.00023   2.09064
   A18        2.08849  -0.00197   0.00000  -0.01176  -0.01155   2.07694
   A19        2.10093  -0.00152   0.00000  -0.00536  -0.00541   2.09552
   A20        2.09889  -0.00182   0.00000  -0.01166  -0.01164   2.08726
   A21        2.08336   0.00334   0.00000   0.01702   0.01705   2.10041
   A22        2.11300  -0.00063   0.00000  -0.00310  -0.00306   2.10994
   A23        2.11406  -0.01891   0.00000  -0.06963  -0.06966   2.04440
   A24        2.05611   0.01954   0.00000   0.07276   0.07273   2.12884
   A25        2.10095  -0.00152   0.00000  -0.00536  -0.00542   2.09553
   A26        2.09889  -0.00182   0.00000  -0.01166  -0.01163   2.08726
   A27        2.08335   0.00334   0.00000   0.01702   0.01705   2.10040
   A28        2.11298  -0.00063   0.00000  -0.00310  -0.00305   2.10993
   A29        2.11401  -0.01890   0.00000  -0.06960  -0.06963   2.04438
   A30        2.05617   0.01953   0.00000   0.07272   0.07270   2.12887
   A31        2.09179   0.00178   0.00000   0.00522   0.00522   2.09700
   A32        2.09391  -0.00125   0.00000  -0.00459  -0.00459   2.08932
   A33        2.09749  -0.00053   0.00000  -0.00063  -0.00063   2.09686
   A34        2.09180   0.00178   0.00000   0.00521   0.00521   2.09701
   A35        2.09391  -0.00125   0.00000  -0.00460  -0.00460   2.08931
   A36        2.09747  -0.00053   0.00000  -0.00061  -0.00061   2.09686
   A37        2.09087  -0.00142   0.00000  -0.00266  -0.00265   2.08822
   A38        2.11445  -0.00117   0.00000  -0.00914  -0.00914   2.10531
   A39        2.07787   0.00259   0.00000   0.01180   0.01179   2.08966
   A40        2.09090  -0.00142   0.00000  -0.00267  -0.00267   2.08824
   A41        2.11443  -0.00117   0.00000  -0.00914  -0.00914   2.10529
   A42        2.07784   0.00260   0.00000   0.01182   0.01181   2.08965
   A43        1.93979  -0.01289   0.00000  -0.07161  -0.07161   1.86819
   A44        1.93978  -0.01289   0.00000  -0.07162  -0.07162   1.86815
    D1       -0.00899  -0.00010   0.00000  -0.00365  -0.00363  -0.01262
    D2        3.13252  -0.00005   0.00000  -0.00280  -0.00278   3.12974
    D3        3.12286  -0.00007   0.00000   0.00182   0.00197   3.12483
    D4       -0.01881  -0.00002   0.00000   0.00267   0.00282  -0.01598
    D5        0.03550  -0.00012   0.00000  -0.00034  -0.00033   0.03517
    D6       -3.11565  -0.00017   0.00000  -0.00099  -0.00100  -3.11665
    D7       -3.09585  -0.00029   0.00000  -0.00661  -0.00645  -3.10230
    D8        0.03619  -0.00033   0.00000  -0.00726  -0.00712   0.02907
    D9       -0.00907   0.00022   0.00000   0.00515   0.00522  -0.00385
   D10        3.13440   0.00014   0.00000   0.00364   0.00368   3.13808
   D11        3.13260   0.00017   0.00000   0.00430   0.00436   3.13696
   D12       -0.00712   0.00009   0.00000   0.00279   0.00283  -0.00429
   D13       -3.13702  -0.00011   0.00000  -0.00256  -0.00257  -3.13959
   D14        0.00456  -0.00010   0.00000  -0.00206  -0.00206   0.00249
   D15        0.00450  -0.00006   0.00000  -0.00171  -0.00173   0.00276
   D16       -3.13711  -0.00005   0.00000  -0.00122  -0.00122  -3.13834
   D17       -0.04259  -0.00020   0.00000   0.00134   0.00142  -0.04117
   D18        3.10742  -0.00008   0.00000   0.00272   0.00281   3.11023
   D19        3.10838  -0.00008   0.00000   0.00221   0.00231   3.11069
   D20       -0.02480   0.00004   0.00000   0.00358   0.00370  -0.02110
   D21       -3.11606  -0.00003   0.00000  -0.00134  -0.00140  -3.11746
   D22        0.03223  -0.00030   0.00000  -0.00644  -0.00630   0.02594
   D23        0.01604  -0.00004   0.00000  -0.00185  -0.00191   0.01413
   D24       -3.11885  -0.00031   0.00000  -0.00696  -0.00681  -3.12566
   D25       -3.10804  -0.00027   0.00000  -0.00567  -0.00558  -3.11362
   D26        0.02498  -0.00033   0.00000  -0.00686  -0.00676   0.01822
   D27        0.02466  -0.00017   0.00000  -0.00155  -0.00156   0.02310
   D28       -3.12551  -0.00023   0.00000  -0.00275  -0.00274  -3.12825
   D29        0.00193  -0.00008   0.00000  -0.00253  -0.00252  -0.00059
   D30       -3.14154  -0.00000   0.00000  -0.00101  -0.00099   3.14066
   D31        3.13507  -0.00011   0.00000   0.00095   0.00104   3.13611
   D32       -0.00840  -0.00003   0.00000   0.00247   0.00258  -0.00582
   D33        0.01646  -0.00004   0.00000  -0.00198  -0.00203   0.01443
   D34       -3.11986  -0.00033   0.00000  -0.00783  -0.00765  -3.12751
   D35       -3.11661  -0.00002   0.00000  -0.00091  -0.00100  -3.11761
   D36        0.03025  -0.00031   0.00000  -0.00677  -0.00661   0.02363
   D37        0.00441  -0.00006   0.00000  -0.00176  -0.00177   0.00264
   D38       -3.13770  -0.00003   0.00000  -0.00094  -0.00095  -3.13865
   D39       -3.13532  -0.00015   0.00000  -0.00328  -0.00330  -3.13862
   D40        0.00575  -0.00012   0.00000  -0.00246  -0.00247   0.00327
   D41        0.00094  -0.00003   0.00000  -0.00052  -0.00051   0.00043
   D42       -3.14142   0.00000   0.00000   0.00032   0.00034  -3.14108
   D43       -3.14064  -0.00005   0.00000  -0.00101  -0.00102   3.14152
   D44        0.00019  -0.00001   0.00000  -0.00017  -0.00017   0.00002
   D45        0.00144  -0.00006   0.00000  -0.00172  -0.00176  -0.00033
   D46        3.13897   0.00001   0.00000  -0.00005  -0.00010   3.13887
   D47        3.13793   0.00011   0.00000   0.00353   0.00370  -3.14155
   D48       -0.00773   0.00018   0.00000   0.00521   0.00537  -0.00236
   D49        3.12347   0.00026   0.00000   0.00625   0.00625   3.12972
   D50       -0.01302   0.00003   0.00000   0.00079   0.00080  -0.01222
   D51        0.00102  -0.00003   0.00000  -0.00048  -0.00047   0.00055
   D52        3.14135   0.00002   0.00000   0.00066   0.00067  -3.14117
   D53       -3.14005  -0.00006   0.00000  -0.00128  -0.00129  -3.14134
   D54        0.00027  -0.00001   0.00000  -0.00014  -0.00015   0.00012
   D55        0.00186  -0.00006   0.00000  -0.00185  -0.00189  -0.00003
   D56        3.14081  -0.00002   0.00000  -0.00071  -0.00074   3.14007
   D57        3.13697   0.00006   0.00000   0.00256   0.00271   3.13968
   D58       -0.00727   0.00011   0.00000   0.00371   0.00385  -0.00341
   D59       -3.14055   0.00019   0.00000   0.00465   0.00464  -3.13591
   D60        0.00753  -0.00000   0.00000  -0.00003  -0.00003   0.00750
   D61       -0.00367   0.00005   0.00000   0.00155   0.00157  -0.00210
   D62        3.13920   0.00001   0.00000   0.00042   0.00043   3.13962
   D63        3.13868   0.00002   0.00000   0.00071   0.00072   3.13940
   D64       -0.00164  -0.00002   0.00000  -0.00042  -0.00042  -0.00206
   D65       -0.01062   0.00013   0.00000   0.00367   0.00374  -0.00688
   D66        3.13495   0.00007   0.00000   0.00207   0.00213   3.13709
   D67        3.13356   0.00009   0.00000   0.00257   0.00263   3.13619
   D68       -0.00405   0.00003   0.00000   0.00098   0.00103  -0.00302
         Item               Value     Threshold  Converged?
 Maximum Force            0.031019     0.000450     NO 
 RMS     Force            0.007274     0.000300     NO 
 Maximum Displacement     0.233127     0.001800     NO 
 RMS     Displacement     0.050728     0.001200     NO 
 Predicted change in Energy=-1.063830D-02
 GradGradGradGradGradGradGradGradGradGradGradGradGradGradGradGradGradGrad

                          Input orientation:                          
 ---------------------------------------------------------------------
 Center     Atomic      Atomic             Coordinates (Angstroms)
 Number     Number       Type             X           Y           Z
 ---------------------------------------------------------------------
      1          6           0        0.019474    1.497830   -0.040026
      2          6           0        1.285206    0.715539   -0.018503
      3          6           0       -1.242684    0.738659   -0.032783
      4          8           0        0.024641    2.740277   -0.058782
      5          6           0       -0.006998   -1.450614    0.051561
      6          6           0       -1.255383   -0.669174    0.035656
      7          8           0       -0.024031   -2.692711    0.082294
      8          6           0        1.272555   -0.691364    0.022860
      9          6           0        2.507103    1.400112   -0.039093
     10          6           0       -2.483378   -1.346964    0.078109
     11          6           0        2.481943   -1.397937    0.037954
     12          6           0       -2.458152    1.438153   -0.083100
     13          6           0        3.706955    0.688894   -0.021978
     14          6           0        3.694381   -0.708566    0.015237
     15          6           0       -3.694907    0.749796   -0.048876
     16          6           0       -3.707473   -0.636783    0.035607
     17          1           0        2.513265    2.502208   -0.068370
     18          1           0        2.468295   -2.499958    0.067553
     19          1           0        4.663486    1.232628   -0.037813
     20          1           0        4.640971   -1.269534    0.026859
     21          1           0       -4.668319   -1.173111    0.066605
     22          1           0       -4.645863    1.303013   -0.087159
     23          8           0       -2.389873    2.807880   -0.168443
     24          1           0       -3.301024    3.136866   -0.188664
     25          8           0       -2.440016   -2.717828    0.161554
     26          1           0       -3.356934   -3.029512    0.192431
 ---------------------------------------------------------------------
                    Distance matrix (angstroms):
                    1          2          3          4          5
     1  C    0.000000
     2  C    1.488126   0.000000
     3  C    1.472900   2.528036   0.000000
     4  O    1.242599   2.385417   2.369232   0.000000
     5  C    2.949986   2.523275   2.515344   4.192464   0.000000
     6  C    2.515332   2.893951   1.409553   3.643039   1.472877
     7  O    4.192552   3.652455   3.643166   5.435038   1.242594
     8  C    2.523240   1.407568   2.893871   3.652413   1.488133
     9  C    2.489548   1.400749   3.807685   2.821179   3.802047
    10  C    3.790920   4.297147   2.429289   4.797336   2.478690
    11  C    3.802012   2.429433   4.294518   4.813783   2.489535
    12  C    2.478719   3.813013   1.403276   2.803636   3.790945
    13  C    3.775211   2.421898   4.949901   4.215325   4.286765
    14  C    4.286745   2.798810   5.145035   5.036566   3.775204
    15  C    3.788965   4.980323   2.452301   4.218666   4.295645
    16  C    4.295629   5.172866   2.823421   5.034096   3.788944
    17  H    2.688600   2.168595   4.149521   2.500004   4.689447
    18  H    4.689414   3.427320   4.926467   5.783379   2.688578
    19  H    4.651579   3.417680   5.926793   4.877739   5.387133
    20  H    5.387115   3.899196   6.217217   6.115261   4.651561
    21  H    5.396361   6.246495   3.924248   6.111809   4.669599
    22  H    4.669641   5.960488   3.450084   4.886731   5.396367
    23  O    2.745483   4.231617   2.369836   2.417948   4.884800
    24  H    3.705973   5.188958   3.164247   3.351746   5.652724
    25  O    4.884824   5.069290   3.663151   5.992829   2.745452
    26  H    5.652521   5.968195   4.326649   6.692430   3.706053
                    6          7          8          9         10
     6  C    0.000000
     7  O    2.369199   0.000000
     8  C    2.528068   2.385384   0.000000
     9  C    4.294628   4.813790   2.429449   0.000000
    10  C    1.403272   2.803469   3.813121   5.697812   0.000000
    11  C    3.807717   2.821048   1.400746   2.799222   4.965744
    12  C    2.429317   4.797534   4.297004   4.965595   2.789893
    13  C    5.145140   5.036505   2.798826   1.394908   6.517281
    14  C    4.949963   4.215201   2.421899   2.420558   6.210975
    15  C    2.823455   5.034222   5.172791   6.236019   2.424939
    16  C    2.452304   4.218621   4.980344   6.540297   1.415830
    17  H    4.926580   5.783404   3.427330   1.102502   6.309043
    18  H    4.149526   2.499813   2.168594   3.901720   5.084149
    19  H    6.217336   6.115189   3.899211   2.162878   7.599040
    20  H    5.926846   4.877577   3.417678   3.418296   7.124954
    21  H    3.450079   4.886598   5.960535   7.623604   2.191878
    22  H    3.924278   6.111943   6.246384   7.153786   3.424330
    23  O    3.663145   5.993045   5.068993   5.096952   4.163203
    24  H    4.326766   6.692986   5.968058   6.064077   4.565571
    25  O    2.369850   2.417415   4.231900   6.439851   1.374086
    26  H    3.164220   3.351686   5.189206   7.352693   1.899247
                   11         12         13         14         15
    11  C    0.000000
    12  C    5.697595   0.000000
    13  C    2.420559   6.210770   0.000000
    14  C    1.394903   6.517034   1.398011   0.000000
    15  C    6.540165   1.415828   7.402161   7.532099   0.000000
    16  C    6.236043   2.424924   7.532229   7.402231   1.389207
    17  H    3.901719   5.084035   2.171441   3.422148   6.450793
    18  H    1.102503   6.308826   3.422144   2.171430   6.968466
    19  H    3.418296   7.124747   1.100387   2.170303   8.372335
    20  H    2.162871   7.598763   2.170301   1.100387   8.577312
    21  H    7.153853   3.424318   8.580218   8.375751   2.158342
    22  H    7.623411   2.191885   8.375617   8.580012   1.100833
    23  O    6.439417   1.374081   6.456227   7.029743   2.439902
    24  H    7.352448   1.899264   7.425101   7.985275   2.423383
    25  O    5.097359   4.163215   7.030270   6.456731   3.693704
    26  H    6.064518   4.565497   7.985677   7.425580   3.802056
                   16         17         18         19         20
    16  C    0.000000
    17  H    6.968620   0.000000
    18  H    6.450780   5.004214   0.000000
    19  H    8.577474   2.497242   4.331532   0.000000
    20  H    8.372393   4.331539   2.497222   2.503099   0.000000
    21  H    1.100834   8.068541   7.258911   9.637484   9.309874
    22  H    2.158345   7.258894   8.068319   9.309746   9.637234
    23  O    3.693699   4.913677   7.199350   7.228303   8.129958
    24  H    3.802094   5.850062   8.069973   8.190379   9.085048
    25  O    2.439889   7.199766   4.914044   8.130535   7.228836
    26  H    2.423350   8.070141   5.850582   9.085483   8.190935
                   21         22         23         24         25
    21  H    0.000000
    22  H    2.480996   0.000000
    23  O    4.592914   2.713065   0.000000
    24  H    4.528859   2.276381   0.968936   0.000000
    25  O    2.713024   4.592906   5.535781   5.928020   0.000000
    26  H    2.276355   4.528828   5.927950   6.178396   0.968937
                   26
    26  H    0.000000
 Stoichiometry    C14H8O4
 Framework group  C1[X(C14H8O4)]
 Deg. of freedom    72
 Full point group                 C1      NOp   1
 Largest Abelian subgroup         C1      NOp   1
 Largest concise Abelian subgroup C1      NOp   1
                         Standard orientation:                         
 ---------------------------------------------------------------------
 Center     Atomic      Atomic             Coordinates (Angstroms)
 Number     Number       Type             X           Y           Z
 ---------------------------------------------------------------------
      1          6           0       -0.325734   -1.474829    0.022024
      2          6           0       -1.598406   -0.703673    0.010052
      3          6           0        0.929597   -0.704787   -0.002798
      4          8           0       -0.319805   -2.716947    0.056103
      5          6           0       -0.325618    1.474963   -0.011815
      6          6           0        0.929698    0.704740    0.005731
      7          8           0       -0.319684    2.717346   -0.033911
      8          6           0       -1.598331    0.703774   -0.008431
      9          6           0       -2.814136   -1.399395    0.018374
     10          6           0        2.151573    1.394670    0.019541
     11          6           0       -2.813982    1.399512   -0.023597
     12          6           0        2.151284   -1.394896   -0.023123
     13          6           0       -4.020294   -0.698844    0.005031
     14          6           0       -4.020209    0.698991   -0.017195
     15          6           0        3.381830   -0.694681   -0.017981
     16          6           0        3.381979    0.694292    0.007479
     17          1           0       -2.810449   -2.501751    0.035976
     18          1           0       -2.810183    2.501873   -0.040873
     19          1           0       -4.971928   -1.251287    0.012162
     20          1           0       -4.971772    1.251463   -0.029594
     21          1           0        4.337984    1.240019    0.015814
     22          1           0        4.337705   -1.240505   -0.032548
     23          8           0        2.095276   -2.767569   -0.050170
     24          1           0        3.009337   -3.088960   -0.056230
     25          8           0        2.095936    2.767400    0.044624
     26          1           0        3.010019    3.088297    0.062380
 ---------------------------------------------------------------------
 Rotational constants (GHZ):      0.7093163      0.3846069      0.2494325
 Standard basis: VSTO-6G (5D, 7F)
 There are    80 symmetry adapted cartesian basis functions of A   symmetry.
 There are    80 symmetry adapted basis functions of A   symmetry.
    80 basis functions,   480 primitive gaussians,    80 cartesian basis functions
    44 alpha electrons       44 beta electrons
       nuclear repulsion energy       675.5419775135 Hartrees.
 Integral buffers will be    131072 words long.
 Regular integral format.
 Two-electron integral symmetry is turned off.
 Do NDO integrals.
 One-electron integrals computed using PRISM.
 NBasis=    80 RedAO= F EigKep=  0.00D+00  NBF=    80
 NBsUse=    80 1.00D-04 EigRej=  0.00D+00 NBFU=    80
 Initial guess from the checkpoint file:  "anthracene-1-4-opt.chk"
 B after Tr=    -0.000000   -0.000000   -0.000000
         Rot=    1.000000   -0.000097   -0.000025   -0.000002 Ang=  -0.01 deg.
 Overlap will be assumed to be unity.
 Keep J ints in memory in canonical form, NReq=933890.
 Requested convergence on RMS density matrix=1.00D-08 within 128 cycles.
 Requested convergence on MAX density matrix=1.00D-06.
 Requested convergence on             energy=1.00D-06.
 No special actions if energy rises.
 SCF Done:  E(RAM1) = -0.134375985207     A.U. after   15 cycles
            NFock= 14  Conv=0.93D-08     -V/T= 0.9978
 Calling FoFJK, ICntrl=      2127 FMM=F ISym2X=0 I1Cent= 0 IOpClX= 0 NMat=1 NMatS=1 NMatT=0.
 ***** Axes restored to original set *****
 -------------------------------------------------------------------
 Center     Atomic                   Forces (Hartrees/Bohr)
 Number     Number              X              Y              Z
 -------------------------------------------------------------------
      1        6           0.009285099    0.007014432   -0.000266488
      2        6          -0.006376203   -0.000050585    0.000102210
      3        6           0.000863744   -0.005569137    0.000497201
      4        8           0.003514186   -0.010279157    0.000133944
      5        6           0.009168378   -0.007171367    0.000262367
      6        6           0.000963865    0.005572805   -0.000494476
      7        8           0.003697799    0.010189383   -0.000189961
      8        6          -0.006375419    0.000173141    0.000004513
      9        6          -0.000783491   -0.002648541    0.000050268
     10        6          -0.008970130    0.001644376   -0.000069395
     11        6          -0.000734271    0.002656352   -0.000065418
     12        6          -0.008985688   -0.001498727   -0.000029147
     13        6          -0.000297577   -0.004387479    0.000115191
     14        6          -0.000213433    0.004394943   -0.000121167
     15        6           0.005636263   -0.006218302    0.000369287
     16        6           0.005744421    0.006116177   -0.000357178
     17        1          -0.000971693   -0.000079849   -0.000039066
     18        1          -0.000970381    0.000096937    0.000052329
     19        1           0.000071436   -0.000293514   -0.000017779
     20        1           0.000077108    0.000292202    0.000013987
     21        1           0.001626897   -0.000840883    0.000078811
     22        1           0.001641825    0.000814367   -0.000028233
     23        8          -0.003732250   -0.003902799    0.000350114
     24        1          -0.000090015    0.002236886   -0.000104587
     25        8          -0.003656589    0.003979455   -0.000272295
     26        1          -0.000133880   -0.002241116    0.000024966
 -------------------------------------------------------------------
 Cartesian Forces:  Max     0.010279157 RMS     0.003739687

 GradGradGradGradGradGradGradGradGradGradGradGradGradGradGradGradGradGrad
 Berny optimization.
 Using GEDIIS/GDIIS optimizer.
 FormGI is forming the generalized inverse of G from B-inverse, IUseBI=4.
 Internal  Forces:  Max     0.010265307 RMS     0.002781545
 Search for a local minimum.
 Step number   2 out of a maximum of  150
 All quantities printed in internal units (Hartrees-Bohrs-Radians)
 Mixed Optimization -- RFO/linear search
 Update second derivatives using D2CorX and points    1    2
 DE= -7.35D-03 DEPred=-1.06D-02 R= 6.91D-01
 TightC=F SS=  1.41D+00  RLast= 2.57D-01 DXNew= 5.0454D-01 7.7029D-01
 Trust test= 6.91D-01 RLast= 2.57D-01 DXMaxT set to 5.05D-01
 ITU=  1  0
 Use linear search instead of GDIIS.
     Eigenvalues ---    0.01003   0.01006   0.01008   0.01495   0.01566
     Eigenvalues ---    0.01733   0.01782   0.01819   0.01934   0.02048
     Eigenvalues ---    0.02072   0.02080   0.02085   0.02091   0.02093
     Eigenvalues ---    0.02142   0.02142   0.02157   0.02162   0.02169
     Eigenvalues ---    0.02173   0.02177   0.02197   0.15749   0.16000
     Eigenvalues ---    0.16000   0.16000   0.16000   0.16000   0.16000
     Eigenvalues ---    0.16452   0.22000   0.22486   0.22584   0.24163
     Eigenvalues ---    0.24499   0.24610   0.24991   0.24998   0.24998
     Eigenvalues ---    0.25000   0.25000   0.25000   0.26192   0.32488
     Eigenvalues ---    0.33679   0.34404   0.34740   0.34921   0.35009
     Eigenvalues ---    0.35099   0.35154   0.35196   0.37243   0.40244
     Eigenvalues ---    0.41302   0.41487   0.42076   0.44327   0.45133
     Eigenvalues ---    0.45542   0.45766   0.46229   0.46546   0.46703
     Eigenvalues ---    0.51042   0.51765   0.53277   0.53440   0.54091
     Eigenvalues ---    0.93060   0.98040
 RFO step:  Lambda=-8.85479978D-04 EMin= 1.00305269D-02
 Quartic linear search produced a step of -0.20684.
 Iteration  1 RMS(Cart)=  0.01282815 RMS(Int)=  0.00005776
 Iteration  2 RMS(Cart)=  0.00007328 RMS(Int)=  0.00002399
 Iteration  3 RMS(Cart)=  0.00000000 RMS(Int)=  0.00002399
 Variable       Old X    -DE/DX   Delta X   Delta X   Delta X     New X
                                 (Linear)    (Quad)   (Total)
    R1        2.81215  -0.00971  -0.00560  -0.01547  -0.02105   2.79110
    R2        2.78338   0.00487   0.00654   0.00406   0.01057   2.79395
    R3        2.34817  -0.01027  -0.00675  -0.00050  -0.00725   2.34092
    R4        2.65992  -0.00680  -0.00786  -0.00285  -0.01065   2.64926
    R5        2.64703  -0.00247   0.00122  -0.00602  -0.00480   2.64223
    R6        2.66367  -0.00284  -0.00197  -0.00022  -0.00226   2.66141
    R7        2.65181   0.00515   0.00226   0.00709   0.00935   2.66115
    R8        2.78333   0.00489   0.00656   0.00408   0.01061   2.79395
    R9        2.34816  -0.01024  -0.00675  -0.00048  -0.00723   2.34093
   R10        2.81216  -0.00971  -0.00559  -0.01549  -0.02105   2.79111
   R11        2.65180   0.00516   0.00226   0.00711   0.00937   2.66117
   R12        2.64703  -0.00246   0.00122  -0.00601  -0.00479   2.64224
   R13        2.63599  -0.00072   0.00027  -0.00140  -0.00113   2.63487
   R14        2.08343  -0.00008  -0.00525   0.00635   0.00110   2.08453
   R15        2.67553  -0.00840  -0.00801  -0.00505  -0.01306   2.66247
   R16        2.59665  -0.00187  -0.00318   0.00107  -0.00212   2.59453
   R17        2.63599  -0.00072   0.00028  -0.00140  -0.00112   2.63486
   R18        2.08343  -0.00008  -0.00525   0.00635   0.00110   2.08453
   R19        2.67553  -0.00840  -0.00802  -0.00504  -0.01306   2.66247
   R20        2.59664  -0.00187  -0.00318   0.00107  -0.00211   2.59452
   R21        2.64186  -0.00581  -0.00221  -0.00673  -0.00894   2.63291
   R22        2.07943  -0.00008  -0.00502   0.00607   0.00105   2.08047
   R23        2.07943  -0.00008  -0.00502   0.00607   0.00105   2.08048
   R24        2.62522  -0.00945   0.00015  -0.01721  -0.01706   2.60816
   R25        2.08027  -0.00101  -0.00552   0.00461  -0.00091   2.07936
   R26        2.08027  -0.00101  -0.00552   0.00461  -0.00091   2.07936
   R27        1.83102   0.00085   0.00030   0.00089   0.00119   1.83221
   R28        1.83102   0.00085   0.00029   0.00089   0.00119   1.83221
    A1        2.04635  -0.00013   0.00848  -0.01062  -0.00215   2.04420
    A2        2.12035  -0.00411  -0.01368   0.00402  -0.00966   2.11069
    A3        2.11648   0.00424   0.00520   0.00661   0.01181   2.12829
    A4        2.11557   0.00207  -0.00234   0.00771   0.00544   2.12101
    A5        2.07696  -0.00180   0.00238  -0.00670  -0.00438   2.07258
    A6        2.09066  -0.00027  -0.00004  -0.00101  -0.00106   2.08960
    A7        2.12088  -0.00193  -0.00614   0.00307  -0.00315   2.11773
    A8        2.07731   0.00447   0.00732   0.00111   0.00849   2.08580
    A9        2.08495  -0.00254  -0.00118  -0.00416  -0.00532   2.07963
   A10        2.11647   0.00425   0.00521   0.00660   0.01182   2.12829
   A11        2.04641  -0.00014   0.00847  -0.01063  -0.00217   2.04424
   A12        2.12030  -0.00411  -0.01369   0.00404  -0.00965   2.11065
   A13        2.12092  -0.00193  -0.00615   0.00308  -0.00315   2.11777
   A14        2.08492  -0.00254  -0.00120  -0.00414  -0.00532   2.07960
   A15        2.07730   0.00448   0.00734   0.00108   0.00849   2.08579
   A16        2.11561   0.00207  -0.00234   0.00771   0.00543   2.12104
   A17        2.09064  -0.00027  -0.00005  -0.00100  -0.00106   2.08958
   A18        2.07694  -0.00180   0.00239  -0.00671  -0.00437   2.07256
   A19        2.09552   0.00115   0.00112   0.00217   0.00331   2.09883
   A20        2.08726  -0.00158   0.00241  -0.00991  -0.00751   2.07975
   A21        2.10041   0.00044  -0.00353   0.00773   0.00420   2.10461
   A22        2.10994   0.00077   0.00063   0.00212   0.00273   2.11267
   A23        2.04440   0.00256   0.01441  -0.01032   0.00410   2.04850
   A24        2.12884  -0.00333  -0.01504   0.00820  -0.00684   2.12201
   A25        2.09553   0.00114   0.00112   0.00217   0.00330   2.09883
   A26        2.08726  -0.00158   0.00241  -0.00991  -0.00751   2.07975
   A27        2.10040   0.00044  -0.00353   0.00774   0.00421   2.10460
   A28        2.10993   0.00077   0.00063   0.00212   0.00274   2.11267
   A29        2.04438   0.00256   0.01440  -0.01031   0.00410   2.04848
   A30        2.12887  -0.00333  -0.01504   0.00819  -0.00684   2.12203
   A31        2.09700  -0.00087  -0.00108  -0.00116  -0.00224   2.09476
   A32        2.08932   0.00074   0.00095   0.00154   0.00248   2.09180
   A33        2.09686   0.00013   0.00013  -0.00038  -0.00025   2.09662
   A34        2.09701  -0.00087  -0.00108  -0.00117  -0.00224   2.09477
   A35        2.08931   0.00074   0.00095   0.00154   0.00249   2.09180
   A36        2.09686   0.00013   0.00013  -0.00037  -0.00025   2.09662
   A37        2.08822   0.00178   0.00055   0.00209   0.00263   2.09085
   A38        2.10531  -0.00248   0.00189  -0.01169  -0.00979   2.09551
   A39        2.08966   0.00070  -0.00244   0.00960   0.00717   2.09683
   A40        2.08824   0.00177   0.00055   0.00208   0.00262   2.09086
   A41        2.10529  -0.00248   0.00189  -0.01168  -0.00979   2.09550
   A42        2.08965   0.00071  -0.00244   0.00961   0.00717   2.09682
   A43        1.86819   0.00380   0.01481  -0.00042   0.01440   1.88258
   A44        1.86815   0.00380   0.01481  -0.00041   0.01440   1.88256
    D1       -0.01262  -0.00002   0.00075  -0.00158  -0.00082  -0.01344
    D2        3.12974  -0.00001   0.00057  -0.00109  -0.00051   3.12923
    D3        3.12483  -0.00004  -0.00041   0.00049   0.00005   3.12488
    D4       -0.01598  -0.00003  -0.00058   0.00097   0.00036  -0.01563
    D5        0.03517  -0.00014   0.00007  -0.00654  -0.00647   0.02869
    D6       -3.11665  -0.00010   0.00021  -0.00406  -0.00384  -3.12049
    D7       -3.10230  -0.00010   0.00133  -0.00859  -0.00730  -3.10960
    D8        0.02907  -0.00006   0.00147  -0.00611  -0.00467   0.02441
    D9       -0.00385   0.00009  -0.00108   0.00529   0.00420   0.00035
   D10        3.13808   0.00007  -0.00076   0.00402   0.00325   3.14133
   D11        3.13696   0.00008  -0.00090   0.00480   0.00389   3.14085
   D12       -0.00429   0.00006  -0.00059   0.00353   0.00294  -0.00135
   D13       -3.13959  -0.00004   0.00053  -0.00256  -0.00203   3.14157
   D14        0.00249  -0.00005   0.00043  -0.00248  -0.00206   0.00044
   D15        0.00276  -0.00003   0.00036  -0.00209  -0.00173   0.00104
   D16       -3.13834  -0.00004   0.00025  -0.00201  -0.00176  -3.14009
   D17       -0.04117   0.00028  -0.00029   0.01071   0.01037  -0.03080
   D18        3.11023   0.00022  -0.00058   0.00879   0.00817   3.11839
   D19        3.11069   0.00020  -0.00048   0.00819   0.00767   3.11836
   D20       -0.02110   0.00014  -0.00077   0.00627   0.00547  -0.01564
   D21       -3.11746  -0.00009   0.00029  -0.00609  -0.00581  -3.12327
   D22        0.02594  -0.00014   0.00130  -0.00925  -0.00800   0.01794
   D23        0.01413  -0.00005   0.00040  -0.00362  -0.00322   0.01090
   D24       -3.12566  -0.00010   0.00141  -0.00678  -0.00541  -3.13108
   D25       -3.11362  -0.00009   0.00115  -0.00937  -0.00824  -3.12186
   D26        0.01822  -0.00008   0.00140  -0.00749  -0.00611   0.01211
   D27        0.02310  -0.00012   0.00032  -0.00695  -0.00662   0.01647
   D28       -3.12825  -0.00010   0.00057  -0.00507  -0.00449  -3.13274
   D29       -0.00059  -0.00001   0.00052  -0.00113  -0.00060  -0.00120
   D30        3.14066   0.00000   0.00020   0.00013   0.00034   3.14100
   D31        3.13611  -0.00001  -0.00022   0.00130   0.00106   3.13717
   D32       -0.00582   0.00000  -0.00053   0.00256   0.00200  -0.00382
   D33        0.01443  -0.00006   0.00042  -0.00396  -0.00354   0.01088
[...]
    13  C    5.103385   5.028937   2.795668   1.395366   6.446398
    14  C    4.907561   4.235955   2.420688   2.416736   6.138217
    15  C    2.818219   5.063500   5.127870   6.155383   2.414986
    16  C    2.448672   4.283411   4.934916   6.461652   1.407647
    17  H    4.891690   5.733847   3.418712   1.102283   6.256338
    18  H    4.110858   2.556378   2.161994   3.895557   5.023445
    19  H    6.172907   6.108940   3.896130   2.163970   7.520642
    20  H    5.881380   4.914081   3.416613   3.415077   7.043280
    21  H    3.441385   4.960829   5.906541   7.535553   2.175456
    22  H    3.918465   6.145198   6.195970   7.057885   3.417489
    23  O    3.662681   5.976047   5.047827   5.046519   4.155486
    24  H    4.335590   6.693122   5.949150   6.008467   4.568769
    25  O    2.374766   2.565984   4.209910   6.395621   1.372859
    26  H    3.176372   3.489333   5.167771   7.306887   1.909510
                   11         12         13         14         15
    11  C    0.000000
    12  C    5.645356   0.000000
    13  C    2.416736   6.138229   0.000000
    14  C    1.395367   6.446600   1.393845   0.000000
    15  C    6.461911   1.407641   7.297411   7.428484   0.000000
    16  C    6.155590   2.414991   7.428317   7.297490   1.383477
    17  H    3.895555   5.023192   2.175605   3.420402   6.368442
    18  H    1.102284   6.256673   3.420408   2.175613   6.890298
    19  H    3.415080   7.043217   1.100463   2.166537   8.254248
    20  H    2.163972   7.520933   2.166535   1.100462   8.461294
    21  H    7.058087   3.417488   8.460350   8.252339   2.159519
    22  H    7.535860   2.175445   8.252285   8.460570   1.100307
    23  O    6.395954   1.372851   6.390876   6.967654   2.428975
    24  H    7.307115   1.909492   7.350937   7.916126   2.429575
    25  O    5.046497   4.155490   6.967313   6.390701   3.680528
    26  H    6.008596   4.568811   7.915946   7.350952   3.803465
                   16         17         18         19         20
    16  C    0.000000
    17  H    6.889903   0.000000
    18  H    6.368811   4.997612   0.000000
    19  H    8.461011   2.504749   4.331466   0.000000
    20  H    8.254434   4.331454   2.504760   2.498743   0.000000
    21  H    1.100305   7.982319   7.158976   9.502319   9.168572
    22  H    2.159521   7.158584   7.982776   9.168400   9.502675
    23  O    3.680528   4.856400   7.156075   7.152289   8.060288
    24  H    3.803396   5.785899   8.025810   8.101610   9.005856
    25  O    2.428982   7.155684   4.856537   8.059847   7.152168
    26  H    2.429654   8.025500   5.786191   9.005582   8.101717
                   21         22         23         24         25
    21  H    0.000000
    22  H    2.495780   0.000000
    23  O    4.583375   2.685772   0.000000
    24  H    4.535170   2.262789   0.969387   0.000000
    25  O    2.685789   4.583382   5.526906   5.928604   0.000000
    26  H    2.262916   4.535262   5.928650   6.189522   0.969382
                   26
    26  H    0.000000
 Stoichiometry    C14H8O4
 Framework group  C1[X(C14H8O4)]
 Deg. of freedom    72
 Full point group                 C1      NOp   1
 Largest Abelian subgroup         C1      NOp   1
 Largest concise Abelian subgroup C1      NOp   1
                         Standard orientation:                         
 ---------------------------------------------------------------------
 Center     Atomic      Atomic             Coordinates (Angstroms)
 Number     Number       Type             X           Y           Z
 ---------------------------------------------------------------------
      1          6           0       -0.332157   -1.454119    0.316027
      2          6           0       -1.581553   -0.701721    0.066066
      3          6           0        0.924660   -0.703436    0.098064
      4          8           0       -0.347654   -2.635240    0.678873
      5          6           0       -0.332234    1.454055    0.316220
      6          6           0        0.924620    0.703457    0.098004
      7          8           0       -0.347637    2.635229    0.678911
      8          6           0       -1.581653    0.701619    0.066546
      9          6           0       -2.774139   -1.396764   -0.158243
     10          6           0        2.133949    1.391728   -0.111514
     11          6           0       -2.774417    1.396636   -0.156911
     12          6           0        2.134100   -1.391628   -0.111149
     13          6           0       -3.958144   -0.696992   -0.393821
     14          6           0       -3.958308    0.696853   -0.393035
     15          6           0        3.338801   -0.691648   -0.311589
     16          6           0        3.338728    0.691828   -0.311804
     17          1           0       -2.765448   -2.498876   -0.140943
     18          1           0       -2.765929    2.498735   -0.138587
     19          1           0       -4.892341   -1.249449   -0.575715
     20          1           0       -4.892684    1.249293   -0.574056
     21          1           0        4.275268    1.248005   -0.467468
     22          1           0        4.275414   -1.247775   -0.467012
     23          8           0        2.083731   -2.763408   -0.131221
     24          1           0        2.988941   -3.094652   -0.234099
     25          8           0        2.083382    2.763499   -0.132241
     26          1           0        2.988682    3.094870   -0.233858
 ---------------------------------------------------------------------
 Rotational constants (GHZ):      0.7002631      0.3863085      0.2555603

 **********************************************************************

            Population analysis using the SCF density.

 **********************************************************************

 Orbital symmetries:
       Occupied  (A) (A) (A) (A) (A) (A) (A) (A) (A) (A) (A) (A)
                 (A) (A) (A) (A) (A) (A) (A) (A) (A) (A) (A) (A)
                 (A) (A) (A) (A) (A) (A) (A) (A) (A) (A) (A) (A)
                 (A) (A) (A) (A) (A) (A) (A) (A)
       Virtual   (A) (A) (A) (A) (A) (A) (A) (A) (A) (A) (A) (A)
                 (A) (A) (A) (A) (A) (A) (A) (A) (A) (A) (A) (A)
                 (A) (A) (A) (A) (A) (A) (A) (A) (A) (A) (A) (A)
 The electronic state is 1-A.
 Alpha  occ. eigenvalues --   -1.54134  -1.47950  -1.46108  -1.41975  -1.40254
 Alpha  occ. eigenvalues --   -1.34858  -1.24858  -1.17313  -1.15888  -1.10616
 Alpha  occ. eigenvalues --   -0.98798  -0.94072  -0.90201  -0.84259  -0.80533
 Alpha  occ. eigenvalues --   -0.77251  -0.72256  -0.68658  -0.66692  -0.65920
 Alpha  occ. eigenvalues --   -0.61797  -0.60334  -0.60087  -0.59933  -0.57943
 Alpha  occ. eigenvalues --   -0.57867  -0.55925  -0.55244  -0.54750  -0.54546
 Alpha  occ. eigenvalues --   -0.52745  -0.52571  -0.50682  -0.48893  -0.48860
 Alpha  occ. eigenvalues --   -0.48153  -0.45607  -0.44833  -0.40531  -0.38996
 Alpha  occ. eigenvalues --   -0.38563  -0.37005  -0.36808  -0.33442
 Alpha virt. eigenvalues --   -0.04565  -0.00979  -0.00713   0.00397   0.04845
 Alpha virt. eigenvalues --    0.05551   0.08346   0.08845   0.09345   0.09970
 Alpha virt. eigenvalues --    0.10139   0.10762   0.11422   0.12399   0.13215
 Alpha virt. eigenvalues --    0.13509   0.13724   0.14113   0.14558   0.14732
 Alpha virt. eigenvalues --    0.15075   0.15529   0.16191   0.16776   0.16993
 Alpha virt. eigenvalues --    0.17047   0.17442   0.18480   0.18528   0.18987
 Alpha virt. eigenvalues --    0.19330   0.20706   0.21309   0.21762   0.23362
 Alpha virt. eigenvalues --    0.23999
          Condensed to atoms (all electrons):
               1          2          3          4          5          6
     1  C    3.692365   0.000000   0.000000   0.000000   0.000000   0.000000
     2  C    0.000000   4.108671   0.000000   0.000000   0.000000   0.000000
     3  C    0.000000   0.000000   4.107208   0.000000   0.000000   0.000000
     4  O    0.000000   0.000000   0.000000   6.253287   0.000000   0.000000
     5  C    0.000000   0.000000   0.000000   0.000000   3.692365   0.000000
     6  C    0.000000   0.000000   0.000000   0.000000   0.000000   4.107186
     7  O    0.000000   0.000000   0.000000   0.000000   0.000000   0.000000
     8  C    0.000000   0.000000   0.000000   0.000000   0.000000   0.000000
     9  C    0.000000   0.000000   0.000000   0.000000   0.000000   0.000000
    10  C    0.000000   0.000000   0.000000   0.000000   0.000000   0.000000
    11  C    0.000000   0.000000   0.000000   0.000000   0.000000   0.000000
    12  C    0.000000   0.000000   0.000000   0.000000   0.000000   0.000000
    13  C    0.000000   0.000000   0.000000   0.000000   0.000000   0.000000
    14  C    0.000000   0.000000   0.000000   0.000000   0.000000   0.000000
    15  C    0.000000   0.000000   0.000000   0.000000   0.000000   0.000000
    16  C    0.000000   0.000000   0.000000   0.000000   0.000000   0.000000
    17  H    0.000000   0.000000   0.000000   0.000000   0.000000   0.000000
    18  H    0.000000   0.000000   0.000000   0.000000   0.000000   0.000000
    19  H    0.000000   0.000000   0.000000   0.000000   0.000000   0.000000
    20  H    0.000000   0.000000   0.000000   0.000000   0.000000   0.000000
    21  H    0.000000   0.000000   0.000000   0.000000   0.000000   0.000000
    22  H    0.000000   0.000000   0.000000   0.000000   0.000000   0.000000
    23  O    0.000000   0.000000   0.000000   0.000000   0.000000   0.000000
    24  H    0.000000   0.000000   0.000000   0.000000   0.000000   0.000000
    25  O    0.000000   0.000000   0.000000   0.000000   0.000000   0.000000
    26  H    0.000000   0.000000   0.000000   0.000000   0.000000   0.000000
               7          8          9         10         11         12
     1  C    0.000000   0.000000   0.000000   0.000000   0.000000   0.000000
     2  C    0.000000   0.000000   0.000000   0.000000   0.000000   0.000000
     3  C    0.000000   0.000000   0.000000   0.000000   0.000000   0.000000
     4  O    0.000000   0.000000   0.000000   0.000000   0.000000   0.000000
     5  C    0.000000   0.000000   0.000000   0.000000   0.000000   0.000000
     6  C    0.000000   0.000000   0.000000   0.000000   0.000000   0.000000
     7  O    6.253308   0.000000   0.000000   0.000000   0.000000   0.000000
     8  C    0.000000   4.108683   0.000000   0.000000   0.000000   0.000000
     9  C    0.000000   0.000000   4.087615   0.000000   0.000000   0.000000
    10  C    0.000000   0.000000   0.000000   3.911526   0.000000   0.000000
    11  C    0.000000   0.000000   0.000000   0.000000   4.087600   0.000000
    12  C    0.000000   0.000000   0.000000   0.000000   0.000000   3.911521
    13  C    0.000000   0.000000   0.000000   0.000000   0.000000   0.000000
    14  C    0.000000   0.000000   0.000000   0.000000   0.000000   0.000000
    15  C    0.000000   0.000000   0.000000   0.000000   0.000000   0.000000
    16  C    0.000000   0.000000   0.000000   0.000000   0.000000   0.000000
    17  H    0.000000   0.000000   0.000000   0.000000   0.000000   0.000000
    18  H    0.000000   0.000000   0.000000   0.000000   0.000000   0.000000
    19  H    0.000000   0.000000   0.000000   0.000000   0.000000   0.000000
    20  H    0.000000   0.000000   0.000000   0.000000   0.000000   0.000000
    21  H    0.000000   0.000000   0.000000   0.000000   0.000000   0.000000
    22  H    0.000000   0.000000   0.000000   0.000000   0.000000   0.000000
    23  O    0.000000   0.000000   0.000000   0.000000   0.000000   0.000000
    24  H    0.000000   0.000000   0.000000   0.000000   0.000000   0.000000
    25  O    0.000000   0.000000   0.000000   0.000000   0.000000   0.000000
    26  H    0.000000   0.000000   0.000000   0.000000   0.000000   0.000000
              13         14         15         16         17         18
     1  C    0.000000   0.000000   0.000000   0.000000   0.000000   0.000000
     2  C    0.000000   0.000000   0.000000   0.000000   0.000000   0.000000
     3  C    0.000000   0.000000   0.000000   0.000000   0.000000   0.000000
     4  O    0.000000   0.000000   0.000000   0.000000   0.000000   0.000000
     5  C    0.000000   0.000000   0.000000   0.000000   0.000000   0.000000
     6  C    0.000000   0.000000   0.000000   0.000000   0.000000   0.000000
     7  O    0.000000   0.000000   0.000000   0.000000   0.000000   0.000000
     8  C    0.000000   0.000000   0.000000   0.000000   0.000000   0.000000
     9  C    0.000000   0.000000   0.000000   0.000000   0.000000   0.000000
    10  C    0.000000   0.000000   0.000000   0.000000   0.000000   0.000000
    11  C    0.000000   0.000000   0.000000   0.000000   0.000000   0.000000
    12  C    0.000000   0.000000   0.000000   0.000000   0.000000   0.000000
    13  C    4.118772   0.000000   0.000000   0.000000   0.000000   0.000000
    14  C    0.000000   4.118787   0.000000   0.000000   0.000000   0.000000
    15  C    0.000000   0.000000   4.163537   0.000000   0.000000   0.000000
    16  C    0.000000   0.000000   0.000000   4.163513   0.000000   0.000000
    17  H    0.000000   0.000000   0.000000   0.000000   0.842336   0.000000
    18  H    0.000000   0.000000   0.000000   0.000000   0.000000   0.842324
    19  H    0.000000   0.000000   0.000000   0.000000   0.000000   0.000000
    20  H    0.000000   0.000000   0.000000   0.000000   0.000000   0.000000
    21  H    0.000000   0.000000   0.000000   0.000000   0.000000   0.000000
    22  H    0.000000   0.000000   0.000000   0.000000   0.000000   0.000000
    23  O    0.000000   0.000000   0.000000   0.000000   0.000000   0.000000
    24  H    0.000000   0.000000   0.000000   0.000000   0.000000   0.000000
    25  O    0.000000   0.000000   0.000000   0.000000   0.000000   0.000000
    26  H    0.000000   0.000000   0.000000   0.000000   0.000000   0.000000
              19         20         21         22         23         24
     1  C    0.000000   0.000000   0.000000   0.000000   0.000000   0.000000
     2  C    0.000000   0.000000   0.000000   0.000000   0.000000   0.000000
     3  C    0.000000   0.000000   0.000000   0.000000   0.000000   0.000000
     4  O    0.000000   0.000000   0.000000   0.000000   0.000000   0.000000
     5  C    0.000000   0.000000   0.000000   0.000000   0.000000   0.000000
     6  C    0.000000   0.000000   0.000000   0.000000   0.000000   0.000000
     7  O    0.000000   0.000000   0.000000   0.000000   0.000000   0.000000
     8  C    0.000000   0.000000   0.000000   0.000000   0.000000   0.000000
     9  C    0.000000   0.000000   0.000000   0.000000   0.000000   0.000000
    10  C    0.000000   0.000000   0.000000   0.000000   0.000000   0.000000
    11  C    0.000000   0.000000   0.000000   0.000000   0.000000   0.000000
    12  C    0.000000   0.000000   0.000000   0.000000   0.000000   0.000000
    13  C    0.000000   0.000000   0.000000   0.000000   0.000000   0.000000
    14  C    0.000000   0.000000   0.000000   0.000000   0.000000   0.000000
    15  C    0.000000   0.000000   0.000000   0.000000   0.000000   0.000000
    16  C    0.000000   0.000000   0.000000   0.000000   0.000000   0.000000
    17  H    0.000000   0.000000   0.000000   0.000000   0.000000   0.000000
    18  H    0.000000   0.000000   0.000000   0.000000   0.000000   0.000000
    19  H    0.859941   0.000000   0.000000   0.000000   0.000000   0.000000
    20  H    0.000000   0.859940   0.000000   0.000000   0.000000   0.000000
    21  H    0.000000   0.000000   0.856356   0.000000   0.000000   0.000000
    22  H    0.000000   0.000000   0.000000   0.856358   0.000000   0.000000
    23  O    0.000000   0.000000   0.000000   0.000000   6.216330   0.000000
    24  H    0.000000   0.000000   0.000000   0.000000   0.000000   0.782064
    25  O    0.000000   0.000000   0.000000   0.000000   0.000000   0.000000
    26  H    0.000000   0.000000   0.000000   0.000000   0.000000   0.000000
              25         26
     1  C    0.000000   0.000000
     2  C    0.000000   0.000000
     3  C    0.000000   0.000000
     4  O    0.000000   0.000000
     5  C    0.000000   0.000000
     6  C    0.000000   0.000000
     7  O    0.000000   0.000000
     8  C    0.000000   0.000000
     9  C    0.000000   0.000000
    10  C    0.000000   0.000000
    11  C    0.000000   0.000000
    12  C    0.000000   0.000000
    13  C    0.000000   0.000000
    14  C    0.000000   0.000000
    15  C    0.000000   0.000000
    16  C    0.000000   0.000000
    17  H    0.000000   0.000000
    18  H    0.000000   0.000000
    19  H    0.000000   0.000000
    20  H    0.000000   0.000000
    21  H    0.000000   0.000000
    22  H    0.000000   0.000000
    23  O    0.000000   0.000000
    24  H    0.000000   0.000000
    25  O    6.216348   0.000000
    26  H    0.000000   0.782058
 Mulliken charges:
               1
     1  C    0.307635
     2  C   -0.108671
     3  C   -0.107208
     4  O   -0.253287
     5  C    0.307635
     6  C   -0.107186
     7  O   -0.253308
     8  C   -0.108683
     9  C   -0.087615
    10  C    0.088474
    11  C   -0.087600
    12  C    0.088479
    13  C   -0.118772
    14  C   -0.118787
    15  C   -0.163537
    16  C   -0.163513
    17  H    0.157664
    18  H    0.157676
    19  H    0.140059
    20  H    0.140060
    21  H    0.143644
    22  H    0.143642
    23  O   -0.216330
    24  H    0.217936
    25  O   -0.216348
    26  H    0.217942
 Sum of Mulliken charges =  -0.00000
 Mulliken charges with hydrogens summed into heavy atoms:
               1
     1  C    0.307635
     2  C   -0.108671
     3  C   -0.107208
     4  O   -0.253287
     5  C    0.307635
     6  C   -0.107186
     7  O   -0.253308
     8  C   -0.108683
     9  C    0.070050
    10  C    0.088474
    11  C    0.070075
    12  C    0.088479
    13  C    0.021287
    14  C    0.021273
    15  C   -0.019895
    16  C   -0.019869
    23  O    0.001605
    25  O    0.001594
 Charge=             -0.0000 electrons
 Dipole moment (field-independent basis, Debye):
    X=              2.4877    Y=             -0.0000    Z=             -2.0977  Tot=              3.2541
 N-N= 6.758223883859D+02 E-N=-1.222892782842D+03  KE=-6.244929545347D+01
 1\1\GINC-GTX1080DELTA\FOpt\RAM1\ZDO\C14H8O4\MVEROT\11-Apr-2022\0\\#n A
 M1 Opt\\Geometry optimization\\0,1\C,0.0273753787,1.4946593503,0.35670
 88407\C,1.2711573319,0.7209576414,0.1470305337\C,-1.235066398,0.746147
 3874,0.1654161441\O,0.0517269232,2.6905145216,0.6669988345\C,0.0011863
 66,-1.4105386161,0.4856215565\C,-1.2477324013,-0.6593124828,0.22762791
 89\O,0.0041093714,-2.5745717911,0.9003153883\C,1.2585805403,-0.6809296
 514,0.2096248721\C,2.4710776978,1.3948548673,-0.1013922278\C,-2.462166
 6457,-1.3455206163,0.0422652156\C,2.4461198621,-1.3956368764,0.0235795
 857\C,-2.4371812175,1.4350116457,-0.0805660086\C,3.6498762251,0.674938
 2117,-0.2993827185\C,3.6374477778,-0.7174501701,-0.236902704\C,-3.6471
 396739,0.737468935,-0.2563163491\C,-3.659560469,-0.6446054557,-0.19529
 63512\H,2.472255076,2.4966852962,-0.1329370796\H,2.4275871056,-2.49572
 38765,0.0906208491\H,4.5899213634,1.2105501239,-0.5005145786\H,4.56768
 78038,-1.2855713615,-0.3882569094\H,-4.6002964895,-1.1988684077,-0.331
 2342217\H,-4.5779036873,1.2943848796,-0.4412472219\O,-2.3743258608,2.8
 040584703,-0.1610635839\H,-3.2759820288,3.1383734538,-0.2833791681\O,-
 2.4238882026,-2.7172540793,0.0825479484\H,-3.3316257485,-3.0448213994,
 -0.0091785652\\Version=AM64L-G09RevD.01\State=1-A\HF=-0.1357383\RMSD=7
 .682e-09\RMSF=1.734e-05\Dipole=-0.974566,-0.0279454,-0.8297448\PG=C01 
 [X(C14H8O4)]\\@


 CHINESE FORTUNE COOKIE OF JAN 1 1967 SAY....
 ALL THINGS ARE DIFFICULT BEFORE THEY ARE EASY.
 WE LEARN SO LITTLE AND FORGET SO MUCH.
 YOU WILL OVERCOME OBSTACLES TO ACHIEVE SUCCESS.
 AH SO.
 Job cpu time:       0 days  0 hours  0 minutes 22.4 seconds.
 File lengths (MBytes):  RWF=    132 Int=      0 D2E=      0 Chk=      3 Scr=      2
 Normal termination of Gaussian 09 at Mon Apr 11 23:40:49 2022.
