 Entering Gaussian System, Link 0=g09
 Input=/scratch/mverot/anthracene-1-5-opt/anthracene-1-5-opt.com
 Output=/scratch/mverot/anthracene-1-5-opt/anthracene-1-5-opt.log
 Initial command:
 /opt/g09/l1.exe "/scratch/mverot/anthracene-1-5-opt/Gau-2835317.inp" -scrdir="/scratch/mverot/anthracene-1-5-opt/"
 Entering Link 1 = /opt/g09/l1.exe PID=   2835319.
  
 Copyright (c) 1988,1990,1992,1993,1995,1998,2003,2009,2013,
            Gaussian, Inc.  All Rights Reserved.
  
 This is part of the Gaussian(R) 09 program.  It is based on
 the Gaussian(R) 03 system (copyright 2003, Gaussian, Inc.),
 the Gaussian(R) 98 system (copyright 1998, Gaussian, Inc.),
 the Gaussian(R) 94 system (copyright 1995, Gaussian, Inc.),
 the Gaussian 92(TM) system (copyright 1992, Gaussian, Inc.),
 the Gaussian 90(TM) system (copyright 1990, Gaussian, Inc.),
 the Gaussian 88(TM) system (copyright 1988, Gaussian, Inc.),
 the Gaussian 86(TM) system (copyright 1986, Carnegie Mellon
 University), and the Gaussian 82(TM) system (copyright 1983,
 Carnegie Mellon University). Gaussian is a federally registered
 trademark of Gaussian, Inc.
  
 This software contains proprietary and confidential information,
 including trade secrets, belonging to Gaussian, Inc.
  
 This software is provided under written license and may be
 used, copied, transmitted, or stored only in accord with that
 written license.
  
 The following legend is applicable only to US Government
 contracts under FAR:
  
                    RESTRICTED RIGHTS LEGEND
  
 Use, reproduction and disclosure by the US Government is
 subject to restrictions as set forth in subparagraphs (a)
 and (c) of the Commercial Computer Software - Restricted
 Rights clause in FAR 52.227-19.
  
 Gaussian, Inc.
 340 Quinnipiac St., Bldg. 40, Wallingford CT 06492
  
  
 ---------------------------------------------------------------
 Warning -- This program may not be used in any manner that
 competes with the business of Gaussian, Inc. or will provide
 assistance to any competitor of Gaussian, Inc.  The licensee
 of this program is prohibited from giving any competitor of
 Gaussian, Inc. access to this program.  By using this program,
 the user acknowledges that Gaussian, Inc. is engaged in the
 business of creating and licensing software in the field of
 computational chemistry and represents and warrants to the
 licensee that it is not a competitor of Gaussian, Inc. and that
 it will not use this program in any manner prohibited above.
 ---------------------------------------------------------------
  

 Cite this work as:
 Gaussian 09, Revision D.01,
 M. J. Frisch, G. W. Trucks, H. B. Schlegel, G. E. Scuseria, 
 M. A. Robb, J. R. Cheeseman, G. Scalmani, V. Barone, B. Mennucci, 
 G. A. Petersson, H. Nakatsuji, M. Caricato, X. Li, H. P. Hratchian, 
 A. F. Izmaylov, J. Bloino, G. Zheng, J. L. Sonnenberg, M. Hada, 
 M. Ehara, K. Toyota, R. Fukuda, J. Hasegawa, M. Ishida, T. Nakajima, 
 Y. Honda, O. Kitao, H. Nakai, T. Vreven, J. A. Montgomery, Jr., 
 J. E. Peralta, F. Ogliaro, M. Bearpark, J. J. Heyd, E. Brothers, 
 K. N. Kudin, V. N. Staroverov, T. Keith, R. Kobayashi, J. Normand, 
 K. Raghavachari, A. Rendell, J. C. Burant, S. S. Iyengar, J. Tomasi, 
 M. Cossi, N. Rega, J. M. Millam, M. Klene, J. E. Knox, J. B. Cross, 
 V. Bakken, C. Adamo, J. Jaramillo, R. Gomperts, R. E. Stratmann, 
 O. Yazyev, A. J. Austin, R. Cammi, C. Pomelli, J. W. Ochterski, 
 R. L. Martin, K. Morokuma, V. G. Zakrzewski, G. A. Voth, 
 P. Salvador, J. J. Dannenberg, S. Dapprich, A. D. Daniels, 
 O. Farkas, J. B. Foresman, J. V. Ortiz, J. Cioslowski, 
 and D. J. Fox, Gaussian, Inc., Wallingford CT, 2013.
 
 ******************************************
 Gaussian 09:  AM64L-G09RevD.01 24-Apr-2013
                12-Apr-2022 
 ******************************************
 %chk=anthracene-1-5-opt
 ----------
 #n AM1 Opt
 ----------
 1/14=-1,18=20,19=15,26=1,38=1/1,3;
 2/9=110,12=2,17=6,18=5,40=1/2;
 3/5=2,16=1,25=1,41=700000,71=1/1,2,3;
 4/35=1/1;
 5/5=2,35=1,38=5/2;
 6/7=2,8=2,9=2,10=2,28=1/1;
 7//1,2,3,16;
 1/14=-1,18=20,19=15,26=1/3(2);
 2/9=110/2;
 99//99;
 2/9=110/2;
 3/5=2,16=1,25=1,41=700000,71=1,135=20/1,2,3;
 4/5=5,16=3,35=1/1;
 5/5=2,35=1,38=5/2;
 7//1,2,3,16;
 1/14=-1,18=20,19=15,26=1/3(-5);
 2/9=110/2;
 6/7=2,8=2,9=2,10=2,19=2,28=1/1;
 99/9=1/99;
 ---------------------
 Geometry optimization
 ---------------------
 Symbolic Z-matrix:
 Charge =  0 Multiplicity = 1
 C                     0.00105   1.44895   0.00029 
 C                     1.27733   0.70913   0.00017 
 C                    -1.2746    0.70736   0.00011 
 O                     0.01417   2.67667   0.00054 
 C                    -0.00384  -1.42708  -0.00034 
 C                    -1.28013  -0.68727  -0.00019 
 O                    -0.01696  -2.65481  -0.00063 
 C                     1.2718   -0.6855   -0.00015 
 C                     2.50212   1.39      0.00036 
 C                    -2.50491  -1.36814  -0.00034 
 C                     2.48056  -1.39577  -0.00027 
 C                    -2.48335   1.41764   0.00026 
 C                     3.70448   0.68588   0.00024 
 C                     3.69477  -0.70822  -0.00007 
 C                    -3.69756   0.73008   0.00011 
 C                    -3.70727  -0.66401  -0.00019 
 H                     2.48196  -2.48474  -0.00051 
 H                    -2.48475   2.50661   0.00049 
 H                     4.64835   1.22628   0.0004 
 H                     4.63343  -1.25798  -0.00016 
 H                    -4.65114  -1.20441  -0.00031 
 H                    -4.63622   1.27985   0.00022 
 N                     2.59917   2.75547   0.00067 
 N                    -2.60196  -2.73361  -0.00063 
 H                    -1.7864   -3.28507  -0.00075 
 H                    -3.48731  -3.16418  -0.00072 
 H                     1.78361   3.30693   0.00077 
 H                     3.48452   3.18604   0.00079 
 

 GradGradGradGradGradGradGradGradGradGradGradGradGradGradGradGradGradGrad
 Berny optimization.
 Initialization pass.
                           ----------------------------
                           !    Initial Parameters    !
                           ! (Angstroms and Degrees)  !
 --------------------------                            --------------------------
 ! Name  Definition              Value          Derivative Info.                !
 --------------------------------------------------------------------------------
 ! R1    R(1,2)                  1.4752         estimate D2E/DX2                !
 ! R2    R(1,3)                  1.4755         estimate D2E/DX2                !
 ! R3    R(1,4)                  1.2278         estimate D2E/DX2                !
 ! R4    R(2,8)                  1.3946         estimate D2E/DX2                !
 ! R5    R(2,9)                  1.4013         estimate D2E/DX2                !
 ! R6    R(3,6)                  1.3946         estimate D2E/DX2                !
 ! R7    R(3,12)                 1.402          estimate D2E/DX2                !
 ! R8    R(5,6)                  1.4752         estimate D2E/DX2                !
 ! R9    R(5,7)                  1.2278         estimate D2E/DX2                !
 ! R10   R(5,8)                  1.4755         estimate D2E/DX2                !
 ! R11   R(6,10)                 1.4013         estimate D2E/DX2                !
 ! R12   R(8,11)                 1.402          estimate D2E/DX2                !
 ! R13   R(9,13)                 1.3934         estimate D2E/DX2                !
 ! R14   R(9,23)                 1.3689         estimate D2E/DX2                !
 ! R15   R(10,16)                1.3934         estimate D2E/DX2                !
 ! R16   R(10,24)                1.3689         estimate D2E/DX2                !
 ! R17   R(11,14)                1.3954         estimate D2E/DX2                !
 ! R18   R(11,17)                1.089          estimate D2E/DX2                !
 ! R19   R(12,15)                1.3954         estimate D2E/DX2                !
 ! R20   R(12,18)                1.089          estimate D2E/DX2                !
 ! R21   R(13,14)                1.3941         estimate D2E/DX2                !
 ! R22   R(13,19)                1.0876         estimate D2E/DX2                !
 ! R23   R(14,20)                1.0878         estimate D2E/DX2                !
 ! R24   R(15,16)                1.3941         estimate D2E/DX2                !
 ! R25   R(15,22)                1.0878         estimate D2E/DX2                !
 ! R26   R(16,21)                1.0876         estimate D2E/DX2                !
 ! R27   R(23,27)                0.9845         estimate D2E/DX2                !
 ! R28   R(23,28)                0.9845         estimate D2E/DX2                !
 ! R29   R(24,25)                0.9845         estimate D2E/DX2                !
 ! R30   R(24,26)                0.9845         estimate D2E/DX2                !
 ! A1    A(2,1,3)              119.7292         estimate D2E/DX2                !
 ! A2    A(2,1,4)              119.4873         estimate D2E/DX2                !
 ! A3    A(3,1,4)              120.7835         estimate D2E/DX2                !
 ! A4    A(1,2,8)              119.8724         estimate D2E/DX2                !
 ! A5    A(1,2,9)              120.8304         estimate D2E/DX2                !
 ! A6    A(8,2,9)              119.2972         estimate D2E/DX2                !
 ! A7    A(1,3,6)              120.3985         estimate D2E/DX2                !
 ! A8    A(1,3,12)             119.3896         estimate D2E/DX2                !
 ! A9    A(6,3,12)             120.212          estimate D2E/DX2                !
 ! A10   A(6,5,7)              119.4867         estimate D2E/DX2                !
 ! A11   A(6,5,8)              119.7299         estimate D2E/DX2                !
 ! A12   A(7,5,8)              120.7834         estimate D2E/DX2                !
 ! A13   A(3,6,5)              119.8718         estimate D2E/DX2                !
 ! A14   A(3,6,10)             119.2974         estimate D2E/DX2                !
 ! A15   A(5,6,10)             120.8308         estimate D2E/DX2                !
 ! A16   A(2,8,5)              120.3983         estimate D2E/DX2                !
 ! A17   A(2,8,11)             120.2114         estimate D2E/DX2                !
 ! A18   A(5,8,11)             119.3903         estimate D2E/DX2                !
 ! A19   A(2,9,13)             120.5761         estimate D2E/DX2                !
 ! A20   A(2,9,23)             123.1354         estimate D2E/DX2                !
 ! A21   A(13,9,23)            116.2884         estimate D2E/DX2                !
 ! A22   A(6,10,16)            120.5756         estimate D2E/DX2                !
 ! A23   A(6,10,24)            123.1356         estimate D2E/DX2                !
 ! A24   A(16,10,24)           116.2888         estimate D2E/DX2                !
 ! A25   A(8,11,14)            120.0406         estimate D2E/DX2                !
 ! A26   A(8,11,17)            120.5122         estimate D2E/DX2                !
 ! A27   A(14,11,17)           119.4472         estimate D2E/DX2                !
 ! A28   A(3,12,15)            120.0397         estimate D2E/DX2                !
 ! A29   A(3,12,18)            120.5128         estimate D2E/DX2                !
 ! A30   A(15,12,18)           119.4475         estimate D2E/DX2                !
 ! A31   A(9,13,14)            119.9548         estimate D2E/DX2                !
 ! A32   A(9,13,19)            119.8534         estimate D2E/DX2                !
 ! A33   A(14,13,19)           120.1918         estimate D2E/DX2                !
 ! A34   A(11,14,13)           119.9199         estimate D2E/DX2                !
 ! A35   A(11,14,20)           120.1223         estimate D2E/DX2                !
 ! A36   A(13,14,20)           119.9578         estimate D2E/DX2                !
 ! A37   A(12,15,16)           119.9203         estimate D2E/DX2                !
 ! A38   A(12,15,22)           120.1214         estimate D2E/DX2                !
 ! A39   A(16,15,22)           119.9583         estimate D2E/DX2                !
 ! A40   A(10,16,15)           119.9552         estimate D2E/DX2                !
 ! A41   A(10,16,21)           119.8531         estimate D2E/DX2                !
 ! A42   A(15,16,21)           120.1918         estimate D2E/DX2                !
 ! A43   A(9,23,27)            120.0001         estimate D2E/DX2                !
 ! A44   A(9,23,28)            120.0004         estimate D2E/DX2                !
 ! A45   A(27,23,28)           119.9996         estimate D2E/DX2                !
 ! A46   A(10,24,25)           120.0001         estimate D2E/DX2                !
 ! A47   A(10,24,26)           120.0004         estimate D2E/DX2                !
 ! A48   A(25,24,26)           119.9996         estimate D2E/DX2                !
 ! D1    D(3,1,2,8)              0.0018         estimate D2E/DX2                !
 ! D2    D(3,1,2,9)           -179.9989         estimate D2E/DX2                !
 ! D3    D(4,1,2,8)           -179.9983         estimate D2E/DX2                !
 ! D4    D(4,1,2,9)              0.0011         estimate D2E/DX2                !
 ! D5    D(2,1,3,6)             -0.0008         estimate D2E/DX2                !
 ! D6    D(2,1,3,12)           179.9984         estimate D2E/DX2                !
 ! D7    D(4,1,3,6)            179.9992         estimate D2E/DX2                !
 ! D8    D(4,1,3,12)            -0.0016         estimate D2E/DX2                !
 ! D9    D(1,2,8,5)             -0.0013         estimate D2E/DX2                !
 ! D10   D(1,2,8,11)           179.9998         estimate D2E/DX2                !
 ! D11   D(9,2,8,5)            179.9993         estimate D2E/DX2                !
 ! D12   D(9,2,8,11)             0.0004         estimate D2E/DX2                !
 ! D13   D(1,2,9,13)          -179.9997         estimate D2E/DX2                !
 ! D14   D(1,2,9,23)             0.0004         estimate D2E/DX2                !
 ! D15   D(8,2,9,13)            -0.0004         estimate D2E/DX2                !
 ! D16   D(8,2,9,23)           179.9997         estimate D2E/DX2                !
 ! D17   D(1,3,6,5)             -0.0005         estimate D2E/DX2                !
 ! D18   D(1,3,6,10)           179.9992         estimate D2E/DX2                !
 ! D19   D(12,3,6,5)          -179.9997         estimate D2E/DX2                !
 ! D20   D(12,3,6,10)            0.0            estimate D2E/DX2                !
 ! D21   D(1,3,12,15)         -179.9992         estimate D2E/DX2                !
 ! D22   D(1,3,12,18)            0.001          estimate D2E/DX2                !
 ! D23   D(6,3,12,15)            0.0            estimate D2E/DX2                !
 ! D24   D(6,3,12,18)         -179.9997         estimate D2E/DX2                !
 ! D25   D(7,5,6,3)           -179.9986         estimate D2E/DX2                !
 ! D26   D(7,5,6,10)             0.0016         estimate D2E/DX2                !
 ! D27   D(8,5,6,3)              0.001          estimate D2E/DX2                !
 ! D28   D(8,5,6,10)          -179.9988         estimate D2E/DX2                !
 ! D29   D(6,5,8,2)              0.0            estimate D2E/DX2                !
 ! D30   D(6,5,8,11)           179.9989         estimate D2E/DX2                !
 ! D31   D(7,5,8,2)            179.9996         estimate D2E/DX2                !
 ! D32   D(7,5,8,11)            -0.0016         estimate D2E/DX2                !
 ! D33   D(3,6,10,16)           -0.0001         estimate D2E/DX2                !
 ! D34   D(3,6,10,24)         -179.9998         estimate D2E/DX2                !
 ! D35   D(5,6,10,16)          179.9997         estimate D2E/DX2                !
 ! D36   D(5,6,10,24)            0.0            estimate D2E/DX2                !
 ! D37   D(2,8,11,14)            0.0            estimate D2E/DX2                !
 ! D38   D(2,8,11,17)          179.9994         estimate D2E/DX2                !
 ! D39   D(5,8,11,14)         -179.9989         estimate D2E/DX2                !
 ! D40   D(5,8,11,17)            0.0005         estimate D2E/DX2                !
 ! D41   D(2,9,13,14)           -0.0001         estimate D2E/DX2                !
 ! D42   D(2,9,13,19)         -179.9994         estimate D2E/DX2                !
 ! D43   D(23,9,13,14)         179.9998         estimate D2E/DX2                !
 ! D44   D(23,9,13,19)           0.0005         estimate D2E/DX2                !
 ! D45   D(2,9,23,27)            0.0            estimate D2E/DX2                !
 ! D46   D(2,9,23,28)         -179.9998         estimate D2E/DX2                !
 ! D47   D(13,9,23,27)        -179.9999         estimate D2E/DX2                !
 ! D48   D(13,9,23,28)           0.0003         estimate D2E/DX2                !
 ! D49   D(6,10,16,15)           0.0001         estimate D2E/DX2                !
 ! D50   D(6,10,16,21)         179.9999         estimate D2E/DX2                !
 ! D51   D(24,10,16,15)        179.9998         estimate D2E/DX2                !
 ! D52   D(24,10,16,21)         -0.0003         estimate D2E/DX2                !
 ! D53   D(6,10,24,25)          -0.0005         estimate D2E/DX2                !
 ! D54   D(6,10,24,26)         179.9996         estimate D2E/DX2                !
 ! D55   D(16,10,24,25)        179.9998         estimate D2E/DX2                !
 ! D56   D(16,10,24,26)         -0.0001         estimate D2E/DX2                !
 ! D57   D(8,11,14,13)          -0.0004         estimate D2E/DX2                !
 ! D58   D(8,11,14,20)         179.9998         estimate D2E/DX2                !
 ! D59   D(17,11,14,13)       -179.9999         estimate D2E/DX2                !
 ! D60   D(17,11,14,20)          0.0004         estimate D2E/DX2                !
 ! D61   D(3,12,15,16)           0.0            estimate D2E/DX2                !
 ! D62   D(3,12,15,22)        -179.9996         estimate D2E/DX2                !
 ! D63   D(18,12,15,16)        179.9997         estimate D2E/DX2                !
 ! D64   D(18,12,15,22)          0.0001         estimate D2E/DX2                !
 ! D65   D(9,13,14,11)           0.0005         estimate D2E/DX2                !
 ! D66   D(9,13,14,20)        -179.9998         estimate D2E/DX2                !
 ! D67   D(19,13,14,11)        179.9998         estimate D2E/DX2                !
 ! D68   D(19,13,14,20)         -0.0005         estimate D2E/DX2                !
 ! D69   D(12,15,16,10)          0.0            estimate D2E/DX2                !
 ! D70   D(12,15,16,21)       -179.9999         estimate D2E/DX2                !
 ! D71   D(22,15,16,10)        179.9996         estimate D2E/DX2                !
 ! D72   D(22,15,16,21)         -0.0003         estimate D2E/DX2                !
 --------------------------------------------------------------------------------
 Trust Radius=3.00D-01 FncErr=1.00D-07 GrdErr=1.00D-07
 Number of steps in this run=    160 maximum allowed number of steps=    168.
 GradGradGradGradGradGradGradGradGradGradGradGradGradGradGradGradGradGrad

                          Input orientation:                          
 ---------------------------------------------------------------------
 Center     Atomic      Atomic             Coordinates (Angstroms)
 Number     Number       Type             X           Y           Z
 ---------------------------------------------------------------------
      1          6           0        0.001050    1.448950    0.000290
      2          6           0        1.277330    0.709130    0.000170
      3          6           0       -1.274600    0.707360    0.000110
      4          8           0        0.014170    2.676670    0.000540
      5          6           0       -0.003840   -1.427080   -0.000340
      6          6           0       -1.280130   -0.687270   -0.000190
      7          8           0       -0.016960   -2.654810   -0.000630
      8          6           0        1.271800   -0.685500   -0.000150
      9          6           0        2.502120    1.390000    0.000360
     10          6           0       -2.504910   -1.368140   -0.000340
     11          6           0        2.480560   -1.395770   -0.000270
     12          6           0       -2.483350    1.417640    0.000260
     13          6           0        3.704480    0.685880    0.000240
     14          6           0        3.694770   -0.708220   -0.000070
     15          6           0       -3.697560    0.730080    0.000110
     16          6           0       -3.707270   -0.664010   -0.000190
     17          1           0        2.481960   -2.484740   -0.000510
     18          1           0       -2.484750    2.506610    0.000490
     19          1           0        4.648350    1.226280    0.000400
     20          1           0        4.633430   -1.257980   -0.000160
     21          1           0       -4.651140   -1.204410   -0.000310
     22          1           0       -4.636220    1.279850    0.000220
     23          7           0        2.599170    2.755470    0.000670
     24          7           0       -2.601960   -2.733610   -0.000630
     25          1           0       -1.786400   -3.285070   -0.000750
     26          1           0       -3.487310   -3.164180   -0.000720
     27          1           0        1.783610    3.306930    0.000770
     28          1           0        3.484520    3.186040    0.000790
 ---------------------------------------------------------------------
                    Distance matrix (angstroms):
                    1          2          3          4          5
     1  C    0.000000
     2  C    1.475203   0.000000
     3  C    1.475547   2.551931   0.000000
     4  O    1.227790   2.338116   2.353531   0.000000
     5  C    2.876034   2.490942   2.484082   4.103790   0.000000
     6  C    2.490955   2.913852   1.394641   3.604345   1.475207
     7  O    4.103800   3.604342   3.589686   5.331571   1.227800
     8  C    2.484086   1.394641   2.902449   3.589683   1.475533
     9  C    2.501765   1.401319   3.837918   2.800967   3.770381
    10  C    3.770389   4.315135   2.412750   4.765108   2.501764
    11  C    3.773646   2.424534   4.303996   4.761076   2.484597
    12  C    2.484597   3.826839   1.401989   2.796920   3.773646
    13  C    3.781226   2.427261   4.979126   4.193046   4.268048
    14  C    4.277493   2.802302   5.167060   5.000430   3.767821
    15  C    3.767823   4.974934   2.423067   4.191199   4.277488
    16  C    4.268048   5.170276   2.792586   5.000926   3.781226
    17  H    4.650681   3.413494   4.929629   5.721026   2.701453
    18  H    2.701453   4.169434   2.168355   2.504700   4.650681
    19  H    4.652631   3.410457   5.945638   4.855848   5.355669
    20  H    5.365297   3.890107   6.226346   6.067869   4.640352
    21  H    5.355669   6.229638   3.880192   6.068600   4.652631
    22  H    4.640352   5.941026   3.410020   4.855639   5.365297
    23  N    2.908130   2.436138   4.381877   2.586201   4.926397
    24  N    4.926405   5.186651   3.688111   6.009598   2.908135
    25  H    5.060230   5.033893   4.025101   6.227712   2.574810
    26  H    5.783565   6.140385   4.459250   6.809985   3.892567
    27  H    2.574803   2.646674   4.013778   1.878336   5.060220
    28  H    3.892563   3.317645   5.365918   3.507533   5.783557
                    6          7          8          9         10
     6  C    0.000000
     7  O    2.338122   0.000000
     8  C    2.551931   2.353526   0.000000
     9  C    4.315144   4.765108   2.412755   0.000000
    10  C    1.401310   2.800967   3.837908   5.716440   0.000000
    11  C    3.826847   2.796925   1.401993   2.785853   4.985547
    12  C    2.424538   4.761085   4.303992   4.985547   2.785863
    13  C    5.170288   5.000933   2.792600   1.393361   6.540300
    14  C    4.974944   4.191199   2.423077   2.413492   6.234703
    15  C    2.802294   5.000430   5.167050   6.234703   2.413492
    16  C    2.427251   4.193051   4.979116   6.540297   1.393366
    17  H    4.169439   2.504701   2.168352   3.874793   5.110349
    18  H    3.413500   5.721035   4.929628   5.110351   3.874803
    19  H    6.229651   6.068606   3.880205   2.152465   7.609214
    20  H    5.941035   4.855642   3.410028   3.399159   7.139190
    21  H    3.410446   4.855851   5.945627   7.609211   2.152466
    22  H    3.890103   6.067875   6.226339   7.139190   3.399167
    23  N    5.186659   6.009598   3.688114   1.368915   6.561691
    24  N    2.436133   2.586201   4.381868   6.561691   1.368915
    25  H    2.646672   1.878336   4.013770   6.344106   2.047163
    26  H    3.317639   3.507533   5.365909   7.524216   2.047161
    27  H    5.033899   6.227712   4.025102   2.047163   6.344106
    28  H    6.140393   6.809985   4.459255   2.047161   7.524216
                   11         12         13         14         15
    11  C    0.000000
    12  C    5.705758   0.000000
    13  C    2.414798   6.230948   0.000000
    14  C    1.395361   6.533640   1.394134   0.000000
    15  C    6.533636   1.395365   7.402172   7.530953   0.000000
    16  C    6.230948   2.414798   7.533674   7.402172   1.394124
    17  H    1.088971   6.315289   3.398145   2.151030   6.965740
    18  H    6.315289   1.088971   6.451482   6.965745   2.151039
    19  H    3.402126   7.134267   1.087623   2.156758   8.360648
    20  H    2.157275   7.603124   2.154423   1.087805   8.564915
    21  H    7.134267   3.402126   8.566772   8.360647   2.156749
    22  H    7.603124   2.157275   8.361823   8.564918   1.087810
    23  N    4.152934   5.255644   2.346255   3.632835   6.614455
    24  N    5.255647   4.152944   7.173848   6.614455   3.632835
    25  H    4.666519   4.754074   6.776298   6.056681   4.446792
    26  H    6.224367   4.690524   8.157500   7.590390   3.899932
    27  H    4.754064   4.666515   3.249561   4.446792   6.056681
    28  H    4.690514   6.224364   2.509817   3.899932   7.590390
                   16         17         18         19         20
    16  C    0.000000
    17  H    6.451482   0.000000
    18  H    3.398145   7.041433   0.000000
    19  H    8.566772   4.297082   7.247093   0.000000
    20  H    8.361823   2.476644   8.052368   2.484305   0.000000
    21  H    1.087623   7.247093   4.297082   9.611908   9.284725
    22  H    2.154423   8.052368   2.476644   9.284725   9.610775
    23  N    7.173843   5.241521   5.090007   2.556865   4.499555
    24  N    2.346264   5.090008   5.241531   8.261218   7.384332
    25  H    3.249569   4.342744   5.833631   7.858644   6.732259
    26  H    2.509827   6.007814   5.758731   9.244734   8.341464
    27  H    6.776292   5.833621   4.342742   3.540599   5.381438
    28  H    8.157495   5.758722   6.007812   2.279289   4.590132
                   21         22         23         24         25
    21  H    0.000000
    22  H    2.484305   0.000000
    23  N    8.261213   7.384330   0.000000
    24  N    2.556871   4.499564   7.561862   0.000000
    25  H    3.540605   5.381447   7.464673   0.984503   0.000000
    26  H    2.279298   4.590141   8.490436   0.984497   1.705201
    27  H    7.858638   6.732256   0.984503   7.464673   7.496628
    28  H    9.244729   8.341461   0.984497   8.490436   8.346129
                   26         27         28
    26  H    0.000000
    27  H    8.346129   0.000000
    28  H    9.430361   1.705201   0.000000
 Stoichiometry    C14H10N2O2
 Framework group  C1[X(C14H10N2O2)]
 Deg. of freedom    78
 Full point group                 C1      NOp   1
 Largest Abelian subgroup         C1      NOp   1
 Largest concise Abelian subgroup C1      NOp   1
                         Standard orientation:                         
 ---------------------------------------------------------------------
 Center     Atomic      Atomic             Coordinates (Angstroms)
 Number     Number       Type             X           Y           Z
 ---------------------------------------------------------------------
      1          6           0       -0.411861   -1.377778   -0.000023
      2          6           0       -1.424610   -0.305135   -0.000005
      3          6           0        1.022157   -1.030172   -0.000017
      4          8           0       -0.774066   -2.550926   -0.000043
      5          6           0        0.411857    1.377773   -0.000022
      6          6           0        1.424619    0.305136   -0.000011
      7          8           0        0.774065    2.550930   -0.000042
      8          6           0       -1.022149    1.030173   -0.000018
      9          6           0       -2.792583   -0.609019    0.000014
     10          6           0        2.792582    0.609023    0.000011
     11          6           0       -1.978589    2.055262   -0.000005
     12          6           0        1.978585   -2.055268   -0.000001
     13          6           0       -3.744639    0.408352    0.000026
     14          6           0       -3.338322    1.741962    0.000022
     15          6           0        3.338321   -1.741958    0.000022
     16          6           0        3.744635   -0.408357    0.000029
     17          1           0       -1.669816    3.099540   -0.000005
     18          1           0        1.669812   -3.099546   -0.000010
     19          1           0       -4.803321    0.159121    0.000050
     20          1           0       -4.081555    2.536268    0.000036
     21          1           0        4.803317   -0.159127    0.000044
     22          1           0        4.081552   -2.536274    0.000029
     23          7           0       -3.274470   -1.890312    0.000022
     24          7           0        3.274469    1.890316    0.000023
     25          1           0        2.649723    2.651195    0.000009
     26          1           0        4.245777    2.050929    0.000043
     27          1           0       -2.649724   -2.651192    0.000016
     28          1           0       -4.245778   -2.050925    0.000031
 ---------------------------------------------------------------------
 Rotational constants (GHZ):      0.8103731      0.3562465      0.2474608
 Standard basis: VSTO-6G (5D, 7F)
 There are    82 symmetry adapted cartesian basis functions of A   symmetry.
 There are    82 symmetry adapted basis functions of A   symmetry.
    82 basis functions,   492 primitive gaussians,    82 cartesian basis functions
    44 alpha electrons       44 beta electrons
       nuclear repulsion energy       669.1608541190 Hartrees.
 Integral buffers will be    131072 words long.
 Regular integral format.
 Two-electron integral symmetry is turned off.
 Do NDO integrals.
 One-electron integrals computed using PRISM.
 NBasis=    82 RedAO= F EigKep=  0.00D+00  NBF=    82
 NBsUse=    82 1.00D-04 EigRej=  0.00D+00 NBFU=    82
 Simple Huckel Guess.
 Overlap will be assumed to be unity.
 Keep J ints in memory in canonical form, NReq=936458.
 Requested convergence on RMS density matrix=1.00D-08 within 128 cycles.
 Requested convergence on MAX density matrix=1.00D-06.
 Requested convergence on             energy=1.00D-06.
 No special actions if energy rises.
 SCF Done:  E(RAM1) = -0.714342496963E-03 A.U. after   15 cycles
            NFock= 14  Conv=0.53D-08     -V/T= 1.0000

 **********************************************************************

            Population analysis using the SCF density.

 **********************************************************************

 Orbital symmetries:
       Occupied  (A) (A) (A) (A) (A) (A) (A) (A) (A) (A) (A) (A)
                 (A) (A) (A) (A) (A) (A) (A) (A) (A) (A) (A) (A)
                 (A) (A) (A) (A) (A) (A) (A) (A) (A) (A) (A) (A)
                 (A) (A) (A) (A) (A) (A) (A) (A)
       Virtual   (A) (A) (A) (A) (A) (A) (A) (A) (A) (A) (A) (A)
                 (A) (A) (A) (A) (A) (A) (A) (A) (A) (A) (A) (A)
                 (A) (A) (A) (A) (A) (A) (A) (A) (A) (A) (A) (A)
                 (A) (A)
 The electronic state is 1-A.
 Alpha  occ. eigenvalues --   -1.54237  -1.47959  -1.45173  -1.40596  -1.32617
 Alpha  occ. eigenvalues --   -1.29400  -1.23903  -1.15401  -1.09825  -1.08581
 Alpha  occ. eigenvalues --   -0.97658  -0.92523  -0.89896  -0.82527  -0.79540
 Alpha  occ. eigenvalues --   -0.75944  -0.69722  -0.66687  -0.65510  -0.64991
 Alpha  occ. eigenvalues --   -0.62898  -0.61874  -0.59147  -0.58373  -0.57822
 Alpha  occ. eigenvalues --   -0.57167  -0.55987  -0.54527  -0.54110  -0.52455
 Alpha  occ. eigenvalues --   -0.52422  -0.50093  -0.48626  -0.48229  -0.47508
 Alpha  occ. eigenvalues --   -0.46257  -0.43315  -0.43185  -0.40398  -0.38639
 Alpha  occ. eigenvalues --   -0.37346  -0.36836  -0.31904  -0.31349
 Alpha virt. eigenvalues --   -0.04248   0.00247   0.00495   0.01922   0.05932
 Alpha virt. eigenvalues --    0.06246   0.09550   0.09648   0.10053   0.10629
 Alpha virt. eigenvalues --    0.10891   0.11566   0.13321   0.13852   0.14369
 Alpha virt. eigenvalues --    0.14797   0.14938   0.15273   0.15522   0.16019
 Alpha virt. eigenvalues --    0.16426   0.16444   0.17091   0.17399   0.17910
 Alpha virt. eigenvalues --    0.18098   0.19102   0.19110   0.19820   0.19929
 Alpha virt. eigenvalues --    0.20585   0.20650   0.23050   0.23052   0.23308
 Alpha virt. eigenvalues --    0.23846   0.24641   0.24922
          Condensed to atoms (all electrons):
               1          2          3          4          5          6
     1  C    3.674701   0.000000   0.000000   0.000000   0.000000   0.000000
     2  C    0.000000   4.206477   0.000000   0.000000   0.000000   0.000000
     3  C    0.000000   0.000000   4.051394   0.000000   0.000000   0.000000
     4  O    0.000000   0.000000   0.000000   6.324913   0.000000   0.000000
     5  C    0.000000   0.000000   0.000000   0.000000   3.674703   0.000000
     6  C    0.000000   0.000000   0.000000   0.000000   0.000000   4.206478
     7  O    0.000000   0.000000   0.000000   0.000000   0.000000   0.000000
     8  C    0.000000   0.000000   0.000000   0.000000   0.000000   0.000000
     9  C    0.000000   0.000000   0.000000   0.000000   0.000000   0.000000
    10  C    0.000000   0.000000   0.000000   0.000000   0.000000   0.000000
    11  C    0.000000   0.000000   0.000000   0.000000   0.000000   0.000000
    12  C    0.000000   0.000000   0.000000   0.000000   0.000000   0.000000
    13  C    0.000000   0.000000   0.000000   0.000000   0.000000   0.000000
    14  C    0.000000   0.000000   0.000000   0.000000   0.000000   0.000000
    15  C    0.000000   0.000000   0.000000   0.000000   0.000000   0.000000
    16  C    0.000000   0.000000   0.000000   0.000000   0.000000   0.000000
    17  H    0.000000   0.000000   0.000000   0.000000   0.000000   0.000000
    18  H    0.000000   0.000000   0.000000   0.000000   0.000000   0.000000
    19  H    0.000000   0.000000   0.000000   0.000000   0.000000   0.000000
    20  H    0.000000   0.000000   0.000000   0.000000   0.000000   0.000000
    21  H    0.000000   0.000000   0.000000   0.000000   0.000000   0.000000
    22  H    0.000000   0.000000   0.000000   0.000000   0.000000   0.000000
    23  N    0.000000   0.000000   0.000000   0.000000   0.000000   0.000000
    24  N    0.000000   0.000000   0.000000   0.000000   0.000000   0.000000
    25  H    0.000000   0.000000   0.000000   0.000000   0.000000   0.000000
    26  H    0.000000   0.000000   0.000000   0.000000   0.000000   0.000000
    27  H    0.000000   0.000000   0.000000   0.000000   0.000000   0.000000
    28  H    0.000000   0.000000   0.000000   0.000000   0.000000   0.000000
               7          8          9         10         11         12
     1  C    0.000000   0.000000   0.000000   0.000000   0.000000   0.000000
     2  C    0.000000   0.000000   0.000000   0.000000   0.000000   0.000000
     3  C    0.000000   0.000000   0.000000   0.000000   0.000000   0.000000
     4  O    0.000000   0.000000   0.000000   0.000000   0.000000   0.000000
     5  C    0.000000   0.000000   0.000000   0.000000   0.000000   0.000000
     6  C    0.000000   0.000000   0.000000   0.000000   0.000000   0.000000
     7  O    6.324920   0.000000   0.000000   0.000000   0.000000   0.000000
     8  C    0.000000   4.051389   0.000000   0.000000   0.000000   0.000000
     9  C    0.000000   0.000000   3.823798   0.000000   0.000000   0.000000
    10  C    0.000000   0.000000   0.000000   3.823794   0.000000   0.000000
    11  C    0.000000   0.000000   0.000000   0.000000   4.149481   0.000000
    12  C    0.000000   0.000000   0.000000   0.000000   0.000000   4.149482
    13  C    0.000000   0.000000   0.000000   0.000000   0.000000   0.000000
    14  C    0.000000   0.000000   0.000000   0.000000   0.000000   0.000000
    15  C    0.000000   0.000000   0.000000   0.000000   0.000000   0.000000
    16  C    0.000000   0.000000   0.000000   0.000000   0.000000   0.000000
    17  H    0.000000   0.000000   0.000000   0.000000   0.000000   0.000000
    18  H    0.000000   0.000000   0.000000   0.000000   0.000000   0.000000
    19  H    0.000000   0.000000   0.000000   0.000000   0.000000   0.000000
    20  H    0.000000   0.000000   0.000000   0.000000   0.000000   0.000000
    21  H    0.000000   0.000000   0.000000   0.000000   0.000000   0.000000
    22  H    0.000000   0.000000   0.000000   0.000000   0.000000   0.000000
    23  N    0.000000   0.000000   0.000000   0.000000   0.000000   0.000000
    24  N    0.000000   0.000000   0.000000   0.000000   0.000000   0.000000
    25  H    0.000000   0.000000   0.000000   0.000000   0.000000   0.000000
    26  H    0.000000   0.000000   0.000000   0.000000   0.000000   0.000000
    27  H    0.000000   0.000000   0.000000   0.000000   0.000000   0.000000
    28  H    0.000000   0.000000   0.000000   0.000000   0.000000   0.000000
              13         14         15         16         17         18
     1  C    0.000000   0.000000   0.000000   0.000000   0.000000   0.000000
     2  C    0.000000   0.000000   0.000000   0.000000   0.000000   0.000000
     3  C    0.000000   0.000000   0.000000   0.000000   0.000000   0.000000
     4  O    0.000000   0.000000   0.000000   0.000000   0.000000   0.000000
     5  C    0.000000   0.000000   0.000000   0.000000   0.000000   0.000000
     6  C    0.000000   0.000000   0.000000   0.000000   0.000000   0.000000
     7  O    0.000000   0.000000   0.000000   0.000000   0.000000   0.000000
     8  C    0.000000   0.000000   0.000000   0.000000   0.000000   0.000000
     9  C    0.000000   0.000000   0.000000   0.000000   0.000000   0.000000
    10  C    0.000000   0.000000   0.000000   0.000000   0.000000   0.000000
    11  C    0.000000   0.000000   0.000000   0.000000   0.000000   0.000000
    12  C    0.000000   0.000000   0.000000   0.000000   0.000000   0.000000
    13  C    4.218428   0.000000   0.000000   0.000000   0.000000   0.000000
    14  C    0.000000   4.065189   0.000000   0.000000   0.000000   0.000000
    15  C    0.000000   0.000000   4.065190   0.000000   0.000000   0.000000
    16  C    0.000000   0.000000   0.000000   4.218425   0.000000   0.000000
    17  H    0.000000   0.000000   0.000000   0.000000   0.845651   0.000000
    18  H    0.000000   0.000000   0.000000   0.000000   0.000000   0.845650
    19  H    0.000000   0.000000   0.000000   0.000000   0.000000   0.000000
    20  H    0.000000   0.000000   0.000000   0.000000   0.000000   0.000000
    21  H    0.000000   0.000000   0.000000   0.000000   0.000000   0.000000
    22  H    0.000000   0.000000   0.000000   0.000000   0.000000   0.000000
    23  N    0.000000   0.000000   0.000000   0.000000   0.000000   0.000000
    24  N    0.000000   0.000000   0.000000   0.000000   0.000000   0.000000
    25  H    0.000000   0.000000   0.000000   0.000000   0.000000   0.000000
    26  H    0.000000   0.000000   0.000000   0.000000   0.000000   0.000000
    27  H    0.000000   0.000000   0.000000   0.000000   0.000000   0.000000
    28  H    0.000000   0.000000   0.000000   0.000000   0.000000   0.000000
              19         20         21         22         23         24
     1  C    0.000000   0.000000   0.000000   0.000000   0.000000   0.000000
     2  C    0.000000   0.000000   0.000000   0.000000   0.000000   0.000000
     3  C    0.000000   0.000000   0.000000   0.000000   0.000000   0.000000
     4  O    0.000000   0.000000   0.000000   0.000000   0.000000   0.000000
     5  C    0.000000   0.000000   0.000000   0.000000   0.000000   0.000000
     6  C    0.000000   0.000000   0.000000   0.000000   0.000000   0.000000
     7  O    0.000000   0.000000   0.000000   0.000000   0.000000   0.000000
     8  C    0.000000   0.000000   0.000000   0.000000   0.000000   0.000000
     9  C    0.000000   0.000000   0.000000   0.000000   0.000000   0.000000
    10  C    0.000000   0.000000   0.000000   0.000000   0.000000   0.000000
    11  C    0.000000   0.000000   0.000000   0.000000   0.000000   0.000000
    12  C    0.000000   0.000000   0.000000   0.000000   0.000000   0.000000
    13  C    0.000000   0.000000   0.000000   0.000000   0.000000   0.000000
    14  C    0.000000   0.000000   0.000000   0.000000   0.000000   0.000000
    15  C    0.000000   0.000000   0.000000   0.000000   0.000000   0.000000
    16  C    0.000000   0.000000   0.000000   0.000000   0.000000   0.000000
    17  H    0.000000   0.000000   0.000000   0.000000   0.000000   0.000000
    18  H    0.000000   0.000000   0.000000   0.000000   0.000000   0.000000
    19  H    0.863563   0.000000   0.000000   0.000000   0.000000   0.000000
    20  H    0.000000   0.863538   0.000000   0.000000   0.000000   0.000000
    21  H    0.000000   0.000000   0.863563   0.000000   0.000000   0.000000
    22  H    0.000000   0.000000   0.000000   0.863539   0.000000   0.000000
    23  N    0.000000   0.000000   0.000000   0.000000   5.394033   0.000000
    24  N    0.000000   0.000000   0.000000   0.000000   0.000000   5.394031
    25  H    0.000000   0.000000   0.000000   0.000000   0.000000   0.000000
    26  H    0.000000   0.000000   0.000000   0.000000   0.000000   0.000000
    27  H    0.000000   0.000000   0.000000   0.000000   0.000000   0.000000
    28  H    0.000000   0.000000   0.000000   0.000000   0.000000   0.000000
              25         26         27         28
     1  C    0.000000   0.000000   0.000000   0.000000
     2  C    0.000000   0.000000   0.000000   0.000000
     3  C    0.000000   0.000000   0.000000   0.000000
     4  O    0.000000   0.000000   0.000000   0.000000
     5  C    0.000000   0.000000   0.000000   0.000000
     6  C    0.000000   0.000000   0.000000   0.000000
     7  O    0.000000   0.000000   0.000000   0.000000
     8  C    0.000000   0.000000   0.000000   0.000000
     9  C    0.000000   0.000000   0.000000   0.000000
    10  C    0.000000   0.000000   0.000000   0.000000
    11  C    0.000000   0.000000   0.000000   0.000000
    12  C    0.000000   0.000000   0.000000   0.000000
    13  C    0.000000   0.000000   0.000000   0.000000
    14  C    0.000000   0.000000   0.000000   0.000000
    15  C    0.000000   0.000000   0.000000   0.000000
    16  C    0.000000   0.000000   0.000000   0.000000
    17  H    0.000000   0.000000   0.000000   0.000000
    18  H    0.000000   0.000000   0.000000   0.000000
    19  H    0.000000   0.000000   0.000000   0.000000
    20  H    0.000000   0.000000   0.000000   0.000000
    21  H    0.000000   0.000000   0.000000   0.000000
    22  H    0.000000   0.000000   0.000000   0.000000
    23  N    0.000000   0.000000   0.000000   0.000000
    24  N    0.000000   0.000000   0.000000   0.000000
    25  H    0.740901   0.000000   0.000000   0.000000
    26  H    0.000000   0.777933   0.000000   0.000000
    27  H    0.000000   0.000000   0.740903   0.000000
    28  H    0.000000   0.000000   0.000000   0.777933
 Mulliken charges:
               1
     1  C    0.325299
     2  C   -0.206477
     3  C   -0.051394
     4  O   -0.324913
     5  C    0.325297
     6  C   -0.206478
     7  O   -0.324920
     8  C   -0.051389
     9  C    0.176202
    10  C    0.176206
    11  C   -0.149481
    12  C   -0.149482
    13  C   -0.218428
    14  C   -0.065189
    15  C   -0.065190
    16  C   -0.218425
    17  H    0.154349
    18  H    0.154350
    19  H    0.136437
    20  H    0.136462
    21  H    0.136437
    22  H    0.136461
    23  N   -0.394033
    24  N   -0.394031
    25  H    0.259099
    26  H    0.222067
    27  H    0.259097
    28  H    0.222067
 Sum of Mulliken charges =   0.00000
 Mulliken charges with hydrogens summed into heavy atoms:
               1
     1  C    0.325299
     2  C   -0.206477
     3  C   -0.051394
     4  O   -0.324913
     5  C    0.325297
     6  C   -0.206478
     7  O   -0.324920
     8  C   -0.051389
     9  C    0.176202
    10  C    0.176206
    11  C    0.004868
    12  C    0.004869
    13  C   -0.081991
    14  C    0.071273
    15  C    0.071271
    16  C   -0.081989
    23  N    0.087132
    24  N    0.087134
 Charge=             -0.0000 electrons
 Dipole moment (field-independent basis, Debye):
    X=             -0.0000    Y=             -0.0001    Z=              0.0002  Tot=              0.0002
 N-N= 6.691608541190D+02 E-N=-1.210643672243D+03  KE=-6.241639554467D+01
 Calling FoFJK, ICntrl=      2127 FMM=F ISym2X=0 I1Cent= 0 IOpClX= 0 NMat=1 NMatS=1 NMatT=0.
 ***** Axes restored to original set *****
 -------------------------------------------------------------------
 Center     Atomic                   Forces (Hartrees/Bohr)
 Number     Number              X              Y              Z
 -------------------------------------------------------------------
      1        6           0.008331063   -0.025573487   -0.000005283
      2        6          -0.028460742   -0.007289982   -0.000003597
      3        6          -0.008572536    0.010089999    0.000003275
      4        8          -0.027443834    0.037095834    0.000006456
      5        6          -0.008341457    0.025549085    0.000003970
      6        6           0.028472272    0.007291725    0.000002304
      7        8           0.027443307   -0.037076985   -0.000008376
      8        6           0.008582410   -0.010080696    0.000000049
      9        6           0.003619743    0.036836703    0.000008207
     10        6          -0.003627367   -0.036838526   -0.000007575
     11        6          -0.007088014    0.006558210    0.000001763
     12        6           0.007085331   -0.006562010   -0.000001821
     13        6           0.021922122   -0.043074936   -0.000007939
     14        6          -0.004814029    0.015620149    0.000002312
     15        6           0.004812152   -0.015607579   -0.000003971
     16        6          -0.021921253    0.043064330    0.000009023
     17        1          -0.002646542   -0.008394933   -0.000002251
     18        1           0.002646361    0.008394234    0.000001971
     19        1           0.010355644    0.001998577    0.000000496
     20        1           0.007412674   -0.004554878   -0.000000681
     21        1          -0.010355881   -0.001999027   -0.000000371
     22        1          -0.007410308    0.004552648    0.000001236
     23        7           0.005788962    0.006362993    0.000001909
     24        7          -0.005790475   -0.006361701   -0.000001335
     25        1          -0.003252950   -0.009833565   -0.000002107
     26        1          -0.001894399   -0.000636978   -0.000000205
     27        1           0.003253390    0.009833698    0.000002339
     28        1           0.001894355    0.000637100    0.000000202
 -------------------------------------------------------------------
 Cartesian Forces:  Max     0.043074936 RMS     0.014146995

 GradGradGradGradGradGradGradGradGradGradGradGradGradGradGradGradGradGrad
 Berny optimization.
 FormGI is forming the generalized inverse of G from B-inverse, IUseBI=4.
 Internal  Forces:  Max     0.057665031 RMS     0.014462624
 Search for a local minimum.
 Step number   1 out of a maximum of  160
 All quantities printed in internal units (Hartrees-Bohrs-Radians)
 Mixed Optimization -- RFO/linear search
 Second derivative matrix not updated -- first step.
 ITU=  0
     Eigenvalues ---    0.01092   0.01092   0.01092   0.01565   0.01648
     Eigenvalues ---    0.01776   0.01812   0.01891   0.01923   0.02102
     Eigenvalues ---    0.02103   0.02103   0.02103   0.02103   0.02103
     Eigenvalues ---    0.02109   0.02109   0.02113   0.02113   0.02158
     Eigenvalues ---    0.02158   0.02158   0.02158   0.02172   0.02172
     Eigenvalues ---    0.16000   0.16000   0.16000   0.16000   0.16000
     Eigenvalues ---    0.16000   0.16000   0.16000   0.16000   0.16000
     Eigenvalues ---    0.22095   0.22101   0.23515   0.23549   0.24912
     Eigenvalues ---    0.24917   0.25000   0.25000   0.25000   0.25000
     Eigenvalues ---    0.25000   0.25000   0.25000   0.33346   0.34107
     Eigenvalues ---    0.34932   0.34932   0.35067   0.35068   0.35085
     Eigenvalues ---    0.35089   0.35089   0.35124   0.40124   0.41861
     Eigenvalues ---    0.41891   0.41993   0.45045   0.45595   0.45932
     Eigenvalues ---    0.46009   0.46046   0.46556   0.46603   0.46604
     Eigenvalues ---    0.50520   0.50520   0.50521   0.50521   0.51186
     Eigenvalues ---    0.51186   0.92009   0.92013
 RFO step:  Lambda=-7.44599447D-02 EMin= 1.09165684D-02
 Linear search not attempted -- first point.
 Maximum step size (   0.300) exceeded in Quadratic search.
    -- Step size scaled by   0.683
 Iteration  1 RMS(Cart)=  0.09776141 RMS(Int)=  0.00265756
 Iteration  2 RMS(Cart)=  0.00383198 RMS(Int)=  0.00008116
 Iteration  3 RMS(Cart)=  0.00001249 RMS(Int)=  0.00008089
 Iteration  4 RMS(Cart)=  0.00000000 RMS(Int)=  0.00008089
 Variable       Old X    -DE/DX   Delta X   Delta X   Delta X     New X
                                 (Linear)    (Quad)   (Total)
    R1        2.78773   0.01861   0.00000   0.02988   0.02988   2.81761
    R2        2.78838   0.00432   0.00000   0.00693   0.00693   2.79531
    R3        2.32019   0.03680   0.00000   0.02529   0.02529   2.34547
    R4        2.63549   0.02289   0.00000   0.03051   0.03062   2.66611
    R5        2.64811   0.05766   0.00000   0.07809   0.07825   2.72636
    R6        2.63549   0.02289   0.00000   0.03051   0.03062   2.66611
    R7        2.64938  -0.00744   0.00000  -0.01162  -0.01167   2.63771
    R8        2.78774   0.01861   0.00000   0.02987   0.02987   2.81761
    R9        2.32021   0.03678   0.00000   0.02527   0.02527   2.34548
   R10        2.78835   0.00432   0.00000   0.00695   0.00695   2.79530
   R11        2.64809   0.05767   0.00000   0.07810   0.07826   2.72636
   R12        2.64938  -0.00745   0.00000  -0.01162  -0.01167   2.63771
   R13        2.63307   0.04525   0.00000   0.05899   0.05904   2.69211
   R14        2.58687   0.01757   0.00000   0.02048   0.02048   2.60735
   R15        2.63308   0.04525   0.00000   0.05899   0.05904   2.69212
   R16        2.58687   0.01757   0.00000   0.02047   0.02047   2.60735
   R17        2.63685  -0.00297   0.00000  -0.00723  -0.00740   2.62945
   R18        2.05786   0.00839   0.00000   0.01353   0.01353   2.07139
   R19        2.63686  -0.00297   0.00000  -0.00723  -0.00740   2.62946
   R20        2.05786   0.00839   0.00000   0.01353   0.01353   2.07139
   R21        2.63453  -0.01407   0.00000  -0.01931  -0.01943   2.61510
   R22        2.05531   0.00998   0.00000   0.01603   0.01603   2.07134
   R23        2.05565   0.00870   0.00000   0.01398   0.01398   2.06963
   R24        2.63451  -0.01406   0.00000  -0.01930  -0.01942   2.61509
   R25        2.05566   0.00870   0.00000   0.01398   0.01398   2.06964
   R26        2.05531   0.00998   0.00000   0.01604   0.01604   2.07134
   R27        1.86044   0.00281   0.00000   0.00332   0.00332   1.86376
   R28        1.86043   0.00198   0.00000   0.00234   0.00234   1.86277
   R29        1.86044   0.00281   0.00000   0.00332   0.00332   1.86376
   R30        1.86043   0.00198   0.00000   0.00234   0.00234   1.86277
    A1        2.08967  -0.00100   0.00000  -0.00090  -0.00083   2.08883
    A2        2.08545   0.03280   0.00000   0.06847   0.06844   2.15389
    A3        2.10807  -0.03179   0.00000  -0.06757  -0.06761   2.04047
    A4        2.09217  -0.01789   0.00000  -0.04055  -0.04064   2.05153
    A5        2.10889   0.03459   0.00000   0.06815   0.06797   2.17686
    A6        2.08213  -0.01671   0.00000  -0.02760  -0.02733   2.05480
    A7        2.10135   0.01889   0.00000   0.04145   0.04148   2.14282
    A8        2.08374  -0.03066   0.00000  -0.06473  -0.06480   2.01894
    A9        2.09809   0.01177   0.00000   0.02329   0.02333   2.12142
   A10        2.08544   0.03280   0.00000   0.06847   0.06844   2.15388
   A11        2.08968  -0.00100   0.00000  -0.00090  -0.00084   2.08884
   A12        2.10807  -0.03179   0.00000  -0.06757  -0.06760   2.04047
   A13        2.09216  -0.01788   0.00000  -0.04055  -0.04064   2.05152
   A14        2.08213  -0.01671   0.00000  -0.02760  -0.02733   2.05480
   A15        2.10889   0.03459   0.00000   0.06815   0.06797   2.17686
   A16        2.10135   0.01889   0.00000   0.04145   0.04148   2.14282
   A17        2.09808   0.01177   0.00000   0.02329   0.02333   2.12141
   A18        2.08375  -0.03066   0.00000  -0.06474  -0.06480   2.01895
   A19        2.10445  -0.01669   0.00000  -0.02638  -0.02614   2.07831
   A20        2.14912   0.03042   0.00000   0.05969   0.05957   2.20869
   A21        2.02962  -0.01373   0.00000  -0.03331  -0.03343   1.99619
   A22        2.10444  -0.01669   0.00000  -0.02638  -0.02614   2.07830
   A23        2.14912   0.03042   0.00000   0.05969   0.05957   2.20869
   A24        2.02962  -0.01374   0.00000  -0.03332  -0.03343   1.99619
   A25        2.09510   0.00888   0.00000   0.01031   0.01009   2.10520
   A26        2.10334  -0.00718   0.00000  -0.01312  -0.01302   2.09032
   A27        2.08475  -0.00171   0.00000   0.00281   0.00292   2.08767
   A28        2.09509   0.00889   0.00000   0.01032   0.01010   2.10519
   A29        2.10335  -0.00718   0.00000  -0.01313  -0.01302   2.09033
   A30        2.08475  -0.00171   0.00000   0.00281   0.00292   2.08767
   A31        2.09361   0.00885   0.00000   0.02095   0.02090   2.11450
   A32        2.09184  -0.00092   0.00000  -0.00026  -0.00023   2.09161
   A33        2.09774  -0.00793   0.00000  -0.02069  -0.02067   2.07708
   A34        2.09300   0.00389   0.00000  -0.00057  -0.00085   2.09215
   A35        2.09653  -0.00213   0.00000  -0.00027  -0.00013   2.09640
   A36        2.09366  -0.00175   0.00000   0.00084   0.00098   2.09464
   A37        2.09300   0.00388   0.00000  -0.00057  -0.00085   2.09215
   A38        2.09651  -0.00213   0.00000  -0.00026  -0.00012   2.09639
   A39        2.09367  -0.00175   0.00000   0.00084   0.00098   2.09464
   A40        2.09361   0.00885   0.00000   0.02095   0.02089   2.11451
   A41        2.09183  -0.00092   0.00000  -0.00026  -0.00023   2.09160
   A42        2.09774  -0.00793   0.00000  -0.02069  -0.02066   2.07708
   A43        2.09440   0.01252   0.00000   0.03650   0.03650   2.13090
   A44        2.09440  -0.00650   0.00000  -0.01894  -0.01894   2.07546
   A45        2.09439  -0.00602   0.00000  -0.01756  -0.01756   2.07683
   A46        2.09440   0.01252   0.00000   0.03650   0.03650   2.13090
   A47        2.09440  -0.00650   0.00000  -0.01894  -0.01894   2.07546
   A48        2.09439  -0.00602   0.00000  -0.01756  -0.01756   2.07683
    D1        0.00003   0.00000   0.00000   0.00000   0.00000   0.00003
    D2       -3.14157   0.00000   0.00000   0.00000   0.00000  -3.14157
    D3       -3.14156   0.00000   0.00000   0.00000   0.00000  -3.14156
    D4        0.00002   0.00000   0.00000   0.00000   0.00000   0.00002
    D5       -0.00001  -0.00000   0.00000  -0.00000  -0.00000  -0.00002
    D6        3.14156   0.00000   0.00000   0.00000   0.00000   3.14157
    D7        3.14158  -0.00000   0.00000  -0.00000  -0.00000   3.14158
    D8       -0.00003   0.00000   0.00000   0.00000  -0.00000  -0.00003
    D9       -0.00002   0.00000   0.00000   0.00000   0.00000  -0.00002
   D10        3.14159   0.00000   0.00000  -0.00000  -0.00000   3.14159
   D11        3.14158  -0.00000   0.00000   0.00000   0.00000   3.14158
   D12        0.00001  -0.00000   0.00000  -0.00000  -0.00000   0.00000
   D13       -3.14159   0.00000   0.00000   0.00000   0.00000  -3.14159
   D14        0.00001   0.00000   0.00000   0.00000   0.00000   0.00001
   D15       -0.00001   0.00000   0.00000   0.00000   0.00000  -0.00000
   D16        3.14159   0.00000   0.00000   0.00000   0.00000   3.14159
   D17       -0.00001  -0.00000   0.00000  -0.00000  -0.00000  -0.00001
   D18        3.14158   0.00000   0.00000   0.00000   0.00000   3.14158
   D19       -3.14159  -0.00000   0.00000  -0.00000  -0.00000  -3.14159
   D20        0.00000  -0.00000   0.00000  -0.00000  -0.00000  -0.00000
   D21       -3.14158  -0.00000   0.00000  -0.00000  -0.00000  -3.14158
   D22        0.00002  -0.00000   0.00000  -0.00000  -0.00000   0.00002
   D23        0.00000   0.00000   0.00000   0.00000   0.00000   0.00000
   D24       -3.14159   0.00000   0.00000   0.00000   0.00000  -3.14159
   D25       -3.14157   0.00000   0.00000   0.00000   0.00000  -3.14157
   D26        0.00003   0.00000   0.00000   0.00000  -0.00000   0.00003
   D27        0.00002   0.00000   0.00000   0.00000   0.00000   0.00002
   D28       -3.14157   0.00000   0.00000   0.00000   0.00000  -3.14157
   D29       -0.00000  -0.00000   0.00000  -0.00000  -0.00000  -0.00000
   D30        3.14157  -0.00000   0.00000  -0.00000  -0.00000   3.14157
   D31        3.14158  -0.00000   0.00000  -0.00000  -0.00000   3.14158
   D32       -0.00003   0.00000   0.00000   0.00000   0.00000  -0.00003
   D33       -0.00000   0.00000   0.00000   0.00000   0.00000  -0.00000
   D34       -3.14159   0.00000   0.00000   0.00000   0.00000  -3.14159
   D35        3.14159   0.00000   0.00000   0.00000   0.00000   3.14159
   D36       -0.00000   0.00000   0.00000   0.00000   0.00000   0.00000
   D37       -0.00000   0.00000   0.00000   0.00000   0.00000   0.00000
   D38        3.14158   0.00000   0.00000   0.00000   0.00000   3.14159
   D39       -3.14157  -0.00000   0.00000  -0.00000  -0.00000  -3.14158
   D40        0.00001  -0.00000   0.00000  -0.00000  -0.00000   0.00001
   D41       -0.00000   0.00000   0.00000   0.00000   0.00000  -0.00000
   D42       -3.14158  -0.00000   0.00000  -0.00000  -0.00000  -3.14158
   D43        3.14159   0.00000   0.00000   0.00000   0.00000   3.14159
   D44        0.00001  -0.00000   0.00000  -0.00000  -0.00000   0.00001
   D45        0.00000  -0.00000   0.00000   0.00000   0.00000   0.00000
   D46       -3.14159  -0.00000   0.00000  -0.00000  -0.00000  -3.14159
   D47       -3.14159   0.00000   0.00000   0.00000   0.00000  -3.14159
   D48        0.00001   0.00000   0.00000   0.00000   0.00000   0.00001
   D49        0.00000  -0.00000   0.00000  -0.00000  -0.00000   0.00000
   D50        3.14159   0.00000   0.00000   0.00000   0.00000   3.14159
   D51        3.14159   0.00000   0.00000   0.00000   0.00000   3.14159
   D52       -0.00001   0.00000   0.00000   0.00000   0.00000  -0.00000
   D53       -0.00001  -0.00000   0.00000   0.00000   0.00000  -0.00001
   D54        3.14159   0.00000   0.00000   0.00000   0.00000   3.14159
   D55        3.14159  -0.00000   0.00000  -0.00000  -0.00000   3.14159
   D56       -0.00000   0.00000   0.00000   0.00000   0.00000  -0.00000
   D57       -0.00001   0.00000   0.00000   0.00000   0.00000  -0.00001
   D58        3.14159   0.00000   0.00000   0.00000   0.00000   3.14159
   D59       -3.14159  -0.00000   0.00000  -0.00000  -0.00000  -3.14159
   D60        0.00001  -0.00000   0.00000  -0.00000  -0.00000   0.00001
   D61       -0.00000  -0.00000   0.00000  -0.00000  -0.00000  -0.00000
   D62       -3.14159  -0.00000   0.00000  -0.00000  -0.00000  -3.14159
   D63        3.14159  -0.00000   0.00000   0.00000   0.00000   3.14159
   D64        0.00000  -0.00000   0.00000  -0.00000  -0.00000   0.00000
   D65        0.00001  -0.00000   0.00000  -0.00000  -0.00000   0.00001
   D66       -3.14159  -0.00000   0.00000  -0.00000  -0.00000  -3.14159
   D67        3.14159   0.00000   0.00000   0.00000   0.00000   3.14159
   D68       -0.00001   0.00000   0.00000   0.00000   0.00000  -0.00001
   D69       -0.00000  -0.00000   0.00000  -0.00000  -0.00000  -0.00000
   D70       -3.14159  -0.00000   0.00000  -0.00000  -0.00000  -3.14159
   D71        3.14159   0.00000   0.00000   0.00000   0.00000   3.14159
   D72       -0.00000   0.00000   0.00000   0.00000   0.00000  -0.00000
         Item               Value     Threshold  Converged?
 Maximum Force            0.057665     0.000450     NO 
 RMS     Force            0.014463     0.000300     NO 
 Maximum Displacement     0.393913     0.001800     NO 
 RMS     Displacement     0.099094     0.001200     NO 
 Predicted change in Energy=-3.683776D-02
 GradGradGradGradGradGradGradGradGradGradGradGradGradGradGradGradGradGrad

                          Input orientation:                          
 ---------------------------------------------------------------------
 Center     Atomic      Atomic             Coordinates (Angstroms)
 Number     Number       Type             X           Y           Z
 ---------------------------------------------------------------------
      1          6           0       -0.055083    1.461009    0.000289
      2          6           0        1.273784    0.784814    0.000186
      3          6           0       -1.290724    0.647822    0.000096
      4          8           0       -0.194280    2.694349    0.000534
      5          6           0        0.052292   -1.439140   -0.000344
      6          6           0       -1.276579   -0.762953   -0.000206
      7          8           0        0.191486   -2.672485   -0.000634
      8          6           0        1.287929   -0.625960   -0.000136
      9          6           0        2.544004    1.468925    0.000380
     10          6           0       -2.546794   -1.447065   -0.000356
     11          6           0        2.484708   -1.344307   -0.000260
     12          6           0       -2.487497    1.366175    0.000246
     13          6           0        3.743953    0.701059    0.000245
     14          6           0        3.708604   -0.682342   -0.000066
     15          6           0       -3.711394    0.704204    0.000102
     16          6           0       -3.746744   -0.679193   -0.000194
     17          1           0        2.461616   -2.440196   -0.000505
     18          1           0       -2.464406    2.462063    0.000477
     19          1           0        4.715823    1.207932    0.000398
     20          1           0        4.642643   -1.254218   -0.000163
     21          1           0       -4.718613   -1.186068   -0.000306
     22          1           0       -4.645431    1.276088    0.000216
     23          7           0        2.741815    2.834422    0.000695
     24          7           0       -2.744608   -2.812560   -0.000646
     25          1           0       -1.992800   -3.450910   -0.000783
     26          1           0       -3.666876   -3.160544   -0.000718
     27          1           0        1.990007    3.472771    0.000817
     28          1           0        3.664082    3.182407    0.000798
 ---------------------------------------------------------------------
                    Distance matrix (angstroms):
                    1          2          3          4          5
     1  C    0.000000
     2  C    1.491015   0.000000
     3  C    1.479216   2.568164   0.000000
     4  O    1.241171   2.408638   2.321737   0.000000
     5  C    2.902136   2.537324   2.481754   4.140838   0.000000
     6  C    2.537333   2.983275   1.410846   3.622749   1.491015
     7  O    4.140841   3.622746   3.636122   5.380681   1.241175
     8  C    2.481757   1.410845   2.876104   3.636124   1.479210
     9  C    2.599099   1.442729   3.921651   2.999977   3.829553
    10  C    3.829558   4.424714   2.442593   4.762944   2.599098
    11  C    3.784222   2.449387   4.268778   4.846413   2.434264
    12  C    2.434262   3.805944   1.395814   2.650074   3.784220
    13  C    3.874300   2.471589   5.034959   4.413942   4.267179
    14  C    4.331200   2.842692   5.173260   5.160867   3.733814
    15  C    3.733814   4.985829   2.421327   4.041135   4.331196
    16  C    4.267180   5.229628   2.791595   4.899060   3.874299
    17  H    4.642539   3.436806   4.859620   5.780773   2.609014
    18  H    2.609012   4.097221   2.160787   2.281979   4.642538
    19  H    4.777614   3.467949   6.032606   5.130161   5.362417
    20  H    5.425964   3.937876   6.230779   6.243958   4.594075
    21  H    5.362418   6.308185   3.887619   5.960472   4.777613
    22  H    4.594071   5.939567   3.413031   4.671639   5.425962
    23  N    3.115911   2.521112   4.587220   2.939434   5.049442
    24  N    5.049449   5.393382   3.753401   6.068791   3.115915
    25  H    5.280312   5.349012   4.158427   6.403038   2.868731
    26  H    5.865475   6.322655   4.488847   6.807253   4.098224
    27  H    2.868725   2.781742   4.329380   2.318847   5.280305
    28  H    4.098220   3.385555   5.565450   3.889108   5.865470
                    6          7          8          9         10
     6  C    0.000000
     7  O    2.408636   0.000000
     8  C    2.568164   2.321735   0.000000
     9  C    4.424718   4.762943   2.442594   0.000000
    10  C    1.442725   2.999972   3.921647   5.866790   0.000000
    11  C    3.805950   2.650081   1.395816   2.813857   5.032551
    12  C    2.449389   4.846413   4.268775   5.032550   2.813865
    13  C    5.229634   4.899064   2.791600   1.424604   6.647401
    14  C    4.985835   4.041137   2.421332   2.446272   6.301969
    15  C    2.842688   5.160863   5.173255   6.301968   2.446273
    16  C    2.471585   4.413940   5.034955   6.647399   1.424608
    17  H    4.097224   2.281984   2.160785   3.909989   5.105926
    18  H    3.436810   5.780774   4.859620   5.105927   3.909996
    19  H    6.308191   5.960476   3.887624   2.187445   7.732698
    20  H    5.939573   4.671647   3.413036   3.437994   7.192023
    21  H    3.467943   5.130157   6.032601   7.732697   2.187446
    22  H    3.937874   6.243957   6.230775   7.192021   3.437999
    23  N    5.393384   6.068789   3.753402   1.379750   6.804448
    24  N    2.521110   2.939433   4.587219   6.804449   1.379749
    25  H    2.781742   2.318847   4.329380   6.692337   2.079015
    26  H    3.385552   3.889107   5.565448   7.746419   2.047094
    27  H    5.349013   6.403035   4.158426   2.079017   6.692335
    28  H    6.322658   6.807253   4.488849   2.047095   7.746419
                   11         12         13         14         15
    11  C    0.000000
    12  C    5.662997   0.000000
    13  C    2.401920   6.266845   0.000000
    14  C    1.391445   6.525955   1.383853   0.000000
    15  C    6.525955   1.391449   7.455348   7.548436   0.000000
    16  C    6.266847   2.401923   7.616800   7.455349   1.383848
    17  H    1.096132   6.243570   3.392915   2.155233   6.927720
    18  H    6.243571   1.096131   6.453283   6.927722   2.155237
    19  H    3.389956   7.205058   1.096108   2.141875   8.442259
    20  H    2.159815   7.596404   2.151918   1.095204   8.580522
    21  H    7.205059   3.389959   8.670426   8.442259   2.141873
    22  H    7.596404   2.159814   8.409068   8.580522   1.095206
    23  N    4.186631   5.431524   2.357015   3.647233   6.795714
    24  N    5.431529   4.186637   7.378817   6.795717   3.647232
    25  H    4.948319   4.842420   7.081609   6.338058   4.496503
    26  H    6.414102   4.677833   8.356576   7.780693   3.865004
    27  H    4.842414   4.948312   3.280048   4.496504   6.338055
    28  H    4.677827   6.414096   2.482634   3.865006   7.780691
                   16         17         18         19         20
    16  C    0.000000
    17  H    6.453283   0.000000
    18  H    3.392916   6.949664   0.000000
    19  H    8.670426   4.288390   7.288932   0.000000
    20  H    8.409071   2.482624   8.020031   2.463238   0.000000
    21  H    1.096108   7.288932   4.288393   9.733439   9.361505
    22  H    2.151920   8.020030   2.482621   9.361503   9.626566
    23  N    7.378813   5.282054   5.219519   2.557768   4.508894
    24  N    2.357018   5.219523   5.282060   8.474809   7.549828
    25  H    3.280051   4.567644   5.931750   8.167646   6.989604
    26  H    2.482636   6.170682   5.749751   9.452684   8.525385
    27  H    7.081604   5.931744   4.567639   3.543948   5.420416
    28  H    8.356572   5.749747   6.170678   2.237121   4.543262
                   21         22         23         24         25
    21  H    0.000000
    22  H    2.463243   0.000000
    23  N    8.474805   7.549822   0.000000
    24  N    2.557767   4.508899   7.873324   0.000000
    25  H    3.543948   5.420421   7.869052   0.986258   0.000000
    26  H    2.237120   4.543267   8.775587   0.985734   1.699071
    27  H    8.167642   6.989596   0.986258   7.869051   7.987498
    28  H    9.452680   8.525378   0.985734   8.775588   8.717868
                   26         27         28
    26  H    0.000000
    27  H    8.717866   0.000000
    28  H    9.694121   1.699070   0.000000
 Stoichiometry    C14H10N2O2
 Framework group  C1[X(C14H10N2O2)]
 Deg. of freedom    78
 Full point group                 C1      NOp   1
 Largest Abelian subgroup         C1      NOp   1
 Largest concise Abelian subgroup C1      NOp   1
                         Standard orientation:                         
 ---------------------------------------------------------------------
 Center     Atomic      Atomic             Coordinates (Angstroms)
 Number     Number       Type             X           Y           Z
 ---------------------------------------------------------------------
      1          6           0       -0.377087   -1.401217   -0.000025
      2          6           0       -1.446884   -0.362632   -0.000005
      3          6           0        1.043635   -0.989354   -0.000017
      4          8           0       -0.608453   -2.620633   -0.000049
      5          6           0        0.377085    1.401213   -0.000024
      6          6           0        1.446888    0.362634   -0.000010
      7          8           0        0.608455    2.620632   -0.000046
      8          6           0       -1.043631    0.989355   -0.000018
      9          6           0       -2.862511   -0.640965    0.000015
     10          6           0        2.862510    0.640969    0.000013
     11          6           0       -1.974784    2.029191   -0.000006
     12          6           0        1.974779   -2.029194   -0.000003
     13          6           0       -3.782063    0.447116    0.000027
     14          6           0       -3.339611    1.758331    0.000020
     15          6           0        3.339610   -1.758329    0.000021
     16          6           0        3.782061   -0.447118    0.000029
     17          1           0       -1.628977    3.069346   -0.000010
     18          1           0        1.628974   -3.069349   -0.000013
     19          1           0       -4.860296    0.249973    0.000051
     20          1           0       -4.063020    2.580615    0.000032
     21          1           0        4.860294   -0.249973    0.000046
     22          1           0        4.063014   -2.580619    0.000027
     23          7           0       -3.454885   -1.887080    0.000027
     24          7           0        3.454886    1.887082    0.000027
     25          1           0        2.925213    2.719038    0.000016
     26          1           0        4.438793    1.947080    0.000048
     27          1           0       -2.925211   -2.719036    0.000024
     28          1           0       -4.438791   -1.947081    0.000038
 ---------------------------------------------------------------------
 Rotational constants (GHZ):      0.7946673      0.3437147      0.2399360
 Standard basis: VSTO-6G (5D, 7F)
 There are    82 symmetry adapted cartesian basis functions of A   symmetry.
 There are    82 symmetry adapted basis functions of A   symmetry.
    82 basis functions,   492 primitive gaussians,    82 cartesian basis functions
    44 alpha electrons       44 beta electrons
       nuclear repulsion energy       662.2239151843 Hartrees.
 Integral buffers will be    131072 words long.
 Regular integral format.
 Two-electron integral symmetry is turned off.
 Do NDO integrals.
 One-electron integrals computed using PRISM.
 NBasis=    82 RedAO= F EigKep=  0.00D+00  NBF=    82
 NBsUse=    82 1.00D-04 EigRej=  0.00D+00 NBFU=    82
 Initial guess from the checkpoint file:  "anthracene-1-5-opt.chk"
 B after Tr=    -0.000000    0.000000    0.000000
         Rot=    1.000000   -0.000000    0.000000    0.000125 Ang=   0.01 deg.
 Overlap will be assumed to be unity.
 Keep J ints in memory in canonical form, NReq=936458.
 Requested convergence on RMS density matrix=1.00D-08 within 128 cycles.
 Requested convergence on MAX density matrix=1.00D-06.
 Requested convergence on             energy=1.00D-06.
 No special actions if energy rises.
 SCF Done:  E(RAM1) = -0.610875625296E-02 A.U. after   15 cycles
            NFock= 14  Conv=0.66D-08     -V/T= 0.9999
 Calling FoFJK, ICntrl=      2127 FMM=F ISym2X=0 I1Cent= 0 IOpClX= 0 NMat=1 NMatS=1 NMatT=0.
 ***** Axes restored to original set *****
 -------------------------------------------------------------------
 Center     Atomic                   Forces (Hartrees/Bohr)
 Number     Number              X              Y              Z
 -------------------------------------------------------------------
      1        6           0.022819853   -0.003529956   -0.000000382
      2        6          -0.001390894    0.010574921    0.000001253
      3        6          -0.004143057   -0.012156160   -0.000001584
      4        8           0.015620422    0.009507516    0.000002429
      5        6          -0.022823015    0.003519848   -0.000000852
      6        6           0.001394730   -0.010572976   -0.000001799
      7        8          -0.015620481   -0.009501632   -0.000002085
      8        6           0.004147099    0.012160355    0.000004591
      9        6          -0.007995063    0.008465293    0.000001565
     10        6           0.007992006   -0.008463976   -0.000001469
     11        6          -0.001718528    0.002001223    0.000000816
     12        6           0.001715377   -0.002004851   -0.000000766
     13        6          -0.001176823   -0.014899252   -0.000002598
     14        6          -0.000181953    0.010009149    0.000001461
     15        6           0.000182316   -0.010002711   -0.000002669
     16        6           0.001177385    0.014894774    0.000003002
     17        1          -0.000613017   -0.004721873   -0.000001318
     18        1           0.000612924    0.004721843    0.000001156
     19        1           0.003632473    0.001338647    0.000000158
     20        1           0.003284132   -0.002220820   -0.000000326
     21        1          -0.003632476   -0.001338434   -0.000000225
     22        1          -0.003283188    0.002219436    0.000000705
     23        7          -0.019631030   -0.009592805   -0.000002649
     24        7           0.019630890    0.009592543    0.000002051
     25        1           0.005321714    0.001816834    0.000000322
     26        1          -0.001115925   -0.000778116   -0.000000238
     27        1          -0.005321785   -0.001816884   -0.000000748
     28        1           0.001115914    0.000778066    0.000000199
 -------------------------------------------------------------------
 Cartesian Forces:  Max     0.022823015 RMS     0.007198765

 GradGradGradGradGradGradGradGradGradGradGradGradGradGradGradGradGradGrad
 Berny optimization.
 Using GEDIIS/GDIIS optimizer.
 FormGI is forming the generalized inverse of G from B-inverse, IUseBI=4.
 Internal  Forces:  Max     0.034444832 RMS     0.009819328
 Search for a local minimum.
 Step number   2 out of a maximum of  160
 All quantities printed in internal units (Hartrees-Bohrs-Radians)
 Mixed Optimization -- RFO/linear search
 Update second derivatives using D2CorX and points    1    2
 DE= -5.39D-03 DEPred=-3.68D-02 R= 1.46D-01
 Trust test= 1.46D-01 RLast= 3.00D-01 DXMaxT set to 3.00D-01
 ITU=  0  0
 Use linear search instead of GDIIS.
     Eigenvalues ---    0.01092   0.01092   0.01092   0.01565   0.01647
     Eigenvalues ---    0.01775   0.01805   0.01896   0.01923   0.02103
     Eigenvalues ---    0.02103   0.02103   0.02103   0.02103   0.02103
     Eigenvalues ---    0.02109   0.02109   0.02111   0.02111   0.02158
     Eigenvalues ---    0.02158   0.02159   0.02159   0.02172   0.02172
     Eigenvalues ---    0.15977   0.16000   0.16000   0.16000   0.16000
     Eigenvalues ---    0.16000   0.16000   0.16000   0.16000   0.16153
     Eigenvalues ---    0.22098   0.22124   0.23267   0.23523   0.24158
     Eigenvalues ---    0.24912   0.24913   0.25000   0.25000   0.25000
     Eigenvalues ---    0.25000   0.25000   0.32450   0.33368   0.34125
     Eigenvalues ---    0.34147   0.34932   0.34972   0.35067   0.35074
     Eigenvalues ---    0.35088   0.35089   0.36674   0.40170   0.41799
     Eigenvalues ---    0.41928   0.44969   0.45053   0.45150   0.45933
     Eigenvalues ---    0.45943   0.46048   0.46532   0.46605   0.50482
     Eigenvalues ---    0.50520   0.50521   0.50521   0.50687   0.51186
     Eigenvalues ---    0.88922   0.92011   1.00602
 RFO step:  Lambda=-7.16192033D-03 EMin= 1.09163151D-02
 Quartic linear search produced a step of -0.47137.
 Iteration  1 RMS(Cart)=  0.06466244 RMS(Int)=  0.00126407
 Iteration  2 RMS(Cart)=  0.00188984 RMS(Int)=  0.00003405
 Iteration  3 RMS(Cart)=  0.00000111 RMS(Int)=  0.00003405
 Iteration  4 RMS(Cart)=  0.00000000 RMS(Int)=  0.00003405
 Variable       Old X    -DE/DX   Delta X   Delta X   Delta X     New X
                                 (Linear)    (Quad)   (Total)
    R1        2.81761  -0.03003  -0.01408  -0.02356  -0.03765   2.77996
    R2        2.79531   0.01022  -0.00327   0.01987   0.01660   2.81191
    R3        2.34547   0.00770  -0.01192   0.02455   0.01263   2.35811
    R4        2.66611  -0.00650  -0.01443   0.01391  -0.00055   2.66556
    R5        2.72636  -0.03444  -0.03689   0.01579  -0.02117   2.70520
    R6        2.66611  -0.00650  -0.01443   0.01392  -0.00055   2.66556
    R7        2.63771   0.00080   0.00550  -0.00696  -0.00142   2.63629
    R8        2.81761  -0.03003  -0.01408  -0.02357  -0.03765   2.77996
    R9        2.34548   0.00769  -0.01191   0.02454   0.01263   2.35811
   R10        2.79530   0.01022  -0.00328   0.01988   0.01660   2.81191
   R11        2.72636  -0.03444  -0.03689   0.01580  -0.02116   2.70519
   R12        2.63771   0.00080   0.00550  -0.00696  -0.00142   2.63629
   R13        2.69211   0.00662  -0.02783   0.05007   0.02220   2.71431
   R14        2.60735  -0.01394  -0.00965   0.00108  -0.00857   2.59878
   R15        2.69212   0.00662  -0.02783   0.05006   0.02220   2.71432
   R16        2.60735  -0.01394  -0.00965   0.00108  -0.00857   2.59878
   R17        2.62945   0.00755   0.00349   0.00493   0.00849   2.63794
   R18        2.07139   0.00473  -0.00638   0.01636   0.00998   2.08137
   R19        2.62946   0.00755   0.00349   0.00493   0.00849   2.63794
   R20        2.07139   0.00473  -0.00638   0.01636   0.00998   2.08137
   R21        2.61510  -0.00164   0.00916  -0.01483  -0.00563   2.60947
   R22        2.07134   0.00384  -0.00756   0.01675   0.00919   2.08054
   R23        2.06963   0.00396  -0.00659   0.01551   0.00892   2.07856
   R24        2.61509  -0.00163   0.00915  -0.01482  -0.00563   2.60947
   R25        2.06964   0.00396  -0.00659   0.01551   0.00892   2.07856
   R26        2.07134   0.00384  -0.00756   0.01675   0.00919   2.08054
   R27        1.86376   0.00288  -0.00156   0.00543   0.00387   1.86763
[...]
                   16         17         18         19         20
    16  C    0.000000
    17  H    6.422749   0.000000
    18  H    3.404854   6.954662   0.000000
    19  H    8.625573   4.310299   7.249609   0.000000
    20  H    8.374531   2.495838   8.003419   2.473495   0.000000
    21  H    1.101101   7.249623   4.310298   9.690401   9.323849
    22  H    2.151418   8.003426   2.495837   9.323840   9.602116
    23  N    7.239174   5.286903   5.072718   2.625395   4.549373
    24  N    2.399062   5.072750   5.286903   8.340249   7.409728
    25  H    3.313770   4.352991   5.895827   7.962372   6.781465
    26  H    2.555299   6.003870   5.800965   9.325781   8.374702
    27  H    6.870596   5.895820   4.352949   3.616395   5.444057
    28  H    8.224662   5.800972   6.003834   2.344309   4.634525
                   21         22         23         24         25
    21  H    0.000000
    22  H    2.473494   0.000000
    23  N    8.340228   7.409699   0.000000
    24  N    2.625386   4.549368   7.681186   0.000000
    25  H    3.616386   5.444056   7.618583   0.991486   0.000000
    26  H    2.344293   4.634512   8.604597   0.987413   1.707968
    27  H    7.962336   6.781423   0.991486   7.618567   7.684455
    28  H    9.325761   8.374670   0.987413   8.604602   8.492483
                   26         27         28
    26  H    0.000000
    27  H    8.492461   0.000000
    28  H    9.540840   1.707969   0.000000
 Stoichiometry    C14H10N2O2
 Framework group  C1[X(C14H10N2O2)]
 Deg. of freedom    78
 Full point group                 C1      NOp   1
 Largest Abelian subgroup         C1      NOp   1
 Largest concise Abelian subgroup C1      NOp   1
                         Standard orientation:                         
 ---------------------------------------------------------------------
 Center     Atomic      Atomic             Coordinates (Angstroms)
 Number     Number       Type             X           Y           Z
 ---------------------------------------------------------------------
      1          6           0       -0.418102   -1.398204    0.000015
      2          6           0       -1.432149   -0.339919    0.000012
      3          6           0        1.017738   -1.007752    0.000012
      4          8           0       -0.699796   -2.612023   -0.000046
      5          6           0        0.418099    1.398209    0.000021
      6          6           0        1.432149    0.339924    0.000013
      7          8           0        0.699785    2.612030   -0.000049
      8          6           0       -1.017740    1.007756    0.000012
      9          6           0       -2.831350   -0.628904    0.000006
     10          6           0        2.831354    0.628903    0.000006
     11          6           0       -1.943214    2.046879    0.000006
     12          6           0        1.943208   -2.046878    0.000006
     13          6           0       -3.757069    0.463604    0.000001
     14          6           0       -3.314345    1.766617    0.000002
     15          6           0        3.314339   -1.766621    0.000001
     16          6           0        3.757068   -0.463611    0.000001
     17          1           0       -1.592048    3.091478    0.000006
     18          1           0        1.592038   -3.091476    0.000004
     19          1           0       -4.838431    0.256046   -0.000003
     20          1           0       -4.038323    2.596559   -0.000003
     21          1           0        4.838430   -0.256056   -0.000004
     22          1           0        4.038314   -2.596566   -0.000003
     23          7           0       -3.338444   -1.898656    0.000005
     24          7           0        3.338464    1.898649    0.000005
     25          1           0        2.742484    2.691020    0.000004
     26          1           0        4.317162    2.029549   -0.000001
     27          1           0       -2.742451   -2.691018    0.000002
     28          1           0       -4.317140   -2.029571   -0.000004
 ---------------------------------------------------------------------
 Rotational constants (GHZ):      0.7905540      0.3535576      0.2442999

 **********************************************************************

            Population analysis using the SCF density.

 **********************************************************************

 Orbital symmetries:
       Occupied  (A) (A) (A) (A) (A) (A) (A) (A) (A) (A) (A) (A)
                 (A) (A) (A) (A) (A) (A) (A) (A) (A) (A) (A) (A)
                 (A) (A) (A) (A) (A) (A) (A) (A) (A) (A) (A) (A)
                 (A) (A) (A) (A) (A) (A) (A) (A)
       Virtual   (A) (A) (A) (A) (A) (A) (A) (A) (A) (A) (A) (A)
                 (A) (A) (A) (A) (A) (A) (A) (A) (A) (A) (A) (A)
                 (A) (A) (A) (A) (A) (A) (A) (A) (A) (A) (A) (A)
                 (A) (A)
 The electronic state is 1-A.
 Alpha  occ. eigenvalues --   -1.52324  -1.45817  -1.43696  -1.38981  -1.32047
 Alpha  occ. eigenvalues --   -1.29370  -1.23485  -1.14765  -1.09536  -1.08339
 Alpha  occ. eigenvalues --   -0.97119  -0.92089  -0.88968  -0.82250  -0.78969
 Alpha  occ. eigenvalues --   -0.75271  -0.69178  -0.66921  -0.65625  -0.64846
 Alpha  occ. eigenvalues --   -0.61976  -0.61916  -0.58128  -0.58065  -0.57412
 Alpha  occ. eigenvalues --   -0.57028  -0.56058  -0.53416  -0.53373  -0.52603
 Alpha  occ. eigenvalues --   -0.51830  -0.49569  -0.47989  -0.47669  -0.47097
 Alpha  occ. eigenvalues --   -0.45765  -0.43413  -0.43372  -0.40199  -0.38360
 Alpha  occ. eigenvalues --   -0.37162  -0.36678  -0.31709  -0.31089
 Alpha virt. eigenvalues --   -0.04023   0.00324   0.00573   0.01839   0.06004
 Alpha virt. eigenvalues --    0.06374   0.09012   0.09534   0.09633   0.10796
 Alpha virt. eigenvalues --    0.11116   0.11634   0.13054   0.13583   0.14084
 Alpha virt. eigenvalues --    0.14558   0.14899   0.15124   0.15469   0.16050
 Alpha virt. eigenvalues --    0.16316   0.16382   0.17112   0.17319   0.17935
 Alpha virt. eigenvalues --    0.18167   0.19234   0.19287   0.20106   0.20141
 Alpha virt. eigenvalues --    0.20610   0.20700   0.22790   0.22800   0.23375
 Alpha virt. eigenvalues --    0.23605   0.24006   0.24662
          Condensed to atoms (all electrons):
               1          2          3          4          5          6
     1  C    3.679476   0.000000   0.000000   0.000000   0.000000   0.000000
     2  C    0.000000   4.213408   0.000000   0.000000   0.000000   0.000000
     3  C    0.000000   0.000000   4.049407   0.000000   0.000000   0.000000
     4  O    0.000000   0.000000   0.000000   6.338530   0.000000   0.000000
     5  C    0.000000   0.000000   0.000000   0.000000   3.679476   0.000000
     6  C    0.000000   0.000000   0.000000   0.000000   0.000000   4.213405
     7  O    0.000000   0.000000   0.000000   0.000000   0.000000   0.000000
     8  C    0.000000   0.000000   0.000000   0.000000   0.000000   0.000000
     9  C    0.000000   0.000000   0.000000   0.000000   0.000000   0.000000
    10  C    0.000000   0.000000   0.000000   0.000000   0.000000   0.000000
    11  C    0.000000   0.000000   0.000000   0.000000   0.000000   0.000000
    12  C    0.000000   0.000000   0.000000   0.000000   0.000000   0.000000
    13  C    0.000000   0.000000   0.000000   0.000000   0.000000   0.000000
    14  C    0.000000   0.000000   0.000000   0.000000   0.000000   0.000000
    15  C    0.000000   0.000000   0.000000   0.000000   0.000000   0.000000
    16  C    0.000000   0.000000   0.000000   0.000000   0.000000   0.000000
    17  H    0.000000   0.000000   0.000000   0.000000   0.000000   0.000000
    18  H    0.000000   0.000000   0.000000   0.000000   0.000000   0.000000
    19  H    0.000000   0.000000   0.000000   0.000000   0.000000   0.000000
    20  H    0.000000   0.000000   0.000000   0.000000   0.000000   0.000000
    21  H    0.000000   0.000000   0.000000   0.000000   0.000000   0.000000
    22  H    0.000000   0.000000   0.000000   0.000000   0.000000   0.000000
    23  N    0.000000   0.000000   0.000000   0.000000   0.000000   0.000000
    24  N    0.000000   0.000000   0.000000   0.000000   0.000000   0.000000
    25  H    0.000000   0.000000   0.000000   0.000000   0.000000   0.000000
    26  H    0.000000   0.000000   0.000000   0.000000   0.000000   0.000000
    27  H    0.000000   0.000000   0.000000   0.000000   0.000000   0.000000
    28  H    0.000000   0.000000   0.000000   0.000000   0.000000   0.000000
               7          8          9         10         11         12
     1  C    0.000000   0.000000   0.000000   0.000000   0.000000   0.000000
     2  C    0.000000   0.000000   0.000000   0.000000   0.000000   0.000000
     3  C    0.000000   0.000000   0.000000   0.000000   0.000000   0.000000
     4  O    0.000000   0.000000   0.000000   0.000000   0.000000   0.000000
     5  C    0.000000   0.000000   0.000000   0.000000   0.000000   0.000000
     6  C    0.000000   0.000000   0.000000   0.000000   0.000000   0.000000
     7  O    6.338528   0.000000   0.000000   0.000000   0.000000   0.000000
     8  C    0.000000   4.049406   0.000000   0.000000   0.000000   0.000000
     9  C    0.000000   0.000000   3.819256   0.000000   0.000000   0.000000
    10  C    0.000000   0.000000   0.000000   3.819256   0.000000   0.000000
    11  C    0.000000   0.000000   0.000000   0.000000   4.154442   0.000000
    12  C    0.000000   0.000000   0.000000   0.000000   0.000000   4.154442
    13  C    0.000000   0.000000   0.000000   0.000000   0.000000   0.000000
    14  C    0.000000   0.000000   0.000000   0.000000   0.000000   0.000000
    15  C    0.000000   0.000000   0.000000   0.000000   0.000000   0.000000
    16  C    0.000000   0.000000   0.000000   0.000000   0.000000   0.000000
    17  H    0.000000   0.000000   0.000000   0.000000   0.000000   0.000000
    18  H    0.000000   0.000000   0.000000   0.000000   0.000000   0.000000
    19  H    0.000000   0.000000   0.000000   0.000000   0.000000   0.000000
    20  H    0.000000   0.000000   0.000000   0.000000   0.000000   0.000000
    21  H    0.000000   0.000000   0.000000   0.000000   0.000000   0.000000
    22  H    0.000000   0.000000   0.000000   0.000000   0.000000   0.000000
    23  N    0.000000   0.000000   0.000000   0.000000   0.000000   0.000000
    24  N    0.000000   0.000000   0.000000   0.000000   0.000000   0.000000
    25  H    0.000000   0.000000   0.000000   0.000000   0.000000   0.000000
    26  H    0.000000   0.000000   0.000000   0.000000   0.000000   0.000000
    27  H    0.000000   0.000000   0.000000   0.000000   0.000000   0.000000
    28  H    0.000000   0.000000   0.000000   0.000000   0.000000   0.000000
              13         14         15         16         17         18
     1  C    0.000000   0.000000   0.000000   0.000000   0.000000   0.000000
     2  C    0.000000   0.000000   0.000000   0.000000   0.000000   0.000000
     3  C    0.000000   0.000000   0.000000   0.000000   0.000000   0.000000
     4  O    0.000000   0.000000   0.000000   0.000000   0.000000   0.000000
     5  C    0.000000   0.000000   0.000000   0.000000   0.000000   0.000000
     6  C    0.000000   0.000000   0.000000   0.000000   0.000000   0.000000
     7  O    0.000000   0.000000   0.000000   0.000000   0.000000   0.000000
     8  C    0.000000   0.000000   0.000000   0.000000   0.000000   0.000000
     9  C    0.000000   0.000000   0.000000   0.000000   0.000000   0.000000
    10  C    0.000000   0.000000   0.000000   0.000000   0.000000   0.000000
    11  C    0.000000   0.000000   0.000000   0.000000   0.000000   0.000000
    12  C    0.000000   0.000000   0.000000   0.000000   0.000000   0.000000
    13  C    4.217321   0.000000   0.000000   0.000000   0.000000   0.000000
    14  C    0.000000   4.062612   0.000000   0.000000   0.000000   0.000000
    15  C    0.000000   0.000000   4.062613   0.000000   0.000000   0.000000
    16  C    0.000000   0.000000   0.000000   4.217321   0.000000   0.000000
    17  H    0.000000   0.000000   0.000000   0.000000   0.839233   0.000000
    18  H    0.000000   0.000000   0.000000   0.000000   0.000000   0.839233
    19  H    0.000000   0.000000   0.000000   0.000000   0.000000   0.000000
    20  H    0.000000   0.000000   0.000000   0.000000   0.000000   0.000000
    21  H    0.000000   0.000000   0.000000   0.000000   0.000000   0.000000
    22  H    0.000000   0.000000   0.000000   0.000000   0.000000   0.000000
    23  N    0.000000   0.000000   0.000000   0.000000   0.000000   0.000000
    24  N    0.000000   0.000000   0.000000   0.000000   0.000000   0.000000
    25  H    0.000000   0.000000   0.000000   0.000000   0.000000   0.000000
    26  H    0.000000   0.000000   0.000000   0.000000   0.000000   0.000000
    27  H    0.000000   0.000000   0.000000   0.000000   0.000000   0.000000
    28  H    0.000000   0.000000   0.000000   0.000000   0.000000   0.000000
              19         20         21         22         23         24
     1  C    0.000000   0.000000   0.000000   0.000000   0.000000   0.000000
     2  C    0.000000   0.000000   0.000000   0.000000   0.000000   0.000000
     3  C    0.000000   0.000000   0.000000   0.000000   0.000000   0.000000
     4  O    0.000000   0.000000   0.000000   0.000000   0.000000   0.000000
     5  C    0.000000   0.000000   0.000000   0.000000   0.000000   0.000000
     6  C    0.000000   0.000000   0.000000   0.000000   0.000000   0.000000
     7  O    0.000000   0.000000   0.000000   0.000000   0.000000   0.000000
     8  C    0.000000   0.000000   0.000000   0.000000   0.000000   0.000000
     9  C    0.000000   0.000000   0.000000   0.000000   0.000000   0.000000
    10  C    0.000000   0.000000   0.000000   0.000000   0.000000   0.000000
    11  C    0.000000   0.000000   0.000000   0.000000   0.000000   0.000000
    12  C    0.000000   0.000000   0.000000   0.000000   0.000000   0.000000
    13  C    0.000000   0.000000   0.000000   0.000000   0.000000   0.000000
    14  C    0.000000   0.000000   0.000000   0.000000   0.000000   0.000000
    15  C    0.000000   0.000000   0.000000   0.000000   0.000000   0.000000
    16  C    0.000000   0.000000   0.000000   0.000000   0.000000   0.000000
    17  H    0.000000   0.000000   0.000000   0.000000   0.000000   0.000000
    18  H    0.000000   0.000000   0.000000   0.000000   0.000000   0.000000
    19  H    0.865409   0.000000   0.000000   0.000000   0.000000   0.000000
    20  H    0.000000   0.862905   0.000000   0.000000   0.000000   0.000000
    21  H    0.000000   0.000000   0.865409   0.000000   0.000000   0.000000
    22  H    0.000000   0.000000   0.000000   0.862905   0.000000   0.000000
    23  N    0.000000   0.000000   0.000000   0.000000   5.381585   0.000000
    24  N    0.000000   0.000000   0.000000   0.000000   0.000000   5.381585
    25  H    0.000000   0.000000   0.000000   0.000000   0.000000   0.000000
    26  H    0.000000   0.000000   0.000000   0.000000   0.000000   0.000000
    27  H    0.000000   0.000000   0.000000   0.000000   0.000000   0.000000
    28  H    0.000000   0.000000   0.000000   0.000000   0.000000   0.000000
              25         26         27         28
     1  C    0.000000   0.000000   0.000000   0.000000
     2  C    0.000000   0.000000   0.000000   0.000000
     3  C    0.000000   0.000000   0.000000   0.000000
     4  O    0.000000   0.000000   0.000000   0.000000
     5  C    0.000000   0.000000   0.000000   0.000000
     6  C    0.000000   0.000000   0.000000   0.000000
     7  O    0.000000   0.000000   0.000000   0.000000
     8  C    0.000000   0.000000   0.000000   0.000000
     9  C    0.000000   0.000000   0.000000   0.000000
    10  C    0.000000   0.000000   0.000000   0.000000
    11  C    0.000000   0.000000   0.000000   0.000000
    12  C    0.000000   0.000000   0.000000   0.000000
    13  C    0.000000   0.000000   0.000000   0.000000
    14  C    0.000000   0.000000   0.000000   0.000000
    15  C    0.000000   0.000000   0.000000   0.000000
    16  C    0.000000   0.000000   0.000000   0.000000
    17  H    0.000000   0.000000   0.000000   0.000000
    18  H    0.000000   0.000000   0.000000   0.000000
    19  H    0.000000   0.000000   0.000000   0.000000
    20  H    0.000000   0.000000   0.000000   0.000000
    21  H    0.000000   0.000000   0.000000   0.000000
    22  H    0.000000   0.000000   0.000000   0.000000
    23  N    0.000000   0.000000   0.000000   0.000000
    24  N    0.000000   0.000000   0.000000   0.000000
    25  H    0.739551   0.000000   0.000000   0.000000
    26  H    0.000000   0.776868   0.000000   0.000000
    27  H    0.000000   0.000000   0.739549   0.000000
    28  H    0.000000   0.000000   0.000000   0.776869
 Mulliken charges:
               1
     1  C    0.320524
     2  C   -0.213408
     3  C   -0.049407
     4  O   -0.338530
     5  C    0.320524
     6  C   -0.213405
     7  O   -0.338528
     8  C   -0.049406
     9  C    0.180744
    10  C    0.180744
    11  C   -0.154442
    12  C   -0.154442
    13  C   -0.217321
    14  C   -0.062612
    15  C   -0.062613
    16  C   -0.217321
    17  H    0.160767
    18  H    0.160767
    19  H    0.134591
    20  H    0.137095
    21  H    0.134591
    22  H    0.137095
    23  N   -0.381585
    24  N   -0.381585
    25  H    0.260449
    26  H    0.223132
    27  H    0.260451
    28  H    0.223131
 Sum of Mulliken charges =  -0.00000
 Mulliken charges with hydrogens summed into heavy atoms:
               1
     1  C    0.320524
     2  C   -0.213408
     3  C   -0.049407
     4  O   -0.338530
     5  C    0.320524
     6  C   -0.213405
     7  O   -0.338528
     8  C   -0.049406
     9  C    0.180744
    10  C    0.180744
    11  C    0.006325
    12  C    0.006325
    13  C   -0.082730
    14  C    0.074482
    15  C    0.074482
    16  C   -0.082730
    23  N    0.101997
    24  N    0.101996
 Charge=             -0.0000 electrons
 Dipole moment (field-independent basis, Debye):
    X=              0.0000    Y=             -0.0000    Z=              0.0002  Tot=              0.0002
 N-N= 6.654025535443D+02 E-N=-1.203822768658D+03  KE=-6.218810980168D+01
 1\1\GINC-GTX1080DELTA\FOpt\RAM1\ZDO\C14H10N2O2\MVEROT\12-Apr-2022\0\\#
 n AM1 Opt\\Geometry optimization\\0,1\C,-0.0121709487,1.4702690527,0.0
 003395343\C,1.2678680421,0.7562959901,0.0002038382\C,-1.2701272516,0.6
 755151173,0.0001390597\O,-0.099217353,2.7133020085,0.0005500528\C,0.00
 93868576,-1.4484109017,-0.0002943024\C,-1.2706556112,-0.734437951,-0.0
 00169308\O,0.096441292,-2.6914433645,-0.0006357884\C,1.2673421959,-0.6
 536556631,-0.0001055487\C,2.5205862101,1.4432980722,0.0003713782\C,-2.
 5233792687,-1.4214349858,-0.000350756\C,2.4570852406,-1.3753127728,-0.
 0002479153\C,-2.4598675272,1.3971762985,0.0002695126\C,3.7262365867,0.
 6706794803,0.0002198638\C,3.6855308175,-0.7048892087,-0.0000825222\C,-
 3.6883153859,0.7267576849,0.0000949092\C,-3.7290258553,-0.6488103232,-
 0.0002082275\H,2.4280441038,-2.4769759403,-0.0004906067\H,-2.430822578
 3,2.4988393598,0.0005097434\H,4.6990225465,1.1865380154,0.0003469847\H
 ,4.6212491856,-1.2857337449,-0.0001968949\H,-4.7018137153,-1.164665113
 6,-0.0003441696\H,-4.6240314936,1.3076058251,0.0002001436\N,2.63258930
 71,2.8059683267,0.0006722576\N,-2.6353996079,-2.7841040846,-0.00065231
 49\H,-1.8330694751,-3.3666078311,-0.000766003\H,-3.532549784,-3.196544
 129,-0.0007655967\H,1.8302499245,3.3884594194,0.0007821933\H,3.5297335
 459,3.2184213635,0.0007704743\\Version=AM64L-G09RevD.01\State=1-A\HF=-
 0.0176012\RMSD=8.650e-09\RMSF=2.741e-05\Dipole=-0.0000172,-0.0000002,0
 .0000697\PG=C01 [X(C14H10N2O2)]\\@


 HE THAT RISETH LATE MUST TROT ALL DAY.

                  -- BENJAMIN FRANKLIN
 Job cpu time:       0 days  0 hours  0 minutes  4.6 seconds.
 File lengths (MBytes):  RWF=    132 Int=      0 D2E=      0 Chk=      4 Scr=      2
 Normal termination of Gaussian 09 at Tue Apr 12 01:07:05 2022.
