 Entering Gaussian System, Link 0=g09
 Input=/scratch/mverot/binap-dedoubl-opt-pm3-freq/binap-dedoubl-opt-pm3-freq.com
 Output=/scratch/mverot/binap-dedoubl-opt-pm3-freq/binap-dedoubl-opt-pm3-freq.log
 Initial command:
 /opt/g09/l1.exe "/scratch/mverot/binap-dedoubl-opt-pm3-freq/Gau-1961386.inp" -scrdir="/scratch/mverot/binap-dedoubl-opt-pm3-freq/"
 Entering Link 1 = /opt/g09/l1.exe PID=   1961388.
  
 Copyright (c) 1988,1990,1992,1993,1995,1998,2003,2009,2013,
            Gaussian, Inc.  All Rights Reserved.
  
 This is part of the Gaussian(R) 09 program.  It is based on
 the Gaussian(R) 03 system (copyright 2003, Gaussian, Inc.),
 the Gaussian(R) 98 system (copyright 1998, Gaussian, Inc.),
 the Gaussian(R) 94 system (copyright 1995, Gaussian, Inc.),
 the Gaussian 92(TM) system (copyright 1992, Gaussian, Inc.),
 the Gaussian 90(TM) system (copyright 1990, Gaussian, Inc.),
 the Gaussian 88(TM) system (copyright 1988, Gaussian, Inc.),
 the Gaussian 86(TM) system (copyright 1986, Carnegie Mellon
 University), and the Gaussian 82(TM) system (copyright 1983,
 Carnegie Mellon University). Gaussian is a federally registered
 trademark of Gaussian, Inc.
  
 This software contains proprietary and confidential information,
 including trade secrets, belonging to Gaussian, Inc.
  
 This software is provided under written license and may be
 used, copied, transmitted, or stored only in accord with that
 written license.
  
 The following legend is applicable only to US Government
 contracts under FAR:
  
                    RESTRICTED RIGHTS LEGEND
  
 Use, reproduction and disclosure by the US Government is
 subject to restrictions as set forth in subparagraphs (a)
 and (c) of the Commercial Computer Software - Restricted
 Rights clause in FAR 52.227-19.
  
 Gaussian, Inc.
 340 Quinnipiac St., Bldg. 40, Wallingford CT 06492
  
  
 ---------------------------------------------------------------
 Warning -- This program may not be used in any manner that
 competes with the business of Gaussian, Inc. or will provide
 assistance to any competitor of Gaussian, Inc.  The licensee
 of this program is prohibited from giving any competitor of
 Gaussian, Inc. access to this program.  By using this program,
 the user acknowledges that Gaussian, Inc. is engaged in the
 business of creating and licensing software in the field of
 computational chemistry and represents and warrants to the
 licensee that it is not a competitor of Gaussian, Inc. and that
 it will not use this program in any manner prohibited above.
 ---------------------------------------------------------------
  

 Cite this work as:
 Gaussian 09, Revision D.01,
 M. J. Frisch, G. W. Trucks, H. B. Schlegel, G. E. Scuseria, 
 M. A. Robb, J. R. Cheeseman, G. Scalmani, V. Barone, B. Mennucci, 
 G. A. Petersson, H. Nakatsuji, M. Caricato, X. Li, H. P. Hratchian, 
 A. F. Izmaylov, J. Bloino, G. Zheng, J. L. Sonnenberg, M. Hada, 
 M. Ehara, K. Toyota, R. Fukuda, J. Hasegawa, M. Ishida, T. Nakajima, 
 Y. Honda, O. Kitao, H. Nakai, T. Vreven, J. A. Montgomery, Jr., 
 J. E. Peralta, F. Ogliaro, M. Bearpark, J. J. Heyd, E. Brothers, 
 K. N. Kudin, V. N. Staroverov, T. Keith, R. Kobayashi, J. Normand, 
 K. Raghavachari, A. Rendell, J. C. Burant, S. S. Iyengar, J. Tomasi, 
 M. Cossi, N. Rega, J. M. Millam, M. Klene, J. E. Knox, J. B. Cross, 
 V. Bakken, C. Adamo, J. Jaramillo, R. Gomperts, R. E. Stratmann, 
 O. Yazyev, A. J. Austin, R. Cammi, C. Pomelli, J. W. Ochterski, 
 R. L. Martin, K. Morokuma, V. G. Zakrzewski, G. A. Voth, 
 P. Salvador, J. J. Dannenberg, S. Dapprich, A. D. Daniels, 
 O. Farkas, J. B. Foresman, J. V. Ortiz, J. Cioslowski, 
 and D. J. Fox, Gaussian, Inc., Wallingford CT, 2013.
 
 ******************************************
 Gaussian 09:  AM64L-G09RevD.01 24-Apr-2013
                18-Apr-2022 
 ******************************************
 %chk=binap-dedoubl-opt-freq
 -----------
 #n PM3 freq
 -----------
 1/10=4,30=1,38=1/1,3;
 2/12=2,17=6,18=5,40=1/2;
 3/5=2,16=1,25=1,41=800000,71=2,140=1/1,2,3;
 4/35=1/1;
 5/5=2,35=1,38=5,98=1/2;
 8/6=4,10=90,11=11/1;
 11/6=1,8=1,9=11,15=111,16=1/1,2,10;
 10/6=1/2;
 6/7=2,8=2,9=2,10=2,18=1,28=1/1;
 7/8=1,10=1,25=1/1,2,3,16;
 1/10=4,30=1/3;
 99//99;
 ----------
 UV-spectra
 ----------
 Symbolic Z-matrix:
 Charge =  0 Multiplicity = 1
 Cl                   -2.94057  -8.44289  -2.3661 
 O                    -4.93804  -10.10501  -1.48731 
 O                     2.85582  -6.70011  -1.88697 
 O                    -0.58678  -7.07019  -2.87955 
 N                    -6.02801  -7.93106  -3.80431 
 N                    -7.50507  -14.13678  -2.90696 
 C                    -7.23884  -7.22937  -4.43731 
 C                    -8.29816  -6.93678  -3.3734 
 C                    -7.74353  -7.28798  -1.99289 
 C                    -7.45261  -8.78588  -1.92827 
 C                    -6.58154  -9.20904  -3.11788 
 C                    -6.43526  -6.50541  -1.77032 
 C                    -5.40401  -6.98125  -2.79932 
 C                    -5.99255  -6.60261  -0.34618 
 C                    -4.73964  -6.77645   0.0535 
 C                    -5.02291  -8.31852  -4.89393 
 C                    -4.53002  -7.17051  -5.71086 
 C                    -5.19466  -6.79171  -6.87998 
 C                    -4.68985  -5.75927  -7.65998 
 C                    -3.51762  -5.10924  -7.28327 
 C                    -2.84543  -5.49608  -6.12926 
 C                    -3.3458   -6.5281   -5.34156 
 C                    -5.50665  -10.29919  -2.742 
 C                    -6.20903  -11.64185  -2.79494 
 C                    -6.31681  -12.33279  -4.04685 
 C                    -5.78725  -11.82755  -5.26241 
 C                    -5.91451  -12.53602  -6.42759 
 C                    -6.58051  -13.78176  -6.44209 
 C                    -7.10407  -14.30394  -5.28855 
 C                    -6.97497  -13.58224  -4.06977 
 C                    -7.38659  -13.48447  -1.76328 
 C                    -6.73962  -12.21978  -1.67135 
 C                     2.67957  -6.19354  -3.14601 
 C                     3.61522  -6.47614  -4.18321 
 C                     3.43915  -5.93809  -5.42624 
 C                     2.32885  -5.0954   -5.69519 
 C                     2.14509  -4.53111  -6.98683 
 C                     1.07171  -3.72387  -7.24474 
 C                     0.13326  -3.44431  -6.2244 
 C                     0.28935  -3.97417  -4.97284 
 C                     1.39683  -4.81716  -4.67197 
 C                     1.5783   -5.37977  -3.37261 
 C                     0.59452  -5.11039  -2.30962 
 C                    -0.46851  -5.98128  -2.08606 
 C                    -1.41708  -5.71487  -1.05064 
 C                    -1.28067  -4.60912  -0.26353 
 C                    -0.20317  -3.70541  -0.4627 
 C                    -0.06069  -2.55534   0.3586 
 C                     0.98048  -1.68924   0.16557 
 C                     1.9256   -1.93467  -0.85674 
 C                     1.80932  -3.03517  -1.66054 
 C                     0.73712  -3.95564  -1.48553 
 H                    -6.8875   -6.29432  -4.92786 
 H                    -7.65019  -7.85755  -5.25665 
 H                    -8.59714  -5.87154  -3.41435 
 H                    -9.22099  -7.51569  -3.57266 
 H                    -8.48799  -7.01704  -1.2086 
 H                    -8.3924   -9.3712   -1.93268 
 H                    -6.95448  -9.02126  -0.96265 
 H                    -6.6398   -5.41841  -1.94573 
 H                    -4.43836  -7.48518  -2.32719 
 H                    -4.97492  -6.11656  -3.35152 
 H                    -6.80077  -6.4817    0.3872 
 H                    -3.899    -6.91737  -0.64006 
 H                    -4.46365  -6.81025   1.10311 
 H                    -6.10465  -7.3173   -7.19255 
 H                    -5.21086  -5.46314  -8.57654 
 H                    -3.11762  -4.29785  -7.90145 
 H                    -1.90679  -4.99544  -5.84127 
 H                    -2.80034  -6.85291  -4.43669 
 H                    -4.69116  -10.28892  -3.52224 
 H                    -5.25528  -10.85995  -5.24532 
 H                    -5.4937   -12.14609  -7.36061 
 H                    -6.66715  -14.3276  -7.38772 
 H                    -7.61731  -15.27326  -5.28959 
 H                    -7.81476  -13.97105  -0.87865 
 H                    -6.66669  -11.72909  -0.69255 
 H                    -4.1098   -9.59991  -1.63979 
 H                     4.47206  -7.12954  -3.97929 
 H                     4.15144  -6.1506   -6.23153 
 H                     2.87857  -4.75499  -7.76961 
 H                     0.92809  -3.2853   -8.2371 
 H                    -0.71789  -2.7927   -6.44895 
 H                    -0.43069  -3.75618  -4.17315 
 H                    -2.25646  -6.41758  -0.89445 
 H                    -2.00197  -4.40541   0.53625 
 H                    -0.79765  -2.37754   1.14967 
 H                     1.0949   -0.80313   0.79741 
 H                     2.75345  -1.23193  -0.99522 
 H                     2.54188  -3.22957  -2.45327 
 H                     3.55591  -7.33941  -1.92991 
 H                    -1.37398  -7.59483  -2.61538 
 H                    -7.23532  -9.69678  -3.89231 
 H                    -4.14851  -8.81972  -4.38575 
 H                    -5.47972  -9.10505  -5.54541 
 

 GradGradGradGradGradGradGradGradGradGradGradGradGradGradGradGradGradGrad
 Berny optimization.
 Initialization pass.
 Trust Radius=3.00D-01 FncErr=1.00D-07 GrdErr=1.00D-07
 Number of steps in this run=      2 maximum allowed number of steps=      2.
 GradGradGradGradGradGradGradGradGradGradGradGradGradGradGradGradGradGrad

 Stoichiometry    C46H43ClN2O3
 Framework group  C1[X(C46H43ClN2O3)]
 Deg. of freedom   279
 Full point group                 C1      NOp   1
 Largest Abelian subgroup         C1      NOp   1
 Largest concise Abelian subgroup C1      NOp   1
                         Standard orientation:                         
 ---------------------------------------------------------------------
 Center     Atomic      Atomic             Coordinates (Angstroms)
 Number     Number       Type             X           Y           Z
 ---------------------------------------------------------------------
      1         17           0       -0.622101   -0.715205   -1.193787
      2          8           0       -3.175361   -1.662414   -1.523099
      3          8           0        4.936779   -0.045952   -3.542385
      4          8           0        2.032088    0.055923   -1.414934
      5          7           0       -2.706820   -0.317118    1.518821
      6          7           0       -7.806961   -0.041415   -2.406786
      7          6           0       -3.203171   -0.218165    2.968992
      8          6           0       -3.768000   -1.563127    3.429103
      9          6           0       -3.507647   -2.618832    2.354646
     10          6           0       -4.253739   -2.238572    1.077436
     11          6           0       -3.922648   -0.794625    0.679428
     12          6           0       -1.995356   -2.668955    2.064845
     13          6           0       -1.568910   -1.319566    1.476588
     14          6           0       -1.653454   -3.856696    1.224610
     15          6           0       -0.794343   -3.854800    0.213827
     16          6           0       -2.245901    1.060448    1.031490
     17          6           0       -1.166630    1.675141    1.859485
     18          6           0       -1.482607    2.497695    2.943754
     19          6           0       -0.467368    3.109124    3.668057
     20          6           0        0.863017    2.911197    3.308255
     21          6           0        1.178800    2.106706    2.219091
     22          6           0        0.167584    1.489165    1.489719
     23          6           0       -3.793621   -0.595537   -0.879034
     24          6           0       -5.199971   -0.406966   -1.413365
     25          6           0       -5.789540    0.900152   -1.402228
     26          6           0       -5.117901    2.052445   -0.918074
     27          6           0       -5.729482    3.277724   -0.938971
     28          6           0       -7.043538    3.416572   -1.438568
     29          6           0       -7.724563    2.327852   -1.916406
     30          6           0       -7.100447    1.049847   -1.906156
     31          6           0       -7.239471   -1.235341   -2.413591
     32          6           0       -5.923891   -1.456091   -1.916615
     33          6           0        5.070581    0.959190   -2.623343
     34          6           0        5.549137    2.243971   -3.012447
     35          6           0        5.704234    3.226581   -2.076481
     36          6           0        5.393102    2.978345   -0.713828
     37          6           0        5.557024    3.997912    0.262967
     38          6           0        5.251529    3.757764    1.574184
     39          6           0        4.768063    2.488711    1.968774
     40          6           0        4.603492    1.490844    1.047527
     41          6           0        4.913814    1.708626   -0.325042
     42          6           0        4.749612    0.680844   -1.302032
     43          6           0        4.227137   -0.637580   -0.903124
     44          6           0        2.865465   -0.917205   -0.981504
     45          6           0        2.366514   -2.199823   -0.595791
     46          6           0        3.224286   -3.166260   -0.158688
     47          6           0        4.619389   -2.913516   -0.073877
     48          6           0        5.512129   -3.920984    0.379453
     49          6           0        6.855540   -3.674495    0.456444
     50          6           0        7.366091   -2.410103    0.083260
     51          6           0        6.526214   -1.424028   -0.356040
     52          6           0        5.123134   -1.648755   -0.447484
     53          1           0       -2.353832    0.106061    3.610790
     54          1           0       -3.962145    0.589510    3.051243
     55          1           0       -3.307189   -1.862675    4.390214
     56          1           0       -4.854193   -1.481808    3.629173
     57          1           0       -3.860525   -3.614035    2.712122
     58          1           0       -5.347632   -2.342008    1.213474
     59          1           0       -3.981206   -2.950231    0.267980
     60          1           0       -1.455095   -2.823240    3.033601
     61          1           0       -1.138557   -1.381491    0.371923
     62          1           0       -0.708989   -0.900117    2.043452
     63          1           0       -2.154441   -4.784928    1.529692
     64          1           0       -0.279766   -2.950258   -0.139109
     65          1           0       -0.556088   -4.752711   -0.348290
     66          1           0       -2.529937    2.675220    3.215096
     67          1           0       -0.715598    3.754202    4.517463
     68          1           0        1.663125    3.397427    3.877393
     69          1           0        2.230564    1.965773    1.921510
     70          1           0        0.415255    0.868439    0.609266
     71          1           0       -3.204373    0.346538   -1.076998
     72          1           0       -4.085803    1.943055   -0.540795
     73          1           0       -5.201676    4.165476   -0.574313
     74          1           0       -7.508353    4.408331   -1.444345
     75          1           0       -8.742770    2.427660   -2.311754
     76          1           0       -7.837804   -2.056455   -2.826430
     77          1           0       -5.503635   -2.469058   -1.954363
     78          1           0       -2.225770   -1.422733   -1.595017
     79          1           0        5.787063    2.439678   -4.064956
     80          1           0        6.069493    4.218670   -2.365207
     81          1           0        5.932109    4.977371   -0.054555
     82          1           0        5.378872    4.539227    2.329736
     83          1           0        4.532309    2.314198    3.023966
     84          1           0        4.235614    0.500598    1.346794
     85          1           0        1.280606   -2.397989   -0.661297
     86          1           0        2.846217   -4.153452    0.130991
     87          1           0        5.104947   -4.897931    0.662803
     88          1           0        7.546859   -4.448611    0.803318
     89          1           0        8.444094   -2.231534    0.149308
     90          1           0        6.919218   -0.442680   -0.648187
     91          1           0        5.052835    0.335063   -4.403798
     92          1           0        1.106391   -0.272344   -1.421266
     93          1           0       -4.772799   -0.127297    0.990820
     94          1           0       -1.881430    0.940005   -0.029949
     95          1           0       -3.133977    1.737826    0.966521
 ---------------------------------------------------------------------
 Rotational constants (GHZ):      0.0868135      0.0300483      0.0280624
 Standard basis: VSTO-6G (5D, 7F)
 There are   251 symmetry adapted cartesian basis functions of A   symmetry.
 There are   251 symmetry adapted basis functions of A   symmetry.
   251 basis functions,  1506 primitive gaussians,   251 cartesian basis functions
   131 alpha electrons      131 beta electrons
       nuclear repulsion energy      3507.7560494498 Hartrees.
 Integral buffers will be    131072 words long.
 Regular integral format.
 Two-electron integral symmetry is turned off.
 Do NDO integrals.
 One-electron integrals computed using PRISM.
 NBasis=   251 RedAO= F EigKep=  0.00D+00  NBF=   251
 NBsUse=   251 1.00D-04 EigRej=  0.00D+00 NBFU=   251
 Simple Huckel Guess.
 Overlap will be assumed to be unity.
 Keep J ints in memory in canonical form, NReq=1293887.
 Requested convergence on RMS density matrix=1.00D-08 within 128 cycles.
 Requested convergence on MAX density matrix=1.00D-06.
 Requested convergence on             energy=1.00D-06.
 No special actions if energy rises.
 SCF Done:  E(RPM3) =  0.388084111228E-01 A.U. after   16 cycles
            NFock= 15  Conv=0.93D-08     -V/T= 1.0002
 Range of M.O.s used for correlation:     1   251
 NBasis=   251 NAE=   131 NBE=   131 NFC=     0 NFV=     0
 NROrb=    251 NOA=   131 NOB=   131 NVA=   120 NVB=   120
 Symmetrizing basis deriv contribution to polar:
 IMax=3 JMax=2 DiffMx= 0.00D+00
 G2DrvN: will do    96 centers at a time, making    1 passes.
 Calling FoFCou, ICntrl=  3107 FMM=F I1Cent=   0 AccDes= 0.00D+00.
 End of G2Drv F.D. properties file   721 does not exist.
 End of G2Drv F.D. properties file   722 does not exist.
 End of G2Drv F.D. properties file   788 does not exist.
          IDoAtm=11111111111111111111111111111111111111111111111111
          IDoAtm=111111111111111111111111111111111111111111111
          Differentiating once with respect to electric field.
                with respect to dipole field.
          Differentiating once with respect to nuclear coordinates.
          Electric field/nuclear overlap derivatives assumed to be zero.
 Keep J ints in memory in canonical form, NReq=1117187.
          There are   288 degrees of freedom in the 1st order CPHF.  IDoFFX=5 NUNeed=   288.
 LinEq1:  Iter=  0 NonCon=   288 RMS=1.21D-01 Max=5.27D+00 NDo=   288
 AX will form   288 AO Fock derivatives at one time.
 LinEq1:  Iter=  1 NonCon=   288 RMS=2.08D-02 Max=6.69D-01 NDo=   288
 LinEq1:  Iter=  2 NonCon=   288 RMS=4.33D-03 Max=2.17D-01 NDo=   288
 LinEq1:  Iter=  3 NonCon=   288 RMS=1.12D-03 Max=6.56D-02 NDo=   288
 LinEq1:  Iter=  4 NonCon=   288 RMS=2.77D-04 Max=1.32D-02 NDo=   288
 LinEq1:  Iter=  5 NonCon=   288 RMS=6.44D-05 Max=2.70D-03 NDo=   288
 LinEq1:  Iter=  6 NonCon=   288 RMS=1.39D-05 Max=5.48D-04 NDo=   288
 LinEq1:  Iter=  7 NonCon=   270 RMS=3.24D-06 Max=1.33D-04 NDo=   288
 LinEq1:  Iter=  8 NonCon=   131 RMS=6.69D-07 Max=3.22D-05 NDo=   288
 LinEq1:  Iter=  9 NonCon=    11 RMS=1.49D-07 Max=5.88D-06 NDo=   288
 LinEq1:  Iter= 10 NonCon=     3 RMS=4.27D-08 Max=1.89D-06 NDo=   288
 LinEq1:  Iter= 11 NonCon=     3 RMS=1.00D-08 Max=3.68D-07 NDo=   288
 LinEq1:  Iter= 12 NonCon=     0 RMS=2.14D-09 Max=5.37D-08 NDo=   288
 Linear equations converged to 1.000D-08 1.000D-07 after    12 iterations.
 Isotropic polarizability for W=    0.000000      424.63 Bohr**3.
 End of Minotr F.D. properties file   721 does not exist.
 End of Minotr F.D. properties file   722 does not exist.
 End of Minotr F.D. properties file   788 does not exist.

 **********************************************************************

            Population analysis using the SCF density.

 **********************************************************************

 Orbital symmetries:
       Occupied  (A) (A) (A) (A) (A) (A) (A) (A) (A) (A) (A) (A)
                 (A) (A) (A) (A) (A) (A) (A) (A) (A) (A) (A) (A)
                 (A) (A) (A) (A) (A) (A) (A) (A) (A) (A) (A) (A)
                 (A) (A) (A) (A) (A) (A) (A) (A) (A) (A) (A) (A)
                 (A) (A) (A) (A) (A) (A) (A) (A) (A) (A) (A) (A)
                 (A) (A) (A) (A) (A) (A) (A) (A) (A) (A) (A) (A)
                 (A) (A) (A) (A) (A) (A) (A) (A) (A) (A) (A) (A)
                 (A) (A) (A) (A) (A) (A) (A) (A) (A) (A) (A) (A)
                 (A) (A) (A) (A) (A) (A) (A) (A) (A) (A) (A) (A)
                 (A) (A) (A) (A) (A) (A) (A) (A) (A) (A) (A) (A)
                 (A) (A) (A) (A) (A) (A) (A) (A) (A) (A) (A)
       Virtual   (A) (A) (A) (A) (A) (A) (A) (A) (A) (A) (A) (A)
                 (A) (A) (A) (A) (A) (A) (A) (A) (A) (A) (A) (A)
                 (A) (A) (A) (A) (A) (A) (A) (A) (A) (A) (A) (A)
                 (A) (A) (A) (A) (A) (A) (A) (A) (A) (A) (A) (A)
                 (A) (A) (A) (A) (A) (A) (A) (A) (A) (A) (A) (A)
                 (A) (A) (A) (A) (A) (A) (A) (A) (A) (A) (A) (A)
                 (A) (A) (A) (A) (A) (A) (A) (A) (A) (A) (A) (A)
                 (A) (A) (A) (A) (A) (A) (A) (A) (A) (A) (A) (A)
                 (A) (A) (A) (A) (A) (A) (A) (A) (A) (A) (A) (A)
                 (A) (A) (A) (A) (A) (A) (A) (A) (A) (A) (A) (A)
 The electronic state is 1-A.
 Alpha  occ. eigenvalues --   -2.04478  -1.65725  -1.54154  -1.52011  -1.48696
 Alpha  occ. eigenvalues --   -1.46359  -1.39815  -1.38967  -1.36396  -1.31911
 Alpha  occ. eigenvalues --   -1.30235  -1.26210  -1.24985  -1.23217  -1.20052
 Alpha  occ. eigenvalues --   -1.18996  -1.13747  -1.11473  -1.11060  -1.08051
 Alpha  occ. eigenvalues --   -1.07088  -1.06199  -1.02958  -1.02196  -1.00723
 Alpha  occ. eigenvalues --   -0.98878  -0.96996  -0.93832  -0.93204  -0.89467
 Alpha  occ. eigenvalues --   -0.85149  -0.83933  -0.82352  -0.81598  -0.81138
 Alpha  occ. eigenvalues --   -0.80777  -0.79778  -0.78722  -0.78386  -0.77925
 Alpha  occ. eigenvalues --   -0.77197  -0.75445  -0.73319  -0.72122  -0.70749
 Alpha  occ. eigenvalues --   -0.70206  -0.68663  -0.68031  -0.67564  -0.67209
 Alpha  occ. eigenvalues --   -0.66639  -0.65783  -0.65015  -0.64534  -0.64190
 Alpha  occ. eigenvalues --   -0.63966  -0.63494  -0.62954  -0.62658  -0.60840
 Alpha  occ. eigenvalues --   -0.60779  -0.59777  -0.59466  -0.59079  -0.58975
 Alpha  occ. eigenvalues --   -0.58715  -0.58357  -0.57941  -0.57375  -0.57080
 Alpha  occ. eigenvalues --   -0.56570  -0.56333  -0.55572  -0.55426  -0.55316
 Alpha  occ. eigenvalues --   -0.54872  -0.54463  -0.54051  -0.53895  -0.53824
 Alpha  occ. eigenvalues --   -0.53791  -0.53267  -0.53094  -0.52771  -0.52469
 Alpha  occ. eigenvalues --   -0.52147  -0.52053  -0.51730  -0.51220  -0.50627
 Alpha  occ. eigenvalues --   -0.50424  -0.50168  -0.49311  -0.49230  -0.48499
 Alpha  occ. eigenvalues --   -0.48202  -0.48009  -0.47673  -0.47466  -0.47388
 Alpha  occ. eigenvalues --   -0.47236  -0.46906  -0.46567  -0.46381  -0.45975
 Alpha  occ. eigenvalues --   -0.45769  -0.45562  -0.45313  -0.45058  -0.43977
 Alpha  occ. eigenvalues --   -0.43798  -0.42025  -0.41877  -0.41096  -0.40831
 Alpha  occ. eigenvalues --   -0.39654  -0.38334  -0.38255  -0.38110  -0.37901
 Alpha  occ. eigenvalues --   -0.37419  -0.37145  -0.36627  -0.36512  -0.36147
 Alpha  occ. eigenvalues --   -0.35720  -0.34916  -0.32939  -0.31635  -0.30009
 Alpha  occ. eigenvalues --   -0.28635
 Alpha virt. eigenvalues --   -0.03614  -0.02754  -0.01697  -0.00647  -0.00425
 Alpha virt. eigenvalues --   -0.00411   0.00666   0.01467   0.01785   0.02790
 Alpha virt. eigenvalues --    0.03357   0.03662   0.04010   0.05068   0.05071
 Alpha virt. eigenvalues --    0.05608   0.06089   0.06830   0.07180   0.07472
 Alpha virt. eigenvalues --    0.07686   0.08092   0.08325   0.08429   0.08571
 Alpha virt. eigenvalues --    0.08790   0.08899   0.09140   0.09507   0.09581
 Alpha virt. eigenvalues --    0.09681   0.09805   0.09861   0.09970   0.10179
 Alpha virt. eigenvalues --    0.10498   0.10633   0.10730   0.10781   0.10880
 Alpha virt. eigenvalues --    0.11212   0.11286   0.11311   0.11392   0.11473
 Alpha virt. eigenvalues --    0.11788   0.11915   0.12437   0.12554   0.12624
 Alpha virt. eigenvalues --    0.12702   0.12775   0.12825   0.12861   0.13041
 Alpha virt. eigenvalues --    0.13168   0.13291   0.13308   0.13470   0.13521
 Alpha virt. eigenvalues --    0.13752   0.13871   0.13998   0.14119   0.14283
 Alpha virt. eigenvalues --    0.14311   0.14413   0.14521   0.14679   0.14739
 Alpha virt. eigenvalues --    0.14876   0.14880   0.15237   0.15302   0.15337
 Alpha virt. eigenvalues --    0.15638   0.15820   0.15989   0.16003   0.16038
 Alpha virt. eigenvalues --    0.16276   0.16321   0.16456   0.16523   0.16736
 Alpha virt. eigenvalues --    0.16888   0.17128   0.17497   0.17597   0.18272
 Alpha virt. eigenvalues --    0.18455   0.18692   0.19089   0.19128   0.19292
 Alpha virt. eigenvalues --    0.19477   0.19805   0.20009   0.20230   0.20235
 Alpha virt. eigenvalues --    0.20367   0.20479   0.20688   0.20798   0.20968
 Alpha virt. eigenvalues --    0.21150   0.21272   0.21705   0.22023   0.22269
 Alpha virt. eigenvalues --    0.22473   0.22589   0.23171   0.23890   0.24476
 Alpha virt. eigenvalues --    0.24811   0.24925   0.24989   0.26073   0.27037
          Condensed to atoms (all electrons):
 Mulliken charges:
               1
     1  Cl  -0.759741
     2  O   -0.371662
     3  O   -0.209593
     4  O   -0.305782
     5  N    0.636406
     6  N   -0.055016
     7  C   -0.220256
     8  C   -0.104912
     9  C   -0.092086
    10  C   -0.114763
    11  C   -0.209813
    12  C   -0.010195
    13  C   -0.385049
    14  C   -0.169330
    15  C   -0.146672
    16  C   -0.202621
    17  C   -0.145364
    18  C   -0.099977
    19  C   -0.106500
    20  C   -0.074343
    21  C   -0.103877
    22  C   -0.068920
    23  C    0.146271
    24  C   -0.069865
    25  C   -0.063406
    26  C   -0.125831
    27  C   -0.083220
    28  C   -0.104344
    29  C   -0.058914
    30  C   -0.033044
    31  C   -0.055297
    32  C   -0.109653
    33  C    0.105500
    34  C   -0.170520
    35  C   -0.060352
    36  C   -0.072117
    37  C   -0.076946
    38  C   -0.121030
    39  C   -0.113026
    40  C   -0.096230
    41  C    0.014441
    42  C   -0.023228
    43  C   -0.117087
    44  C    0.172158
    45  C   -0.206182
    46  C   -0.055557
    47  C   -0.089224
    48  C   -0.075521
    49  C   -0.128738
    50  C   -0.096788
    51  C   -0.105295
    52  C    0.031390
    53  H    0.109435
    54  H    0.090274
    55  H    0.075953
    56  H    0.071452
    57  H    0.095106
    58  H    0.071544
    59  H    0.116353
    60  H    0.074473
    61  H    0.258069
    62  H    0.110286
    63  H    0.099702
    64  H    0.126649
    65  H    0.087418
    66  H    0.100008
    67  H    0.108156
    68  H    0.108800
    69  H    0.136682
    70  H    0.158752
    71  H    0.075447
    72  H    0.107229
    73  H    0.104971
    74  H    0.108306
    75  H    0.122105
    76  H    0.119248
    77  H    0.135119
    78  H    0.284454
    79  H    0.106594
    80  H    0.101850
    81  H    0.100912
    82  H    0.099813
    83  H    0.097383
    84  H    0.119943
    85  H    0.138803
    86  H    0.096857
    87  H    0.097524
    88  H    0.099084
    89  H    0.097472
    90  H    0.112894
    91  H    0.190206
    92  H    0.282641
    93  H    0.096175
    94  H    0.169250
    95  H    0.098330
 Sum of Mulliken charges =  -0.00000
 Mulliken charges with hydrogens summed into heavy atoms:
               1
     1  Cl  -0.759741
     2  O   -0.087207
     3  O   -0.019386
     4  O   -0.023142
     5  N    0.636406
     6  N   -0.055016
     7  C   -0.020547
     8  C    0.042492
     9  C    0.003020
    10  C    0.073133
    11  C   -0.113638
    12  C    0.064278
    13  C   -0.016693
    14  C   -0.069628
    15  C    0.067394
    16  C    0.064959
    17  C   -0.145364
    18  C    0.000031
    19  C    0.001656
    20  C    0.034457
    21  C    0.032805
    22  C    0.089832
    23  C    0.221718
    24  C   -0.069865
    25  C   -0.063406
    26  C   -0.018602
    27  C    0.021751
    28  C    0.003962
    29  C    0.063191
    30  C   -0.033044
    31  C    0.063951
    32  C    0.025466
    33  C    0.105500
    34  C   -0.063926
    35  C    0.041498
    36  C   -0.072117
    37  C    0.023966
    38  C   -0.021217
    39  C   -0.015643
    40  C    0.023713
    41  C    0.014441
    42  C   -0.023228
    43  C   -0.117087
    44  C    0.172158
    45  C   -0.067379
    46  C    0.041299
    47  C   -0.089224
    48  C    0.022003
    49  C   -0.029654
    50  C    0.000684
    51  C    0.007599
    52  C    0.031390
 APT charges:
               1
     1  Cl  -1.275034
     2  O   -0.650704
     3  O   -0.507833
     4  O   -0.893965
     5  N    0.224532
     6  N   -0.343818
     7  C   -0.137359
     8  C   -0.039494
     9  C   -0.015960
    10  C   -0.084572
    11  C   -0.121755
    12  C    0.095180
    13  C   -0.415990
    14  C   -0.138046
    15  C   -0.170640
    16  C   -0.025183
    17  C   -0.163215
    18  C   -0.070622
    19  C   -0.165307
    20  C   -0.015808
    21  C   -0.133672
    22  C   -0.102782
    23  C    0.503070
    24  C   -0.040506
    25  C   -0.118750
    26  C   -0.143013
    27  C   -0.048304
    28  C   -0.116632
    29  C   -0.068704
    30  C    0.066087
    31  C    0.171179
    32  C   -0.196886
    33  C    0.395769
    34  C   -0.126053
    35  C    0.001403
    36  C   -0.194292
    37  C   -0.025259
    38  C   -0.178122
    39  C   -0.062531
    40  C   -0.134756
    41  C    0.102068
    42  C   -0.100654
    43  C   -0.344624
    44  C    0.649015
    45  C   -0.234508
    46  C    0.089342
    47  C   -0.288573
    48  C    0.025980
    49  C   -0.223126
    50  C   -0.010665
    51  C   -0.128492
    52  C    0.175834
    53  H    0.089350
    54  H    0.060660
    55  H    0.043603
    56  H    0.036764
    57  H    0.052852
    58  H    0.035366
    59  H    0.102761
    60  H    0.007696
    61  H    0.490205
    62  H    0.094045
    63  H    0.076636
    64  H    0.164110
    65  H    0.082000
    66  H    0.088895
    67  H    0.103761
    68  H    0.106149
    69  H    0.172893
    70  H    0.179352
    71  H    0.025393
    72  H    0.116209
    73  H    0.100192
    74  H    0.111875
    75  H    0.126150
    76  H    0.104631
    77  H    0.142740
    78  H    0.562776
    79  H    0.107092
    80  H    0.098515
    81  H    0.095349
    82  H    0.101139
    83  H    0.092496
    84  H    0.113400
    85  H    0.190398
    86  H    0.087389
    87  H    0.087052
    88  H    0.101174
    89  H    0.090336
    90  H    0.100242
    91  H    0.203864
    92  H    0.670621
    93  H    0.054951
    94  H    0.202352
    95  H    0.083448
 Sum of APT charges =   0.00013
 APT charges with hydrogens summed into heavy atoms:
               1
     1  Cl  -1.275034
     2  O   -0.087928
     3  O   -0.303968
     4  O   -0.223345
     5  N    0.224532
     6  N   -0.343818
     7  C    0.012651
     8  C    0.040873
     9  C    0.036892
    10  C    0.053555
    11  C   -0.066804
    12  C    0.102876
    13  C    0.168259
    14  C   -0.061410
    15  C    0.075470
    16  C    0.260617
    17  C   -0.163215
    18  C    0.018272
    19  C   -0.061547
    20  C    0.090342
    21  C    0.039221
    22  C    0.076570
    23  C    0.528463
    24  C   -0.040506
    25  C   -0.118750
    26  C   -0.026804
    27  C    0.051888
    28  C   -0.004757
    29  C    0.057445
    30  C    0.066087
    31  C    0.275810
    32  C   -0.054146
    33  C    0.395769
    34  C   -0.018961
    35  C    0.099919
    36  C   -0.194292
    37  C    0.070090
    38  C   -0.076983
    39  C    0.029965
    40  C   -0.021356
    41  C    0.102068
    42  C   -0.100654
    43  C   -0.344624
    44  C    0.649015
    45  C   -0.044110
    46  C    0.176731
    47  C   -0.288573
    48  C    0.113032
    49  C   -0.121951
    50  C    0.079671
    51  C   -0.028250
    52  C    0.175834
 Charge=             -0.0000 electrons
 Dipole moment (field-independent basis, Debye):
    X=             -6.8147    Y=              2.3939    Z=              8.7978  Tot=             11.3830
 N-N= 3.507756049450D+03 E-N=-6.616096996374D+03  KE=-2.144544769800D+02
  Exact polarizability: 474.550  12.925 466.281  17.854  26.664 333.055
 Approx polarizability: 356.969  16.344 390.426  17.560  30.654 283.331
 Calling FoFJK, ICntrl=    100127 FMM=F ISym2X=0 I1Cent= 0 IOpClX= 0 NMat=1 NMatS=1 NMatT=0.
 Full mass-weighted force constant matrix:
 Low frequencies ---   -0.4616   -0.2992   -0.0582    0.1250    0.3311    0.5345
 Low frequencies ---    8.1780   13.8761   18.8166
 Diagonal vibrational polarizability:
      203.7566857     207.7509541      74.1468397
 Harmonic frequencies (cm**-1), IR intensities (KM/Mole), Raman scattering
 activities (A**4/AMU), depolarization ratios for plane and unpolarized
 incident light, reduced masses (AMU), force constants (mDyne/A),
 and normal coordinates:
                      1                      2                      3
                      A                      A                      A
 Frequencies --      8.1779                13.8761                18.8166
 Red. masses --      5.9678                 6.2119                 6.1550
 Frc consts  --      0.0002                 0.0007                 0.0013
 IR Inten    --      0.3482                 0.0591                 0.7475
  Atom  AN      X      Y      Z        X      Y      Z        X      Y      Z
     1  17    -0.00   0.00   0.01    -0.01  -0.07   0.06     0.03   0.06   0.09
     2   8     0.00  -0.03   0.04    -0.01  -0.05   0.04     0.05   0.04   0.02
     3   8    -0.01   0.09   0.00    -0.08   0.03  -0.02     0.11  -0.06  -0.01
     4   8    -0.00   0.01   0.02    -0.03  -0.03   0.05     0.03   0.04   0.06
     5   7     0.00   0.05   0.00    -0.02  -0.02   0.04    -0.05   0.02   0.04
     6   7    -0.01  -0.07   0.01     0.05   0.08  -0.05     0.05  -0.04  -0.11
     7   6     0.01   0.08   0.00    -0.04  -0.01   0.03    -0.09   0.01   0.03
     8   6     0.02   0.08   0.04    -0.05  -0.01   0.03    -0.09  -0.00   0.00
     9   6     0.02   0.06   0.06    -0.05  -0.01   0.04    -0.05   0.01   0.00
    10   6     0.01   0.03   0.05    -0.03  -0.01   0.03    -0.02   0.01  -0.01
    11   6     0.00   0.02   0.02    -0.01  -0.02   0.03    -0.02   0.01   0.00
    12   6     0.02   0.06   0.05    -0.04  -0.03   0.06    -0.04   0.02   0.04
    13   6     0.01   0.05   0.02    -0.03  -0.03   0.06    -0.04   0.03   0.06
    14   6     0.02   0.05   0.08    -0.04  -0.03   0.07    -0.01   0.03   0.05
    15   6     0.02   0.03   0.07     0.01  -0.04   0.10     0.02   0.05   0.07
    16   6    -0.01   0.04  -0.03     0.00  -0.03   0.04    -0.05   0.03   0.06
    17   6    -0.01   0.06  -0.04    -0.00  -0.04   0.05    -0.06   0.02   0.08
    18   6    -0.02   0.09  -0.06    -0.01  -0.03   0.04    -0.07  -0.00   0.09
    19   6    -0.02   0.11  -0.08    -0.01  -0.04   0.05    -0.07  -0.01   0.11
    20   6    -0.02   0.10  -0.06    -0.01  -0.05   0.06    -0.07   0.00   0.11
    21   6    -0.01   0.07  -0.04    -0.00  -0.05   0.07    -0.06   0.03   0.10
    22   6    -0.01   0.06  -0.03    -0.00  -0.05   0.06    -0.05   0.03   0.08
    23   6     0.00  -0.02   0.01     0.01  -0.03   0.03     0.01   0.03   0.01
    24   6    -0.00  -0.04   0.01     0.02   0.01   0.01     0.02   0.00  -0.03
    25   6    -0.01  -0.04  -0.02     0.07   0.03  -0.05    -0.01  -0.01  -0.01
    26   6    -0.01  -0.02  -0.05     0.11   0.02  -0.07    -0.06  -0.01   0.04
    27   6    -0.02  -0.03  -0.08     0.16   0.04  -0.13    -0.09  -0.02   0.06
    28   6    -0.02  -0.05  -0.08     0.18   0.08  -0.17    -0.08  -0.04   0.02
    29   6    -0.02  -0.06  -0.05     0.14   0.09  -0.14    -0.03  -0.05  -0.03
    30   6    -0.01  -0.06  -0.02     0.09   0.07  -0.08     0.00  -0.03  -0.05
    31   6    -0.00  -0.07   0.04     0.00   0.05   0.00     0.08  -0.02  -0.12
    32   6     0.00  -0.05   0.04    -0.01   0.02   0.03     0.07  -0.00  -0.08
    33   6    -0.00   0.05   0.04    -0.08   0.03  -0.02     0.09  -0.05  -0.02
    34   6     0.00   0.06   0.09    -0.11   0.04  -0.03     0.12  -0.06  -0.03
    35   6     0.00   0.03   0.12    -0.12   0.04  -0.03     0.10  -0.04  -0.05
    36   6     0.00  -0.02   0.11    -0.08   0.03  -0.02     0.05  -0.01  -0.05
    37   6     0.01  -0.06   0.15    -0.08   0.03  -0.02     0.02   0.01  -0.07
    38   6     0.01  -0.10   0.14    -0.05   0.02  -0.02    -0.03   0.04  -0.08
    39   6    -0.00  -0.12   0.10    -0.01   0.00  -0.01    -0.06   0.06  -0.07
    40   6    -0.01  -0.08   0.06    -0.01   0.00  -0.01    -0.03   0.04  -0.05
    41   6    -0.00  -0.03   0.07    -0.04   0.02  -0.02     0.02   0.00  -0.04
    42   6    -0.00   0.00   0.03    -0.04   0.02  -0.02     0.05  -0.02  -0.03
    43   6    -0.00  -0.01  -0.02    -0.01   0.00  -0.01     0.04  -0.01  -0.02
    44   6    -0.00  -0.01  -0.02    -0.01  -0.02   0.03     0.03   0.02   0.02
    45   6    -0.00  -0.02  -0.06     0.02  -0.02   0.04     0.02   0.02   0.03
    46   6     0.00  -0.04  -0.10     0.05  -0.01   0.01     0.01   0.00  -0.01
    47   6     0.00  -0.05  -0.11     0.05   0.01  -0.03     0.02  -0.02  -0.05
    48   6     0.01  -0.06  -0.16     0.07   0.02  -0.06     0.02  -0.05  -0.09
    49   6     0.01  -0.07  -0.17     0.07   0.04  -0.10     0.02  -0.07  -0.13
    50   6     0.01  -0.06  -0.12     0.05   0.04  -0.11     0.03  -0.07  -0.13
    51   6     0.00  -0.04  -0.07     0.02   0.03  -0.08     0.04  -0.05  -0.09
    52   6     0.00  -0.03  -0.07     0.02   0.02  -0.04     0.03  -0.03  -0.05
    53   1     0.01   0.10  -0.01    -0.04  -0.01   0.04    -0.11   0.01   0.05
    54   1     0.00   0.07  -0.01    -0.03  -0.01   0.02    -0.10  -0.00   0.01
    55   1     0.03   0.11   0.04    -0.07  -0.00   0.04    -0.11  -0.00   0.01
    56   1     0.02   0.08   0.04    -0.05   0.00   0.02    -0.10  -0.01  -0.03
    57   1     0.03   0.07   0.08    -0.06  -0.01   0.04    -0.05   0.00  -0.01
    58   1     0.02   0.02   0.06    -0.03  -0.00   0.02    -0.02  -0.00  -0.04
    59   1     0.01   0.01   0.07    -0.03  -0.02   0.04     0.01   0.02  -0.01
    60   1     0.03   0.09   0.05    -0.06  -0.03   0.07    -0.07   0.02   0.06
    61   1     0.01   0.03   0.02    -0.01  -0.04   0.07    -0.01   0.04   0.07
    62   1     0.01   0.07   0.01    -0.03  -0.04   0.07    -0.06   0.03   0.09
    63   1     0.03   0.05   0.10    -0.07  -0.02   0.04    -0.01   0.02   0.03
    64   1     0.01   0.02   0.05     0.04  -0.05   0.13     0.01   0.05   0.08
    65   1     0.02   0.02   0.09     0.01  -0.04   0.11     0.04   0.05   0.07
    66   1    -0.02   0.10  -0.07    -0.01  -0.02   0.03    -0.07  -0.01   0.09
    67   1    -0.03   0.13  -0.09    -0.01  -0.03   0.05    -0.08  -0.03   0.12
    68   1    -0.02   0.12  -0.07    -0.01  -0.05   0.07    -0.08  -0.00   0.13
    69   1    -0.01   0.06  -0.03    -0.00  -0.06   0.08    -0.06   0.04   0.10
    70   1    -0.00   0.03  -0.01     0.00  -0.05   0.07    -0.05   0.05   0.07
    71   1    -0.01  -0.02  -0.01     0.04  -0.05   0.03     0.00   0.04   0.03
    72   1    -0.01  -0.01  -0.05     0.09  -0.01  -0.04    -0.06   0.01   0.07
    73   1    -0.03  -0.02  -0.10     0.19   0.04  -0.15    -0.13  -0.02   0.10
    74   1    -0.03  -0.05  -0.10     0.22   0.10  -0.22    -0.11  -0.06   0.04
    75   1    -0.02  -0.08  -0.05     0.15   0.12  -0.17    -0.02  -0.07  -0.06
    76   1     0.00  -0.09   0.06    -0.02   0.06   0.02     0.12  -0.03  -0.16
    77   1     0.01  -0.05   0.06    -0.05   0.00   0.07     0.10   0.01  -0.10
    78   1     0.00  -0.02   0.03    -0.01  -0.07   0.04     0.05   0.05   0.05
    79   1     0.00   0.10   0.09    -0.14   0.05  -0.03     0.16  -0.08  -0.03
    80   1     0.01   0.04   0.16    -0.15   0.05  -0.03     0.12  -0.05  -0.06
    81   1     0.01  -0.05   0.19    -0.11   0.04  -0.03     0.04  -0.00  -0.08
    82   1     0.01  -0.13   0.17    -0.05   0.02  -0.02    -0.05   0.06  -0.09
    83   1    -0.00  -0.15   0.09     0.02  -0.01  -0.00    -0.10   0.08  -0.07
    84   1    -0.01  -0.09   0.02     0.02  -0.01  -0.00    -0.06   0.05  -0.04
    85   1    -0.00  -0.01  -0.05     0.02  -0.04   0.07     0.01   0.04   0.06
    86   1     0.00  -0.05  -0.14     0.07  -0.02   0.02     0.01   0.01  -0.01
    87   1     0.01  -0.08  -0.20     0.10   0.01  -0.05     0.01  -0.04  -0.09
    88   1     0.01  -0.09  -0.20     0.09   0.04  -0.12     0.02  -0.09  -0.16
    89   1     0.01  -0.06  -0.12     0.04   0.06  -0.14     0.04  -0.09  -0.16
    90   1     0.00  -0.03  -0.04    -0.00   0.04  -0.09     0.05  -0.06  -0.09
    91   1     0.00   0.12   0.02    -0.10   0.03  -0.02     0.16  -0.08  -0.01
    92   1    -0.00   0.01   0.01    -0.02  -0.04   0.05     0.03   0.05   0.08
    93   1     0.00   0.02   0.00    -0.01  -0.01   0.01    -0.04   0.01  -0.01
    94   1    -0.00   0.02  -0.03     0.02  -0.04   0.04    -0.04   0.04   0.06
    95   1    -0.01   0.03  -0.04     0.01  -0.02   0.02    -0.05   0.03   0.06
                      4                      5                      6
                      A                      A                      A
 Frequencies --     26.9431                34.2719                38.7254
 Red. masses --      5.4971                 5.8460                 6.0022
 Frc consts  --      0.0024                 0.0040                 0.0053
 IR Inten    --      0.9040                 0.1293                 0.2087
  Atom  AN      X      Y      Z        X      Y      Z        X      Y      Z
     1  17    -0.03   0.09  -0.01     0.01  -0.01  -0.03    -0.02  -0.06  -0.03
     2   8     0.00  -0.02   0.04    -0.00   0.02  -0.07    -0.04  -0.01  -0.05
     3   8     0.03  -0.00  -0.01     0.16  -0.08   0.05    -0.08   0.00   0.03
     4   8    -0.02   0.07  -0.04     0.03  -0.03   0.04    -0.03   0.04   0.15
     5   7     0.02  -0.03   0.04     0.02  -0.02  -0.03    -0.02  -0.03  -0.04
     6   7     0.01  -0.03   0.02    -0.05   0.05   0.14    -0.08   0.01   0.10
     7   6     0.05  -0.06   0.05     0.01  -0.03  -0.03    -0.03  -0.03  -0.04
     8   6     0.09  -0.08   0.05     0.01  -0.03  -0.05    -0.04  -0.02  -0.04
     9   6     0.07  -0.06   0.02     0.05  -0.03  -0.04    -0.03  -0.03  -0.03
    10   6     0.03  -0.04   0.05     0.07  -0.05  -0.06    -0.01  -0.03  -0.04
    11   6     0.01  -0.04   0.05     0.03  -0.03  -0.03    -0.02  -0.03  -0.04
    12   6     0.06  -0.03  -0.02     0.05  -0.00  -0.01    -0.03  -0.03  -0.02
    13   6     0.03  -0.01  -0.00     0.03  -0.00  -0.03    -0.02  -0.04  -0.03
    14   6     0.05  -0.01  -0.06     0.09  -0.01   0.02    -0.02  -0.04  -0.00
    15   6    -0.02   0.02  -0.11     0.06  -0.01  -0.01    -0.01  -0.05   0.01
    16   6    -0.02  -0.01   0.05    -0.00  -0.01  -0.03    -0.02  -0.04  -0.04
    17   6    -0.03   0.00   0.05    -0.03   0.02  -0.01    -0.03  -0.02  -0.03
    18   6    -0.04  -0.02   0.06    -0.07   0.03  -0.03    -0.06   0.00  -0.05
    19   6    -0.05  -0.01   0.07    -0.10   0.07  -0.03    -0.08   0.03  -0.05
    20   6    -0.04   0.02   0.06    -0.09   0.10  -0.01    -0.07   0.03  -0.02
    21   6    -0.03   0.04   0.04    -0.05   0.09   0.01    -0.04   0.01   0.01
    22   6    -0.03   0.03   0.04    -0.02   0.05   0.01    -0.03  -0.02   0.00
    23   6    -0.00  -0.03   0.05     0.01   0.01  -0.03    -0.03  -0.02  -0.04
    24   6    -0.00  -0.03   0.06    -0.01   0.02   0.01    -0.04  -0.00  -0.01
    25   6     0.02  -0.02  -0.01     0.02   0.03   0.02    -0.02   0.00  -0.00
    26   6     0.04  -0.01  -0.05     0.06   0.03  -0.04     0.01   0.00  -0.05
    27   6     0.08   0.00  -0.13     0.08   0.04  -0.02     0.03   0.01  -0.05
    28   6     0.09   0.01  -0.17     0.06   0.05   0.05     0.01   0.02   0.00
    29   6     0.07   0.00  -0.12     0.01   0.06   0.10    -0.03   0.02   0.06
    30   6     0.03  -0.01  -0.03    -0.01   0.05   0.08    -0.04   0.01   0.05
    31   6    -0.02  -0.04   0.10    -0.07   0.04   0.12    -0.09   0.01   0.09
    32   6    -0.03  -0.04   0.12    -0.04   0.03   0.05    -0.07  -0.00   0.04
    33   6     0.04  -0.00  -0.01     0.08  -0.05   0.03    -0.00  -0.00   0.02
    34   6     0.10  -0.02  -0.00     0.04  -0.04   0.02     0.08  -0.03   0.01
    35   6     0.11  -0.02  -0.00    -0.05  -0.01   0.00     0.16  -0.04   0.00
    36   6     0.07  -0.00  -0.01    -0.10   0.01  -0.00     0.15  -0.01   0.01
    37   6     0.08  -0.00  -0.01    -0.18   0.04  -0.02     0.22  -0.01  -0.00
    38   6     0.03   0.01  -0.02    -0.21   0.06  -0.03     0.18   0.03  -0.00
    39   6    -0.02   0.03  -0.02    -0.15   0.04  -0.01     0.07   0.07   0.00
    40   6    -0.04   0.04  -0.02    -0.08   0.01   0.00     0.02   0.07   0.02
    41   6     0.01   0.02  -0.02    -0.05  -0.00   0.01     0.06   0.03   0.02
    42   6     0.00   0.02  -0.01     0.02  -0.03   0.02     0.01   0.03   0.03
    43   6    -0.04   0.03  -0.02     0.03  -0.03   0.02    -0.00   0.04   0.06
    44   6    -0.04   0.06  -0.04     0.03  -0.03   0.02    -0.00   0.04   0.11
    45   6    -0.07   0.06  -0.06     0.03  -0.04  -0.01     0.01   0.04   0.14
    46   6    -0.10   0.04  -0.06     0.03  -0.05  -0.03     0.03   0.04   0.10
    47   6    -0.09   0.02  -0.03     0.03  -0.05  -0.02     0.03   0.03   0.03
    48   6    -0.12  -0.00  -0.01     0.03  -0.06  -0.04     0.05   0.02  -0.03
    49   6    -0.12  -0.03   0.02     0.03  -0.05  -0.03     0.06   0.01  -0.11
    50   6    -0.09  -0.03   0.04     0.03  -0.04  -0.00     0.05   0.01  -0.13
    51   6    -0.06  -0.02   0.02     0.03  -0.03   0.02     0.02   0.02  -0.07
    52   6    -0.06   0.01  -0.01     0.03  -0.04   0.01     0.02   0.03   0.01
    53   1     0.05  -0.05   0.04     0.01  -0.04  -0.02    -0.02  -0.03  -0.03
    54   1     0.03  -0.08   0.08     0.02  -0.03  -0.02    -0.02  -0.02  -0.04
    55   1     0.13  -0.09   0.03    -0.02  -0.03  -0.03    -0.06  -0.02  -0.03
    56   1     0.09  -0.10   0.09     0.00  -0.04  -0.08    -0.05  -0.01  -0.06
    57   1     0.10  -0.07   0.01     0.06  -0.04  -0.04    -0.04  -0.02  -0.03
    58   1     0.03  -0.05   0.08     0.07  -0.09  -0.09    -0.02  -0.04  -0.06
    59   1     0.00  -0.03   0.03     0.11  -0.03  -0.06     0.01  -0.03  -0.04
    60   1     0.09  -0.04  -0.04     0.04   0.03  -0.00    -0.04  -0.02  -0.01
    61   1     0.01   0.02  -0.01     0.02  -0.01  -0.03    -0.02  -0.05  -0.03
    62   1     0.04  -0.01  -0.01     0.03   0.01  -0.04    -0.02  -0.03  -0.03
    63   1     0.09  -0.03  -0.03     0.14  -0.03   0.06    -0.02  -0.04   0.01
    64   1    -0.06   0.04  -0.13     0.01   0.00  -0.05    -0.01  -0.05   0.00
    65   1    -0.03   0.03  -0.13     0.09  -0.02   0.02    -0.01  -0.05   0.02
    66   1    -0.04  -0.04   0.07    -0.08  -0.00  -0.05    -0.07  -0.00  -0.08
    67   1    -0.05  -0.02   0.08    -0.13   0.07  -0.04    -0.10   0.05  -0.07
    68   1    -0.05   0.03   0.06    -0.11   0.13  -0.00    -0.09   0.06  -0.02
    69   1    -0.03   0.07   0.04    -0.04   0.11   0.03    -0.04   0.01   0.03
    70   1    -0.02   0.05   0.03     0.01   0.04   0.02    -0.00  -0.03   0.02
    71   1    -0.01  -0.03   0.05     0.00   0.01  -0.02    -0.03  -0.02  -0.03
    72   1     0.03  -0.02  -0.01     0.08   0.02  -0.09     0.03  -0.01  -0.09
    73   1     0.09   0.01  -0.17     0.12   0.04  -0.07     0.06   0.01  -0.09
    74   1     0.12   0.03  -0.24     0.07   0.06   0.06     0.02   0.03   0.01
    75   1     0.08   0.01  -0.15    -0.01   0.07   0.16    -0.04   0.03   0.10
    76   1    -0.04  -0.05   0.15    -0.10   0.05   0.16    -0.12   0.01   0.13
    77   1    -0.04  -0.05   0.17    -0.06   0.02   0.05    -0.09  -0.01   0.03
    78   1    -0.01   0.01   0.02    -0.00   0.02  -0.05    -0.04  -0.02  -0.04
    79   1     0.13  -0.04   0.00     0.09  -0.06   0.03     0.08  -0.06   0.01
    80   1     0.16  -0.04   0.00    -0.08   0.00  -0.01     0.23  -0.07  -0.00
    81   1     0.12  -0.02  -0.01    -0.23   0.06  -0.04     0.30  -0.04  -0.01
    82   1     0.04   0.01  -0.02    -0.28   0.08  -0.04     0.24   0.03  -0.01
    83   1    -0.06   0.05  -0.03    -0.16   0.05  -0.01     0.03   0.11   0.00
    84   1    -0.08   0.05  -0.03    -0.04  -0.00   0.01    -0.06   0.10   0.02
    85   1    -0.07   0.08  -0.09     0.03  -0.04  -0.02     0.01   0.04   0.18
    86   1    -0.12   0.04  -0.08     0.03  -0.06  -0.06     0.04   0.04   0.12
    87   1    -0.14   0.00  -0.03     0.04  -0.06  -0.07     0.06   0.02  -0.01
    88   1    -0.14  -0.04   0.03     0.03  -0.06  -0.05     0.08   0.00  -0.16
    89   1    -0.09  -0.05   0.06     0.03  -0.04   0.01     0.05   0.00  -0.20
    90   1    -0.04  -0.02   0.04     0.02  -0.03   0.04     0.01   0.02  -0.09
    91   1     0.07  -0.01  -0.00     0.19  -0.10   0.05    -0.05  -0.01   0.03
    92   1    -0.03   0.09  -0.03     0.03  -0.03   0.02    -0.01   0.00   0.09
    93   1     0.01  -0.05   0.06     0.01  -0.06  -0.01    -0.02  -0.04  -0.02
    94   1    -0.02   0.01   0.05     0.02  -0.01  -0.02     0.00  -0.05  -0.04
    95   1    -0.03  -0.03   0.06    -0.01  -0.03  -0.05    -0.02  -0.04  -0.07
                      7                      8                      9
                      A                      A                      A
 Frequencies --     41.7137                48.2344                51.7281
 Red. masses --      4.6957                 5.7493                 4.5161
 Frc consts  --      0.0048                 0.0079                 0.0071
 IR Inten    --      0.1059                 0.2552                 0.1622
  Atom  AN      X      Y      Z        X      Y      Z        X      Y      Z
     1  17    -0.00  -0.04   0.04     0.01  -0.01   0.02    -0.00   0.05  -0.03
     2   8     0.00   0.00  -0.06    -0.03   0.08   0.00     0.01   0.07  -0.07
     3   8    -0.02   0.05  -0.06     0.13   0.01  -0.02    -0.04  -0.02   0.04
     4   8    -0.02  -0.02  -0.12     0.03  -0.06  -0.07     0.01   0.05   0.07
     5   7    -0.02  -0.01  -0.01    -0.04   0.03   0.01     0.01   0.02  -0.03
     6   7    -0.01   0.03   0.02    -0.09  -0.04   0.09    -0.03  -0.04   0.02
     7   6    -0.07  -0.00  -0.02    -0.03   0.02   0.01    -0.00   0.01  -0.03
     8   6    -0.11   0.00  -0.05    -0.03   0.02   0.01    -0.03   0.02  -0.06
     9   6    -0.01  -0.02  -0.01    -0.05   0.03  -0.00     0.05   0.01  -0.03
    10   6     0.07  -0.06  -0.06    -0.06   0.04   0.01     0.09  -0.03  -0.07
    11   6     0.01  -0.04  -0.04    -0.04   0.04   0.02     0.03  -0.00  -0.03
    12   6     0.02   0.03   0.09    -0.05   0.01  -0.02     0.06   0.05   0.04
    13   6    -0.00   0.01   0.04    -0.04   0.02   0.00     0.03   0.04  -0.02
    14   6     0.13  -0.01   0.19    -0.07   0.03  -0.06     0.14   0.02   0.13
    15   6     0.13  -0.01   0.19     0.00   0.04   0.00     0.07   0.02   0.06
    16   6    -0.03  -0.01  -0.00    -0.03   0.02   0.01     0.00   0.03  -0.02
    17   6    -0.03  -0.01   0.00    -0.01  -0.01   0.00     0.02   0.00  -0.02
    18   6    -0.04  -0.03   0.02     0.03  -0.05   0.04     0.06  -0.07   0.05
    19   6    -0.04  -0.03   0.02     0.06  -0.11   0.06     0.08  -0.14   0.07
    20   6    -0.04  -0.01   0.01     0.05  -0.14   0.03     0.07  -0.14   0.04
    21   6    -0.03   0.01  -0.00     0.01  -0.09  -0.01     0.04  -0.05  -0.04
    22   6    -0.03   0.01  -0.01    -0.02  -0.03  -0.03     0.02   0.02  -0.06
    23   6     0.01  -0.01  -0.03    -0.06   0.05   0.02    -0.00   0.04  -0.03
    24   6     0.01   0.01  -0.02    -0.07   0.02   0.04    -0.02   0.01  -0.00
    25   6     0.01   0.01  -0.00    -0.08   0.02   0.00    -0.03   0.00  -0.01
    26   6     0.03   0.01  -0.01    -0.07   0.04  -0.04    -0.04   0.02  -0.03
    27   6     0.04   0.01   0.02    -0.07   0.04  -0.12    -0.05   0.01  -0.06
    28   6     0.02   0.02   0.05    -0.06   0.02  -0.14    -0.04  -0.00  -0.08
    29   6     0.01   0.03   0.05    -0.07  -0.01  -0.07    -0.04  -0.02  -0.05
    30   6     0.00   0.02   0.02    -0.08  -0.01   0.01    -0.03  -0.02  -0.02
    31   6    -0.01   0.03  -0.00    -0.10  -0.04   0.15    -0.02  -0.03   0.05
    32   6    -0.01   0.02  -0.03    -0.08  -0.01   0.12    -0.01  -0.01   0.04
    33   6     0.00   0.02  -0.04     0.09   0.00  -0.01    -0.03  -0.01   0.02
    34   6     0.05   0.02  -0.01     0.10   0.01   0.01    -0.07   0.00   0.00
    35   6     0.08  -0.01   0.01     0.07   0.00   0.02    -0.08   0.01  -0.01
    36   6     0.06  -0.02   0.00     0.03  -0.01   0.01    -0.04   0.02  -0.00
    37   6     0.09  -0.05   0.02    -0.00  -0.02   0.03    -0.04   0.03  -0.02
    38   6     0.06  -0.06   0.02    -0.03  -0.03   0.02    -0.00   0.04  -0.01
    39   6    -0.00  -0.05  -0.02    -0.04  -0.04  -0.01     0.05   0.03   0.02
    40   6    -0.03  -0.02  -0.04    -0.02  -0.03  -0.02     0.05   0.01   0.03
    41   6     0.00  -0.01  -0.03     0.01  -0.01  -0.01     0.01   0.01   0.02
    42   6    -0.01   0.01  -0.05     0.04  -0.00  -0.03     0.00  -0.00   0.03
    43   6    -0.02   0.01  -0.06     0.05  -0.01  -0.04    -0.00   0.00   0.05
    44   6    -0.02  -0.01  -0.10     0.05  -0.04  -0.05    -0.01   0.03   0.06
    45   6    -0.01  -0.01  -0.11     0.08  -0.05  -0.04    -0.03   0.04   0.07
    46   6    -0.01  -0.00  -0.08     0.09  -0.02  -0.03    -0.05   0.03   0.06
    47   6    -0.02   0.02  -0.03     0.09   0.01  -0.01    -0.04  -0.01   0.03
    48   6    -0.02   0.04   0.02     0.10   0.03   0.02    -0.05  -0.03  -0.00
    49   6    -0.03   0.06   0.09     0.09   0.07   0.05    -0.04  -0.07  -0.05
    50   6    -0.04   0.06   0.09     0.07   0.08   0.04    -0.02  -0.08  -0.06
    51   6    -0.03   0.04   0.04     0.06   0.05   0.01    -0.01  -0.06  -0.02
    52   6    -0.02   0.02  -0.02     0.06   0.01  -0.02    -0.02  -0.02   0.02
    53   1    -0.09  -0.02   0.01    -0.03   0.02   0.01    -0.00  -0.01  -0.02
    54   1    -0.07   0.00  -0.05    -0.03   0.02   0.02     0.01   0.02  -0.03
    55   1    -0.19   0.02  -0.00    -0.02   0.01  -0.00    -0.10   0.03  -0.02
    56   1    -0.13  -0.00  -0.15    -0.03   0.02   0.02    -0.05   0.01  -0.13
    57   1     0.00  -0.02  -0.01    -0.05   0.03  -0.01     0.06   0.00  -0.03
    58   1     0.06  -0.13  -0.15    -0.06   0.05   0.02     0.09  -0.10  -0.13
    59   1     0.18  -0.05  -0.04    -0.07   0.05  -0.00     0.19  -0.00  -0.06
    60   1    -0.04   0.11   0.14    -0.04  -0.02  -0.03     0.03   0.13   0.07
    61   1     0.00  -0.02   0.05    -0.03   0.03   0.01     0.01   0.02  -0.03
    62   1    -0.01   0.05   0.03    -0.05   0.01   0.02     0.04   0.07  -0.05
    63   1     0.20  -0.03   0.26    -0.14   0.05  -0.14     0.27  -0.01   0.26
    64   1     0.06   0.00   0.12     0.07   0.03   0.08    -0.06   0.04  -0.06
    65   1     0.21  -0.04   0.27    -0.01   0.05  -0.03     0.13  -0.01   0.13
    66   1    -0.04  -0.04   0.02     0.04  -0.02   0.06     0.07  -0.07   0.08
    67   1    -0.05  -0.04   0.03     0.09  -0.15   0.09     0.11  -0.21   0.13
    68   1    -0.04  -0.01   0.02     0.07  -0.19   0.05     0.09  -0.20   0.06
    69   1    -0.03   0.03  -0.01     0.00  -0.10  -0.04     0.03  -0.05  -0.07
    70   1    -0.03   0.03  -0.02    -0.05   0.00  -0.06    -0.01   0.07  -0.11
    71   1     0.01  -0.01  -0.01    -0.08   0.07   0.02    -0.03   0.06  -0.02
    72   1     0.04  -0.00  -0.04    -0.08   0.05  -0.01    -0.05   0.03  -0.00
    73   1     0.05   0.00   0.01    -0.07   0.06  -0.16    -0.06   0.02  -0.08
    74   1     0.03   0.02   0.07    -0.05   0.02  -0.21    -0.05  -0.00  -0.12
    75   1     0.00   0.04   0.08    -0.07  -0.02  -0.08    -0.04  -0.03  -0.06
    76   1    -0.02   0.04  -0.00    -0.11  -0.06   0.22    -0.02  -0.05   0.08
    77   1    -0.01   0.02  -0.04    -0.07  -0.01   0.16    -0.00  -0.00   0.05
    78   1     0.01  -0.01  -0.03    -0.03   0.07   0.03     0.01   0.07  -0.06
    79   1     0.06   0.03  -0.00     0.14   0.01   0.02    -0.10  -0.00  -0.01
    80   1     0.12  -0.02   0.03     0.08   0.00   0.04    -0.11   0.02  -0.03
    81   1     0.14  -0.06   0.05     0.01  -0.01   0.05    -0.08   0.04  -0.04
    82   1     0.09  -0.08   0.03    -0.05  -0.04   0.03    -0.01   0.05  -0.02
    83   1    -0.03  -0.05  -0.02    -0.06  -0.05  -0.01     0.08   0.03   0.02
    84   1    -0.08  -0.01  -0.06    -0.02  -0.03  -0.04     0.09   0.00   0.05
    85   1    -0.01  -0.03  -0.13     0.08  -0.06  -0.04    -0.03   0.06   0.08
    86   1    -0.01  -0.01  -0.09     0.11  -0.03  -0.02    -0.06   0.03   0.07
    87   1    -0.02   0.03   0.02     0.12   0.03   0.03    -0.07  -0.02   0.01
    88   1    -0.04   0.08   0.13     0.11   0.09   0.08    -0.05  -0.09  -0.08
    89   1    -0.04   0.08   0.14     0.07   0.11   0.06    -0.01  -0.11  -0.09
    90   1    -0.03   0.05   0.04     0.04   0.05   0.00     0.01  -0.06  -0.02
    91   1     0.00   0.06  -0.05     0.16   0.01  -0.02    -0.07  -0.02   0.03
    92   1    -0.02  -0.01  -0.07     0.03  -0.07  -0.03     0.01   0.05   0.03
    93   1    -0.02  -0.08  -0.03    -0.04   0.05   0.03     0.01  -0.05  -0.01
    94   1    -0.02  -0.01   0.00    -0.04   0.02   0.00    -0.01   0.05  -0.02
    95   1    -0.03  -0.01  -0.01    -0.02   0.04   0.01     0.00   0.03   0.01
                     10                     11                     12
                      A                      A                      A
 Frequencies --     56.0299                57.7605                58.2598
 Red. masses --      5.3530                 4.8163                 4.7277
 Frc consts  --      0.0099                 0.0095                 0.0095
 IR Inten    --      0.7666                 0.1927                 0.3209
  Atom  AN      X      Y      Z        X      Y      Z        X      Y      Z
     1  17     0.02   0.08  -0.00    -0.01  -0.01   0.01     0.03  -0.03  -0.01
     2   8     0.03   0.06  -0.04    -0.01  -0.03   0.02     0.04  -0.05  -0.01
     3   8    -0.08   0.03  -0.09     0.14   0.04  -0.04     0.05   0.02  -0.01
     4   8     0.04  -0.05  -0.05    -0.01   0.02  -0.07     0.00   0.05  -0.03
     5   7     0.02   0.01  -0.01    -0.01  -0.02   0.01     0.02   0.04  -0.04
     6   7    -0.01  -0.03   0.04     0.01   0.02  -0.01    -0.01  -0.05   0.11
     7   6     0.01  -0.01  -0.01    -0.01  -0.01   0.01     0.00   0.08  -0.05
     8   6     0.02  -0.02  -0.03    -0.01  -0.01   0.01    -0.01   0.10  -0.02
     9   6     0.04  -0.01  -0.04    -0.01  -0.01   0.02    -0.04   0.07   0.00
    10   6     0.04  -0.00  -0.04    -0.01  -0.02   0.02    -0.03   0.07  -0.00
    11   6     0.02   0.01  -0.02    -0.01  -0.02   0.01     0.02   0.04  -0.04
    12   6     0.04   0.01  -0.03    -0.01  -0.01   0.02    -0.04   0.03  -0.00
    13   6     0.03   0.02  -0.02    -0.01  -0.02   0.01    -0.00   0.01  -0.01
    14   6     0.04   0.01  -0.04    -0.01  -0.02   0.03    -0.08   0.02  -0.00
    15   6    -0.01   0.03  -0.08    -0.02  -0.03   0.02    -0.04  -0.01   0.03
    16   6     0.00   0.02   0.01    -0.01  -0.02   0.00     0.06   0.02  -0.07
    17   6    -0.03   0.04   0.04     0.01  -0.02  -0.02     0.03   0.00  -0.02
    18   6    -0.09   0.04   0.02     0.04  -0.03  -0.01    -0.01   0.05  -0.07
    19   6    -0.12   0.06   0.06     0.06  -0.02  -0.04    -0.04  -0.01   0.01
    20   6    -0.11   0.07   0.11     0.05  -0.00  -0.10    -0.02  -0.12   0.15
    21   6    -0.05   0.06   0.13     0.02  -0.00  -0.11     0.03  -0.16   0.19
    22   6    -0.02   0.05   0.09    -0.00  -0.01  -0.07     0.05  -0.09   0.10
    23   6     0.02   0.03  -0.01    -0.00  -0.03   0.01     0.05  -0.02  -0.05
    24   6     0.01   0.01  -0.00     0.00  -0.01   0.00     0.05  -0.03  -0.05
    25   6    -0.00   0.01  -0.01     0.01  -0.01   0.01     0.04  -0.03  -0.03
    26   6    -0.01   0.02  -0.03     0.02  -0.01   0.01     0.08  -0.02  -0.09
    27   6    -0.02   0.01  -0.04     0.03  -0.01   0.03     0.06  -0.03  -0.06
    28   6    -0.02  -0.00  -0.03     0.03   0.01   0.03     0.02  -0.04   0.05
    29   6    -0.02  -0.02  -0.00     0.03   0.02   0.02    -0.01  -0.05   0.11
    30   6    -0.01  -0.01   0.01     0.02   0.01   0.00     0.01  -0.05   0.07
    31   6     0.00  -0.02   0.04     0.00   0.02  -0.02     0.00  -0.05   0.06
    32   6     0.02   0.00   0.02    -0.01  -0.00  -0.01     0.04  -0.03  -0.02
    33   6    -0.06   0.01  -0.06     0.09   0.03  -0.02     0.03   0.02  -0.01
    34   6    -0.11   0.03  -0.04     0.11   0.04   0.03     0.02   0.02  -0.00
    35   6    -0.09   0.00  -0.01     0.06   0.03   0.05    -0.00   0.02  -0.00
    36   6    -0.02  -0.05  -0.01    -0.01   0.01   0.03    -0.01   0.02  -0.01
    37   6     0.00  -0.08   0.02    -0.06  -0.01   0.06    -0.03   0.03  -0.01
    38   6     0.04  -0.12   0.02    -0.10  -0.04   0.04    -0.02   0.02  -0.01
    39   6     0.05  -0.13  -0.01    -0.09  -0.06   0.00    -0.00   0.01  -0.01
    40   6     0.03  -0.10  -0.03    -0.05  -0.04  -0.02     0.01   0.01  -0.01
    41   6     0.01  -0.06  -0.03    -0.02  -0.00  -0.01     0.00   0.02  -0.01
    42   6     0.00  -0.04  -0.06     0.02   0.01  -0.04     0.01   0.02  -0.01
    43   6     0.03  -0.05  -0.05    -0.01   0.02  -0.05    -0.01   0.02  -0.02
    44   6     0.03  -0.04  -0.01    -0.02   0.04  -0.01    -0.01   0.04  -0.03
    45   6     0.03  -0.01   0.07    -0.04   0.09   0.11    -0.04   0.05  -0.02
    46   6     0.03   0.01   0.13    -0.06   0.10   0.18    -0.05   0.04  -0.01
    47   6     0.03   0.01   0.09    -0.04   0.06   0.10    -0.05   0.02  -0.01
    48   6     0.03   0.04   0.16    -0.06   0.07   0.13    -0.07   0.00  -0.00
    49   6     0.04   0.03   0.09    -0.04   0.02   0.01    -0.07  -0.02   0.00
    50   6     0.04  -0.02  -0.05    -0.01  -0.05  -0.16    -0.04  -0.03  -0.00
    51   6     0.04  -0.05  -0.11     0.00  -0.05  -0.18    -0.02  -0.02  -0.01
    52   6     0.04  -0.03  -0.03    -0.02   0.01  -0.04    -0.03   0.01  -0.01
    53   1     0.01  -0.01  -0.00    -0.01  -0.01   0.01    -0.00   0.09  -0.05
    54   1     0.01  -0.02  -0.00    -0.00  -0.01   0.01     0.01   0.09  -0.09
    55   1     0.02  -0.03  -0.03    -0.02  -0.00   0.02    -0.01   0.11  -0.02
    56   1     0.02  -0.04  -0.03    -0.01  -0.00   0.01    -0.01   0.12  -0.01
    57   1     0.04  -0.02  -0.05    -0.01  -0.01   0.02    -0.07   0.09   0.03
    58   1     0.04  -0.02  -0.05    -0.01  -0.02   0.01    -0.04   0.11   0.01
    59   1     0.06   0.01  -0.05    -0.01  -0.02   0.02    -0.07   0.03   0.02
    60   1     0.04   0.00  -0.03    -0.01  -0.00   0.02    -0.05   0.01  -0.00
    61   1     0.03   0.03  -0.02    -0.01  -0.02   0.01     0.02  -0.01   0.00
    62   1     0.02   0.02  -0.01    -0.01  -0.02   0.00    -0.01  -0.01   0.01
    63   1     0.08   0.00  -0.01     0.00  -0.02   0.05    -0.14   0.04  -0.03
    64   1    -0.05   0.05  -0.11    -0.04  -0.02   0.01     0.01  -0.03   0.05
    65   1    -0.00   0.04  -0.09    -0.02  -0.03   0.03    -0.07  -0.02   0.02
    66   1    -0.10   0.03  -0.03     0.05  -0.04   0.03    -0.02   0.14  -0.18
    67   1    -0.16   0.06   0.04     0.09  -0.02  -0.03    -0.07   0.03  -0.03
    68   1    -0.14   0.08   0.15     0.07   0.01  -0.13    -0.03  -0.18   0.22
    69   1    -0.04   0.07   0.18     0.01   0.00  -0.14     0.04  -0.23   0.28
    70   1     0.02   0.05   0.10    -0.03  -0.02  -0.07     0.08  -0.12   0.13
    71   1     0.00   0.05   0.00     0.00  -0.03   0.00     0.07  -0.03  -0.07
    72   1    -0.00   0.03  -0.03     0.02  -0.02   0.01     0.11  -0.01  -0.17
    73   1    -0.02   0.02  -0.06     0.04  -0.02   0.03     0.09  -0.02  -0.11
    74   1    -0.03  -0.01  -0.04     0.04   0.01   0.04     0.01  -0.05   0.09
    75   1    -0.03  -0.03   0.01     0.03   0.03   0.02    -0.04  -0.07   0.20
    76   1     0.00  -0.03   0.07    -0.00   0.03  -0.03    -0.01  -0.05   0.09
    77   1     0.03   0.00   0.03    -0.01  -0.00  -0.02     0.04  -0.03  -0.04
    78   1     0.03   0.07  -0.03    -0.01  -0.03   0.01     0.04  -0.06  -0.01
    79   1    -0.17   0.07  -0.04     0.17   0.05   0.04     0.03   0.02  -0.00
    80   1    -0.12   0.02   0.00     0.07   0.03   0.08    -0.01   0.03  -0.00
    81   1    -0.01  -0.06   0.04    -0.06   0.00   0.09    -0.05   0.03  -0.01
    82   1     0.06  -0.15   0.04    -0.14  -0.05   0.06    -0.04   0.02  -0.01
    83   1     0.07  -0.17  -0.01    -0.11  -0.08  -0.01     0.01   0.00  -0.01
    84   1     0.03  -0.11  -0.05    -0.05  -0.05  -0.05     0.03   0.00  -0.01
    85   1     0.02  -0.01   0.09    -0.04   0.10   0.15    -0.04   0.06  -0.02
    86   1     0.02   0.04   0.22    -0.08   0.15   0.30    -0.07   0.05  -0.01
    87   1     0.03   0.07   0.27    -0.08   0.12   0.26    -0.09   0.01   0.00
    88   1     0.04   0.05   0.15    -0.05   0.02   0.03    -0.08  -0.03   0.01
    89   1     0.05  -0.04  -0.12     0.01  -0.09  -0.27    -0.04  -0.05   0.00
    90   1     0.05  -0.08  -0.22     0.02  -0.09  -0.30    -0.01  -0.02  -0.01
    91   1    -0.15   0.07  -0.08     0.18   0.06  -0.03     0.05   0.02  -0.01
    92   1     0.03  -0.02  -0.01    -0.01   0.02  -0.04    -0.00   0.05  -0.03
    93   1     0.02  -0.01  -0.01    -0.01  -0.02   0.00     0.04   0.08  -0.08
    94   1     0.03   0.03   0.01    -0.03  -0.02  -0.00     0.09  -0.02  -0.05
    95   1    -0.01   0.00  -0.01    -0.01  -0.01   0.02     0.07   0.03  -0.12
                     13                     14                     15
                      A                      A                      A
 Frequencies --     74.2525                78.0830                95.3716
 Red. masses --      4.7015                 5.0297                 5.7554
 Frc consts  --      0.0153                 0.0181                 0.0308
 IR Inten    --      1.2828                 2.6274                 1.0084
  Atom  AN      X      Y      Z        X      Y      Z        X      Y      Z
     1  17    -0.01  -0.07  -0.05     0.06   0.02   0.11    -0.01  -0.09  -0.05
     2   8    -0.06   0.06  -0.02     0.05   0.09  -0.04    -0.05  -0.04   0.03
     3   8     0.05  -0.01   0.00     0.07   0.01   0.00     0.31  -0.07   0.04
     4   8    -0.02   0.00   0.00     0.05   0.06  -0.03    -0.01   0.02   0.00
     5   7     0.05  -0.02  -0.01    -0.02  -0.05   0.03     0.00   0.00  -0.01
     6   7     0.00   0.03  -0.11    -0.02  -0.03   0.06    -0.01   0.02  -0.04
     7   6     0.09  -0.01   0.01    -0.06  -0.07   0.02     0.03   0.02  -0.00
     8   6     0.06  -0.00   0.01    -0.11  -0.07  -0.04     0.03   0.03   0.03
     9   6     0.06  -0.01   0.02    -0.08  -0.06  -0.05     0.00   0.02   0.03
    10   6     0.06  -0.02   0.01    -0.02  -0.03  -0.08    -0.03   0.01   0.05
    11   6     0.02  -0.01   0.03    -0.01  -0.02  -0.01    -0.02   0.00   0.02
    12   6     0.05  -0.02   0.02    -0.07  -0.07   0.00    -0.01   0.01   0.00
    13   6     0.04  -0.03  -0.03    -0.03  -0.06   0.05    -0.01  -0.01  -0.03
    14   6     0.07  -0.04   0.07    -0.06  -0.05  -0.03    -0.03  -0.01   0.01
    15   6     0.05  -0.06   0.05     0.02  -0.03   0.03     0.01  -0.04   0.04
    16   6     0.05  -0.03  -0.02    -0.00  -0.05   0.06     0.01  -0.01  -0.04
    17   6     0.03  -0.02  -0.00     0.01  -0.05   0.04    -0.01   0.01  -0.02
    18   6    -0.01   0.10  -0.10     0.03   0.04  -0.02    -0.06  -0.07   0.04
    19   6    -0.03   0.11  -0.08     0.03   0.13  -0.11    -0.09  -0.08   0.08
    20   6    -0.01  -0.01   0.05     0.03   0.11  -0.12    -0.08   0.02   0.07
    21   6     0.03  -0.13   0.15     0.02  -0.01  -0.03    -0.04   0.12   0.00
    22   6     0.05  -0.13   0.12     0.01  -0.09   0.05    -0.01   0.11  -0.04
    23   6    -0.05   0.04   0.03     0.01   0.04  -0.00    -0.03  -0.02   0.01
    24   6    -0.06   0.03   0.05     0.00   0.02   0.01    -0.03  -0.01   0.01
    25   6    -0.07   0.03   0.03    -0.01   0.01   0.01    -0.02  -0.00   0.00
    26   6    -0.11   0.03   0.10    -0.02   0.02   0.00    -0.02  -0.01   0.01
    27   6    -0.12   0.03   0.06    -0.02   0.02  -0.04    -0.01  -0.01   0.02
    28   6    -0.07   0.03  -0.06    -0.02   0.01  -0.06    -0.00   0.01   0.01
    29   6    -0.03   0.04  -0.13    -0.02  -0.01  -0.02    -0.00   0.02  -0.01
    30   6    -0.03   0.03  -0.07    -0.02  -0.01   0.02    -0.01   0.01  -0.02
    31   6    -0.01   0.03  -0.04    -0.01  -0.02   0.08    -0.03   0.02  -0.03
    32   6    -0.04   0.03   0.04     0.01   0.00   0.04    -0.04   0.00  -0.01
    33   6     0.03  -0.00  -0.00     0.02   0.02  -0.01     0.08  -0.00   0.00
    34   6     0.04  -0.01   0.01    -0.06   0.05  -0.02    -0.07   0.04  -0.02
    35   6     0.03  -0.00   0.01    -0.09   0.06  -0.03    -0.16   0.07  -0.04
    36   6    -0.00   0.00   0.00    -0.02   0.04  -0.02    -0.06   0.04  -0.02
    37   6    -0.01   0.00   0.00    -0.02   0.04  -0.02     0.04   0.01  -0.01
    38   6    -0.02   0.00  -0.00     0.05   0.02  -0.00     0.19  -0.04   0.02
    39   6    -0.02  -0.00  -0.00     0.12  -0.01   0.01     0.20  -0.04   0.02
    40   6    -0.01   0.00  -0.01     0.12  -0.01   0.01     0.09  -0.01   0.00
    41   6    -0.01   0.00  -0.01     0.05   0.01  -0.00    -0.00   0.02  -0.01
    42   6    -0.00   0.01  -0.01     0.05   0.01  -0.00     0.02   0.01  -0.01
    43   6    -0.01   0.01  -0.01     0.03   0.02  -0.01     0.00   0.02  -0.01
    44   6    -0.01   0.01  -0.00     0.03   0.04  -0.02    -0.00   0.03  -0.01
    45   6    -0.01   0.01  -0.00    -0.00   0.05  -0.03    -0.01   0.03  -0.01
    46   6    -0.01   0.01   0.00    -0.03   0.03  -0.03    -0.01   0.02  -0.01
    47   6    -0.01   0.01   0.00    -0.03   0.00  -0.01    -0.01   0.01  -0.01
    48   6    -0.01   0.02   0.01    -0.06  -0.03  -0.01    -0.02   0.01  -0.00
    49   6    -0.01   0.02   0.00    -0.06  -0.06   0.02    -0.02   0.00   0.00
    50   6    -0.01   0.01  -0.02    -0.02  -0.07   0.03    -0.01  -0.00  -0.00
    51   6    -0.01   0.01  -0.02     0.01  -0.04   0.03    -0.01   0.00  -0.01
    52   6    -0.01   0.01  -0.01     0.01  -0.01   0.00    -0.01   0.01  -0.01
    53   1     0.12  -0.04  -0.01    -0.07  -0.10   0.05     0.04   0.02  -0.02
    54   1     0.12   0.01   0.03    -0.05  -0.05   0.02     0.03   0.02   0.00
    55   1     0.05  -0.01   0.02    -0.16  -0.10  -0.03     0.06   0.04   0.02
    56   1     0.06   0.02  -0.00    -0.12  -0.06  -0.09     0.04   0.04   0.06
    57   1     0.05  -0.01   0.03    -0.11  -0.06  -0.08     0.00   0.02   0.05
    58   1     0.06  -0.06   0.00    -0.03  -0.03  -0.13    -0.03   0.03   0.08
    59   1     0.08  -0.01   0.01     0.02  -0.00  -0.08    -0.07  -0.00   0.05
    60   1     0.06   0.02   0.03    -0.11  -0.11   0.02     0.01   0.02  -0.01
    61   1     0.00  -0.06  -0.04     0.01  -0.04   0.07    -0.02  -0.03  -0.04
    62   1     0.06  -0.03  -0.07    -0.05  -0.09   0.10     0.01  -0.00  -0.05
    63   1     0.11  -0.05   0.12    -0.10  -0.05  -0.10    -0.07   0.01  -0.00
    64   1     0.01  -0.06  -0.01     0.06  -0.03   0.11     0.04  -0.05   0.05
    65   1     0.07  -0.08   0.09     0.03  -0.01   0.01    -0.00  -0.05   0.05
    66   1    -0.02   0.18  -0.20     0.03   0.04  -0.01    -0.07  -0.13   0.04
    67   1    -0.06   0.21  -0.17     0.04   0.22  -0.18    -0.12  -0.16   0.14
    68   1    -0.03  -0.01   0.08     0.03   0.20  -0.20    -0.11   0.02   0.10
    69   1     0.04  -0.22   0.25     0.02  -0.04  -0.03    -0.03   0.20  -0.01
    70   1     0.08  -0.20   0.18     0.00  -0.17   0.10     0.02   0.17  -0.07
    71   1    -0.06   0.05   0.04    -0.02   0.07   0.04    -0.02  -0.04  -0.01
    72   1    -0.14   0.03   0.17    -0.03   0.02   0.03    -0.02  -0.02   0.00
    73   1    -0.15   0.02   0.12    -0.03   0.03  -0.05    -0.01  -0.01   0.03
    74   1    -0.07   0.03  -0.10    -0.01   0.01  -0.09     0.00   0.01   0.02
    75   1     0.01   0.04  -0.22    -0.02  -0.02  -0.03     0.00   0.03  -0.02
    76   1     0.01   0.03  -0.07    -0.02  -0.04   0.12    -0.03   0.03  -0.05
    77   1    -0.04   0.03   0.07     0.02   0.01   0.05    -0.05  -0.00   0.00
    78   1    -0.06   0.04  -0.02     0.05   0.09   0.02    -0.05  -0.06   0.01
    79   1     0.07  -0.01   0.01    -0.10   0.06  -0.03    -0.11   0.06  -0.03
    80   1     0.04  -0.00   0.01    -0.16   0.08  -0.04    -0.29   0.11  -0.06
    81   1    -0.01   0.00   0.00    -0.08   0.06  -0.03     0.00   0.02  -0.01
    82   1    -0.03   0.00   0.00     0.06   0.02  -0.00     0.30  -0.08   0.04
    83   1    -0.01  -0.00  -0.00     0.17  -0.02   0.02     0.30  -0.08   0.04
    84   1    -0.01  -0.00  -0.01     0.16  -0.02   0.02     0.09  -0.01   0.00
    85   1    -0.01   0.00  -0.00    -0.01   0.07  -0.03    -0.01   0.03  -0.02
    86   1    -0.01   0.01   0.01    -0.06   0.04  -0.04    -0.02   0.02  -0.02
    87   1    -0.01   0.02   0.02    -0.09  -0.02  -0.02    -0.03   0.01  -0.00
    88   1    -0.01   0.02   0.01    -0.08  -0.08   0.02    -0.03  -0.00   0.01
    89   1    -0.01   0.01  -0.02    -0.02  -0.09   0.05    -0.01  -0.01   0.00
    90   1    -0.01   0.01  -0.03     0.04  -0.05   0.04     0.00  -0.00  -0.01
    91   1     0.07  -0.01   0.00     0.00   0.02  -0.00     0.22  -0.08   0.03
    92   1    -0.02  -0.01  -0.01     0.04   0.08   0.01    -0.01   0.00  -0.01
    93   1     0.02  -0.03   0.08    -0.01  -0.03   0.00    -0.01   0.02   0.01
    94   1     0.05  -0.03  -0.02    -0.00  -0.04   0.05     0.02  -0.04  -0.03
    95   1     0.05  -0.03  -0.02     0.00  -0.04   0.06     0.01  -0.01  -0.06
                     16                     17                     18
                      A                      A                      A
 Frequencies --     97.0245               105.3090               114.2975
 Red. masses --      5.2316                 7.0480                 5.5839
 Frc consts  --      0.0290                 0.0461                 0.0430
 IR Inten    --      1.4747                 0.2192                 3.2035
  Atom  AN      X      Y      Z        X      Y      Z        X      Y      Z
     1  17    -0.07   0.15  -0.00     0.01  -0.04  -0.03    -0.05   0.05   0.02
     2   8    -0.02  -0.06   0.03    -0.02  -0.02   0.02     0.02   0.02  -0.06
     3   8     0.12  -0.05   0.02    -0.05   0.08  -0.11     0.14  -0.08   0.00
     4   8    -0.00  -0.01   0.04    -0.00   0.19   0.42    -0.09   0.04   0.18
     5   7    -0.08   0.01   0.01    -0.02   0.00  -0.00     0.04   0.00  -0.00
     6   7    -0.02   0.04  -0.02    -0.01   0.01  -0.01     0.03  -0.05   0.04
     7   6    -0.08  -0.00   0.01    -0.00   0.00   0.00     0.01  -0.01  -0.01
     8   6     0.01  -0.03   0.03     0.02   0.00   0.02    -0.06   0.01  -0.06
     9   6     0.04  -0.02   0.03    -0.00   0.00   0.01    -0.02   0.00  -0.04
    10   6     0.01  -0.06   0.03    -0.02   0.00   0.03     0.04   0.01  -0.07
    11   6    -0.05  -0.05   0.01    -0.02  -0.00   0.01     0.05   0.02  -0.04
    12   6     0.04   0.04   0.01    -0.00   0.00  -0.01    -0.01  -0.01   0.01
    13   6    -0.03   0.06   0.01    -0.01   0.00  -0.01     0.02  -0.02   0.02
    14   6     0.09   0.06   0.01    -0.00   0.01  -0.01    -0.01  -0.03   0.03
    15   6     0.03   0.12  -0.05     0.05   0.00   0.03    -0.11  -0.03  -0.05
    16   6    -0.12   0.03   0.02    -0.02  -0.00  -0.01     0.06   0.00   0.03
    17   6    -0.08   0.01  -0.02    -0.02   0.00  -0.01     0.07  -0.01   0.04
    18   6    -0.02   0.10  -0.07    -0.01  -0.01   0.00     0.07   0.00   0.03
    19   6     0.02   0.06  -0.10     0.00  -0.02   0.00     0.08   0.04   0.00
    20   6     0.01  -0.11  -0.05    -0.00  -0.02  -0.01     0.07   0.06  -0.01
    21   6    -0.04  -0.20  -0.00    -0.01  -0.00  -0.03     0.07   0.02   0.01
    22   6    -0.09  -0.13   0.01    -0.02   0.01  -0.02     0.07  -0.01   0.04
    23   6    -0.04  -0.06   0.01    -0.02  -0.02   0.01     0.05   0.03  -0.03
    24   6    -0.03  -0.04  -0.01    -0.02  -0.01   0.00     0.05   0.02  -0.01
    25   6     0.01  -0.02  -0.01    -0.01  -0.00  -0.00     0.02   0.00  -0.00
    26   6     0.04  -0.04  -0.02    -0.00  -0.01  -0.00     0.01   0.01  -0.00
    27   6     0.07  -0.03   0.01     0.01  -0.01   0.01    -0.01   0.00  -0.02
    28   6     0.06   0.00   0.05     0.01   0.00   0.01    -0.01  -0.02  -0.02
    29   6     0.03   0.02   0.05     0.00   0.01   0.00    -0.00  -0.04  -0.00
    30   6     0.00   0.01   0.01    -0.01   0.01  -0.00     0.02  -0.03   0.01
    31   6    -0.04   0.03  -0.05    -0.02   0.01  -0.01     0.05  -0.04   0.03
    32   6    -0.04  -0.01  -0.04    -0.02  -0.00  -0.01     0.06  -0.00   0.00
    33   6     0.03  -0.02   0.00     0.03   0.03  -0.07     0.01  -0.04  -0.02
    34   6    -0.03   0.00  -0.01     0.04   0.04  -0.03    -0.00  -0.03  -0.01
    35   6    -0.06   0.01  -0.02     0.04   0.02  -0.01    -0.04  -0.03  -0.01
    36   6    -0.02   0.00  -0.01     0.02  -0.01  -0.02    -0.06  -0.03  -0.01
    37   6     0.02  -0.01  -0.00    -0.07  -0.01  -0.01     0.03  -0.08   0.02
    38   6     0.08  -0.03   0.01    -0.10  -0.04  -0.02     0.06  -0.11   0.02
    39   6     0.08  -0.03   0.01    -0.01  -0.08  -0.04    -0.04  -0.08  -0.01
    40   6     0.04  -0.02   0.00     0.07  -0.08  -0.05    -0.14  -0.03  -0.04
    41   6     0.00  -0.00  -0.00     0.07  -0.03  -0.05    -0.12  -0.01  -0.03
    42   6     0.01  -0.01  -0.00     0.07  -0.01  -0.07    -0.09  -0.01  -0.04
    43   6     0.01  -0.00   0.00     0.06  -0.01  -0.06    -0.08  -0.00  -0.02
    44   6     0.01  -0.01   0.02     0.03   0.07   0.09    -0.08  -0.00   0.07
    45   6     0.02  -0.01   0.01     0.02   0.04  -0.03    -0.05  -0.02   0.06
    46   6     0.03  -0.01   0.00     0.01  -0.01  -0.13    -0.00  -0.02  -0.02
    47   6     0.03  -0.00  -0.00     0.01  -0.02  -0.08    -0.01   0.01  -0.04
    48   6     0.04   0.01  -0.00    -0.04   0.01   0.08     0.04   0.05  -0.05
    49   6     0.03   0.02   0.00    -0.05   0.02   0.21     0.02   0.12  -0.01
    50   6     0.02   0.03   0.01    -0.00  -0.03   0.11    -0.03   0.15   0.03
    51   6     0.02   0.02   0.01     0.04  -0.07  -0.06    -0.06   0.10  -0.00
    52   6     0.02   0.00   0.00     0.04  -0.04  -0.10    -0.05   0.03  -0.03
    53   1    -0.10   0.07   0.01     0.00   0.01  -0.01     0.00  -0.05   0.01
    54   1    -0.13  -0.05  -0.00    -0.01  -0.00   0.00     0.04   0.02  -0.02
    55   1     0.05  -0.01   0.02     0.04   0.00   0.01    -0.13  -0.01  -0.03
    56   1     0.01  -0.10   0.05     0.02  -0.01   0.04    -0.07   0.03  -0.13
    57   1     0.09  -0.04   0.03     0.01   0.00   0.02    -0.05   0.01  -0.06
    58   1     0.02  -0.10   0.05    -0.02   0.01   0.05     0.03   0.00  -0.14
    59   1     0.02  -0.06   0.04    -0.05  -0.00   0.02     0.09   0.02  -0.07
    60   1     0.06   0.07   0.01     0.01   0.01  -0.01    -0.04  -0.01   0.03
    61   1    -0.04   0.10   0.01    -0.02   0.00  -0.02     0.02  -0.02   0.02
    62   1    -0.05   0.09   0.01    -0.01   0.01  -0.02     0.03  -0.03   0.03
[...]
 76,-0.07476895,0.03870817,0.01241146,-0.00967476,0.01469791,-0.0009397
 0,-0.00131003,0.00063241,0.00013551,0.00015641,0.00029203,0.00005615,0
 .00001618,0.00000236,0.00006080,0.00026987,-0.00012294,-0.00126559,-0.
 00276678,0.00131925,-0.00328299,-0.00109268,0.00385219,0.00022812,-0.0
 0014665,-0.00017275,0.00000258,0.00006492,0.00002360,-0.00004454,-0.00
 034476,0.00000115,0.00004456,0.00004940,-0.00001618,0.00000647,0.00001
 029,0.00001508,0.00000787,0.00000098,0.00000161,-0.00001444,0.00001312
 ,0.00000795,-0.00005840,-0.00007680,-0.00005282,0.00008655,0.00012663,
 -0.00000025,-0.00000934,0.00003676,-0.00007693,-0.00000292,-0.00001190
 ,0.00002269,-0.00000985,0.00000902,-0.00000935,0.00001056,-0.00001021,
 0.00000942,-0.00000028,0.00000303,-0.00001459,0.00001796,-0.00000430,0
 .00000539,0.00001986,0.00002147,0.00001044,0.00002105,0.00002256,0.000
 00878,0.00000037,0.00000281,-0.00002710,0.00001347,-0.00001372,0.00001
 521,0.00002096,0.00000757,0.00001234,-0.00004379,-0.00003146,-0.000069
 09,0.00002753,-0.00001780,0.00006015,-0.00000876,-0.00001317,-0.000006
 26,0.00000647,0.00001202,0.00000898,0.00000113,-0.00001072,-0.00000303
 ,0.00000761,0.00000403,0.00000046,-0.00000014,0.00000232,0.00000391,0.
 00000237,-0.00000080,0.00000454,-0.00000107,-0.00000688,-0.00000999,0.
 00000358,0.00000467,-0.00003611,-0.00002606,0.00004365,-0.00004775,0.0
 0000505,-0.00000327,0.00000684,0.00000315,0.00000555,-0.00000862,-0.00
 000655,-0.00002269,-0.00000149,-0.00000786,0.00001039,0.00000082,-0.00
 002766,0.00003280,-0.00000529,-0.00001755,-0.00000551,0.00002438,-0.00
 016747,-0.00012654,-0.00152623,0.00019520,-0.00023478,-0.00003293,0.00
 000867,0.00001058,0.00001083,-0.00000645,0.00002644,-0.00003230,-0.000
 00624,0.00001550,-0.00000023,0.00001799,-0.00001153,-0.00007913,-0.000
 01015,-0.00003777,0.00004797,-0.00002019,-0.00003624,0.00001111,-0.000
 07579,-0.00001592,-0.00005223,-0.00147285,-0.00127331,-0.00031722,-0.0
 0050567,-0.00771717,0.00290819,-0.00054326,-0.00106953,-0.00064730,-0.
 00001133,0.00002307,-0.00002504,-0.00000544,-0.00000054,-0.00001843,-0
 .00001413,-0.00001526,0.00000033,-0.00000787,-0.00000218,0.00001999,-0
 .00001032,0.00001595,0.00002791,0.00018885,0.00045484,0.00017783,-0.00
 000284,0.00000668,0.00000066,-0.00000176,0.00000178,0.00000326,-0.0000
 0345,0.00000015,0.00000424,-0.00000370,-0.00000522,-0.00000120,-0.0000
 1406,-0.00001301,-0.00000268,-0.00001751,-0.00001295,-0.00000369,-0.00
 002371,0.00002174,-0.00003119,-0.00000209,0.00000326,-0.00000661,-0.00
 000084,0.00000136,-0.00000376,-0.00000122,-0.00000118,-0.00000331,-0.0
 0000330,-0.00000055,-0.00000069,-0.00000257,0.00000151,-0.00000116,0.0
 0000346,0.00001134,-0.00000875,-0.00006102,0.00017727,-0.00011533,-0.0
 0009181,-0.00009779,0.00009293,-0.07064844,0.09578344,-0.00273564,0.00
 106301,-0.00183201,-0.00082629,-0.00015918,-0.00049913,0.00001714,0.00
 003448,-0.00004302,0.00039274,0.00076721,0.00016816,0.01576973,-0.0071
 3877,0.01073619,-0.00003456,-0.00005331,-0.00004774,0.00174220,-0.0004
 9286,-0.00236325,0.00024482,-0.00023272,0.00042825,0.00003561,-0.00002
 382,0.00005720,-0.00007813,0.00007598,-0.00010692,0.00047450,0.0002352
 6,-0.00015344,0.00005728,0.00008050,-0.00000316,-0.00099827,-0.0004733
 7,-0.00104194,-0.00004810,-0.00001798,0.00004753,-0.00002386,0.0000736
 0,-0.00001639,-0.07568912,0.03938080,-0.08048617,-0.00580508,0.0107487
 8,-0.00618406,0.00015849,0.00083118,-0.00002172,0.00007430,-0.00016301
 ,-0.00019952,-0.00004019,0.00001436,0.00000102,-0.00014651,-0.00011357
 ,-0.00009061,0.00069652,0.00120241,-0.00012060,0.00302432,0.00152008,-
 0.00176020,-0.00026232,0.00006536,0.00004393,-0.00000253,-0.00001034,0
 .00006880,-0.00012416,-0.00004704,-0.00005060,0.00002307,0.00002769,-0
 .00003983,0.00000894,0.00002396,-0.00001527,-0.00000079,0.00000663,-0.
 00000172,0.00003425,0.00002092,-0.00001983,0.00003773,0.00004050,0.000
 04605,-0.00006248,-0.00011074,-0.00004648,0.00004096,-0.00005395,0.000
 04432,-0.00000759,0.00000481,0.00001049,-0.00000618,0.00001053,-0.0000
 2492,0.00002625,-0.00001234,-0.00002074,-0.00000903,0.00000328,-0.0000
 0031,-0.00000459,-0.00000625,-0.00001762,-0.00002812,-0.00002458,-0.00
 000511,-0.00002526,0.00000147,-0.00002941,0.00002318,-0.00002824,0.000
 05061,-0.00007679,0.00005655,0.00002137,0.00008480,0.00019537,0.000016
 07,-0.00002141,-0.00060269,-0.00041139,-0.00005212,0.00016713,0.000144
 38,-0.00002514,-0.00007304,-0.00004382,0.00002893,0.00007933,0.0000319
 6,-0.00001001,-0.00004300,-0.00003212,0.00002850,0.00002523,-0.0000100
 7,-0.00000653,0.00001286,0.00001326,-0.00000755,0.00000606,0.00000188,
 0.00002787,-0.00004280,-0.00004384,-0.00004921,0.00011448,-0.00007075,
 -0.00011901,0.00003330,-0.00009423,0.00005381,0.00002443,-0.00007095,0
 .00001205,-0.00002891,-0.00006196,-0.00000431,0.00000366,-0.00000895,0
 .00001057,-0.00002924,-0.00000495,0.00010744,-0.00002033,0.00001430,-0
 .00000080,0.00001224,0.00000384,0.00236949,-0.00239304,-0.00129345,0.0
 0014484,-0.00004381,0.00010703,-0.00000526,-0.00000342,-0.00001768,0.0
 0010808,-0.00013790,-0.00015079,-0.00002802,-0.00001507,0.00001170,-0.
 00004478,0.00002470,0.00003743,-0.00000389,-0.00000055,-0.00002966,0.0
 0000235,0.00004087,-0.00001262,0.00008110,0.00002038,0.00006493,0.0002
 6141,0.00000358,0.00069573,0.00039538,0.00455206,-0.00194980,-0.000212
 90,-0.00076096,-0.00002682,-0.00000858,-0.00003509,0.00000615,0.000008
 23,0.00000428,0.00000319,0.00000408,-0.00000420,-0.00000224,0.00000090
 ,-0.00001029,-0.00000763,0.00003716,0.00002268,-0.00000328,0.00090454,
 0.00071160,-0.00082757,-0.00000112,-0.00000194,-0.00000247,-0.00000296
 ,0.00000271,0.00000415,0.00000063,0.00000437,0.00000193,0.00000673,0.0
 0000509,0.00000836,0.00001886,0.00001076,0.00000439,0.00000899,-0.0000
 0019,0.00002506,-0.00004929,-0.00014097,-0.00005590,0.00000921,-0.0000
 0214,-0.00000013,0.00000480,-0.00000299,-0.00000111,0.00000189,-0.0000
 0729,-0.00000383,-0.00000463,-0.00000477,0.00000348,-0.00000286,0.0000
 0285,0.00001125,-0.00001369,-0.00001089,0.00000159,-0.00102143,-0.0007
 6286,0.00014598,-0.00007196,-0.00004748,-0.00000681,0.07817560,-0.0489
 9732,0.09750857,0.00001241,0.00006085,-0.00035205,0.00007466,0.0000272
 5,0.00012453,-0.00000248,0.00000971,-0.00001806,-0.00002771,-0.0000017
 1,-0.00003446,0.00737556,0.01156621,0.01301639,-0.00001425,-0.00001832
 ,-0.00000618,-0.00074662,0.00121437,0.00047865,0.00006558,-0.00006190,
 -0.00002292,0.00002534,0.00000194,0.00004410,0.00003155,0.00008857,-0.
 00010988,-0.00039399,-0.00075226,0.00170848,0.00032551,0.00018188,0.00
 012855,-0.00125102,0.00045178,0.00167249,-0.00006319,0.00003511,0.0000
 2504,0.00000690,0.00000943,0.00000222,-0.07882661,-0.06893527,-0.06130
 888,-0.00128896,-0.00840180,-0.00088893,0.00055726,0.00015767,0.000101
 38,-0.00016133,-0.00000260,-0.00002259,0.00000519,-0.00001133,-0.00002
 618,-0.00017125,0.00005167,0.00024076,0.00030535,-0.00048024,0.0001092
 8,0.00011876,0.00010037,-0.00018716,-0.00002672,0.00002497,0.00002226,
 -0.00002705,-0.00010477,-0.00001091,-0.00006248,0.00016585,-0.00004111
 ,-0.00004050,-0.00006598,0.00000534,-0.00000846,-0.00001224,-0.0000094
 8,-0.00000269,-0.00000241,-0.00000352,0.00000403,-0.00000032,0.0000189
 2,0.00001281,0.00001693,0.00000981,-0.00001290,-0.00002611,0.00000472,
 0.00000436,-0.00001076,0.00002066,0.00000035,0.00000343,-0.00000553,0.
 00000306,-0.00000191,0.00000175,-0.00000233,0.00000296,-0.00000327,0.0
 0000010,-0.00000004,0.00000446,-0.00000586,0.00000197,-0.00000249,-0.0
 0000766,-0.00000879,-0.00000414,-0.00000850,-0.00000688,-0.00000362,0.
 00000138,-0.00000177,0.00000926,-0.00000698,0.00000536,-0.00000309,-0.
 00000902,-0.00000937,-0.00000887,0.00001480,0.00002632,0.00002755,-0.0
 0000013,0.00000442,-0.00001089,-0.00000092,-0.00000401,-0.00000135,0.0
 0000562,0.00000201,-0.00000466,-0.00000108,-0.00000072,-0.00000091,0.0
 0000180,0.00000044,-0.00000243,-0.00000110,0.00000164,0.00000157,-0.00
 000270,-0.00000300,-0.00000253,0.00000211,0.00000814,0.00000629,0.0000
 3152,0.00000485,0.00012451,-0.00090984,0.00012146,-0.00014935,0.000008
 76,0.00000201,0.00000163,-0.00000030,-0.00000227,0.00000433,-0.0000066
 1,0.00000887,-0.00000122,-0.00000457,-0.00000014,0.00000440,0.00000206
 ,0.00001237,-0.00000539,-0.00003401,-0.00000551,0.00002979,-0.00037436
 ,0.00001343,-0.00000860,-0.00020859,-0.00002047,-0.00006608,0.00001042
 ,-0.00000732,0.00001312,-0.00001991,-0.00000006,0.00001105,0.00000004,
 -0.00000474,-0.00000414,-0.00010338,-0.00019714,-0.00018772,0.00000979
 ,0.00000350,-0.00001985,0.00002082,-0.00000511,-0.00002525,0.00003316,
 0.00000552,0.00001376,0.00009421,-0.00003547,-0.00000036,-0.00006342,0
 .00039004,-0.00061347,-0.00089747,0.00207280,-0.00022007,0.00002021,0.
 00000779,0.00000733,0.00000341,-0.00000526,0.00000576,0.00000451,0.000
 00248,0.00000111,0.00000187,0.00000080,-0.00000362,0.00000228,0.000000
 13,-0.00000290,-0.00011357,-0.00007609,0.00002275,0.00000078,-0.000001
 88,-0.00000035,0.00000024,-0.00000076,-0.00000099,0.00000072,-0.000000
 35,-0.00000150,0.00000154,0.00000140,0.00000080,0.00000618,0.00000467,
 0.00000150,0.00000551,0.00000405,0.00000319,-0.00000809,-0.00000749,0.
 00000853,-0.00000197,-0.00000157,0.00000160,-0.00000048,-0.00000059,0.
 00000110,0.00000035,0.00000003,0.00000068,0.00000058,-0.00000021,0.000
 00032,0.00000049,0.00000002,0.00000121,-0.00000061,-0.00000277,0.00000
 236,0.00003028,-0.00001719,0.00003061,-0.00077086,-0.00028622,0.000333
 87,-0.01388758,-0.01109418,-0.01697726,0.09133607,0.00016728,-0.000132
 03,0.00045126,-0.00012374,-0.00019813,-0.00010051,0.00000969,-0.000015
 23,0.00003421,0.00006704,0.00005742,0.00007185,0.00024758,-0.00239968,
 -0.00780494,0.00002837,0.00002663,-0.00005355,0.00081367,-0.00076555,-
 0.00019270,-0.00002297,0.00000351,-0.00001672,-0.00003478,0.00003039,-
 0.00001119,-0.00005133,-0.00017221,0.00004781,0.00027060,0.00100070,-0
 .00014153,-0.00000225,-0.00000384,-0.00002669,0.00010399,-0.00020398,-
 0.00042764,0.00000059,-0.00000554,-0.00000314,-0.00000403,-0.00000502,
 0.00001917,-0.06438442,-0.14165387,-0.08752723,-0.01299444,-0.01631639
 ,-0.00693190,-0.00008312,-0.00160841,0.00133114,0.00003922,0.00031090,
 -0.00010059,-0.00011098,-0.00000958,-0.00013709,-0.00036884,0.00002609
 ,0.00011502,-0.00002543,-0.00110508,0.00105212,-0.00008880,0.00009745,
 0.00048330,0.00004204,-0.00002811,0.00005959,0.00008134,0.00007276,0.0
 0014235,-0.00167501,-0.00266829,-0.00015910,0.00008227,-0.00003542,-0.
 00012453,0.00004102,0.00004498,-0.00000594,0.00001600,0.00000809,-0.00
 000353,0.00003244,0.00006269,0.00001952,-0.00002849,-0.00004532,0.0000
 0553,0.00003179,-0.00000357,-0.00006159,-0.00000464,0.00001463,-0.0000
 4004,-0.00000005,-0.00000464,0.00001431,-0.00000639,0.00000680,-0.0000
 0702,0.00000946,-0.00000672,0.00000348,-0.00000049,0.00000247,-0.00000
 812,0.00001207,-0.00000222,0.00000263,0.00001020,0.00001332,0.00000666
 ,0.00001089,0.00001209,0.00000254,0.00000103,-0.00000066,-0.00001141,0
 .00000409,-0.00000331,0.00000943,0.00002090,0.00002447,0.00001143,-0.0
 0002189,-0.00007703,-0.00007183,0.00000691,0.00000967,0.00003677,-0.00
 000580,-0.00001228,-0.00000428,0.00000408,0.00001185,0.00000849,0.0000
 0033,-0.00000891,-0.00000377,0.00000610,0.00000428,0.00000048,-0.00000
 005,0.00000153,0.00000251,0.00000222,0.00000206,0.00000371,0.00000039,
 -0.00001120,-0.00001191,0.00003205,-0.00015114,-0.00006917,0.00095918,
 -0.00025915,-0.00004920,-0.00001202,-0.00001420,0.00002028,-0.00000143
 ,0.00002076,0.00001932,0.00000979,-0.00001298,0.00000583,-0.00000722,0
 .00002642,0.00001422,-0.00000392,0.00001442,-0.00001158,-0.00000377,-0
 .00000595,0.00000006,-0.00001770,0.00008348,-0.00003152,0.00003581,0.0
 0000593,0.00004084,0.00000452,0.00000332,0.00000187,0.00000145,0.00000
 092,-0.00001636,-0.00000214,0.00000482,-0.00000291,0.00056308,-0.00076
 097,0.00096196,0.00003805,0.00001915,0.00001037,0.00000253,-0.00003607
 ,0.00001019,-0.00004539,-0.00005544,0.00001250,0.00006419,-0.00000506,
 -0.00007065,0.00037262,-0.00031356,0.00087769,0.00205072,-0.00701160,0
 .00077736,0.00001092,0.00001067,-0.00005427,0.00000896,0.00000257,-0.0
 0002948,-0.00002042,-0.00003343,-0.00000403,-0.00001303,-0.00001691,0.
 00001631,0.00001206,0.00003839,0.00002497,0.00017155,0.00019810,-0.000
 08013,-0.00000334,0.00000298,-0.00000006,-0.00000236,0.00000074,0.0000
 0264,-0.00000292,-0.00000014,0.00000316,-0.00000292,-0.00000368,-0.000
 00003,-0.00000901,-0.00000793,-0.00000216,-0.00000903,-0.00000704,-0.0
 0000175,-0.00001346,-0.00000162,-0.00001354,-0.00000113,0.00000144,-0.
 00000372,-0.00000031,0.00000059,-0.00000252,-0.00000079,-0.00000153,-0
 .00000264,-0.00000275,-0.00000087,-0.00000020,-0.00000200,0.00000076,-
 0.00000026,-0.00000223,0.00000346,-0.00000612,-0.00009218,-0.00001869,
 -0.00003576,-0.00028688,0.00000252,0.00007226,0.00027538,0.00590408,0.
 00101588,0.07381978,0.16802965,-0.00007397,0.00011946,-0.00009564,0.00
 008158,0.00006371,0.00019912,0.00000360,-0.00000420,0.00001135,0.00002
 118,0.00001734,0.00002901,-0.00227880,-0.01223964,-0.01089648,-0.00002
 117,-0.00004190,-0.00002784,0.00072892,-0.00059407,0.00042223,-0.00009
 698,0.00007754,-0.00005419,-0.00002893,-0.00002978,0.00000904,-0.00005
 948,-0.00002225,0.00003780,0.00127274,0.00053973,-0.00243074,-0.000190
 68,-0.00014759,-0.00007298,0.00109316,-0.00050753,-0.00137152,0.000042
 81,-0.00001162,-0.00001417,-0.00000068,0.00000308,-0.00000199,-0.05777
 718,-0.09179573,-0.11450849,0.00657980,0.00810165,0.00960521,0.0005380
 0,0.00115778,-0.00037734,-0.00001699,-0.00018332,0.00005151,0.00006292
 ,0.00004034,0.00012087,0.00042262,-0.00003548,-0.00021828,-0.00017161,
 0.00101149,-0.00107907,-0.00013632,0.00033069,-0.00084464,0.00006424,0
 .00005151,0.00002663,0.00001692,0.00003273,-0.00002034,-0.00013136,0.0
 0017961,-0.00002716,-0.00005444,-0.00005707,-0.00001156,0.00002290,0.0
 0002558,-0.00004015,0.00000524,0.00000809,0.00000513,0.00001100,0.0000
 1511,-0.00000478,0.00001763,0.00003583,0.00002697,-0.00003686,-0.00006
 029,-0.00001084,-0.00000173,0.00000434,-0.00001285,0.00000026,-0.00000
 145,0.00000472,-0.00000264,0.00000239,-0.00000260,0.00000391,-0.000002
 80,0.00000107,-0.00000035,0.00000043,-0.00000367,0.00000490,-0.0000018
 5,0.00000103,0.00000627,0.00000791,0.00000327,0.00000734,0.00000788,0.
 00000177,-0.00000010,-0.00000043,-0.00000524,0.00000251,-0.00000125,0.
 00000229,0.00000863,0.00001033,0.00000592,-0.00001019,-0.00003171,-0.0
 0002703,-0.00000124,0.00000313,0.00000972,-0.00000135,-0.00000162,-0.0
 0000065,-0.00000140,0.00000238,0.00000407,0.00000027,-0.00000193,-0.00
 000101,0.00000083,0.00000127,0.00000087,0.00000032,-0.00000013,-0.0000
 0014,0.00000161,0.00000217,0.00000185,-0.00000075,-0.00000691,-0.00000
 588,-0.00007080,0.00002095,-0.00005529,0.00031421,-0.00018457,-0.00004
 448,-0.00000928,-0.00000241,0.00000353,0.00000518,0.00000339,0.0000089
 8,0.00000367,0.00000953,-0.00000725,0.00000050,0.00001851,0.00002094,-
 0.00001144,-0.00000430,-0.00000151,0.00003006,0.00000281,-0.00002613,0
 .00021670,-0.00003413,0.00009534,0.00010457,0.00008068,0.00007578,-0.0
 0000607,-0.00000094,-0.00000978,0.00000621,-0.00000534,-0.00000122,-0.
 00000030,-0.00000099,0.00000046,-0.00052485,0.00020421,-0.00047897,-0.
 00000063,-0.00000157,0.00001621,-0.00002258,-0.00000031,0.00001639,-0.
 00002464,0.00002440,-0.00003852,-0.00010229,0.00006703,-0.00000974,-0.
 00065673,0.00105834,-0.00143030,-0.00013203,0.00339514,-0.00114302,0.0
 0000867,-0.00000955,0.00000695,0.00000575,0.00000034,0.00000137,-0.000
 00016,-0.00000407,-0.00000326,-0.00000205,-0.00000489,-0.00000417,0.00
 000574,0.00000494,-0.00000435,-0.00009341,-0.00008923,-0.00002548,-0.0
 0000130,0.00000093,0.00000007,-0.00000093,0.00000043,0.00000130,-0.000
 00109,0.00000029,0.00000181,-0.00000093,-0.00000145,0.00000070,-0.0000
 0428,-0.00000447,-0.00000078,-0.00000494,-0.00000395,-0.00000199,0.000
 00213,0.00000092,-0.00000283,0.00000081,0.00000057,-0.00000101,0.00000
 029,0.00000015,-0.00000082,-0.00000021,-0.00000067,-0.00000087,-0.0000
 0095,-0.00000036,-0.00000001,-0.00000068,0.00000003,-0.00000035,-0.000
 00139,0.00000063,-0.00000190,-0.00001460,0.00000106,-0.00001065,0.0011
 7550,0.00039548,-0.00065010,-0.01309272,-0.00766379,-0.01010418,0.0629
 7440,0.09665355,0.13539510\\0.00000414,-0.00000036,-0.00000015,0.00000
 169,0.00000529,0.00000181,0.00000079,-0.00000113,0.00000261,0.00000441
 ,0.00000782,0.00000315,0.00000233,-0.00000267,0.00000093,0.00000009,-0
 .00000059,-0.00000098,-0.00000370,0.00000028,0.00000015,0.00000085,0.0
 0000020,0.00000082,-0.00000115,0.00000072,0.00000010,-0.00000110,-0.00
 000085,0.00000035,0.00000076,0.00000115,0.00000095,-0.00000084,0.00000
 103,-0.00000084,0.00000400,0.00000033,0.00000165,0.00000244,-0.0000013
 7,0.00000196,-0.00000122,0.00000145,0.00000114,0.00000001,-0.00000289,
 -0.00000033,0.00000189,0.00000180,-0.00000148,-0.00000094,-0.00000346,
 0.00000229,0.00000058,0.00000345,-0.00000236,0.00000476,-0.00000074,0.
 00000453,-0.00000312,0.00000476,-0.00000611,-0.00000224,-0.00000721,0.
 00000601,0.00000567,0.00000366,-0.00000166,0.00000161,-0.00000074,-0.0
 0000102,0.00000007,-0.00000034,0.00000078,0.00000058,0.00000090,-0.000
 00225,0.00000100,0.00000163,0.00000013,-0.00000081,-0.00000113,-0.0000
 0018,-0.00000028,-0.00000079,-0.00000133,-0.00000020,-0.00000054,0.000
 00042,-0.00000055,0.00000118,0.00000179,-0.00000100,-0.00000203,0.0000
 0243,-0.00000180,0.00000376,-0.00000048,0.00000124,-0.00000130,0.00000
 114,0.00000087,-0.00000016,-0.00000153,-0.00000098,0.00000072,-0.00000
 098,0.00000055,-0.00000040,0.00000037,-0.00000021,0.00000082,-0.000001
 09,-0.00000059,0.00000064,-0.00000040,-0.00000053,0.00000055,-0.000000
 07,0.00000026,-0.00000051,-0.00000068,0.00000100,-0.00000201,0.0000030
 5,0.00000174,-0.00000066,-0.00000189,-0.00000211,-0.00000589,-0.000001
 90,-0.00000125,0.00000001,0.00000031,0.00000044,0.00000256,0.00000095,
 -0.00000084,-0.00000081,0.00000064,0.,0.00000071,0.00000026,-0.0000005
 9,0.00000111,0.00000080,0.00000108,-0.00000004,-0.00000058,0.00000085,
 0.00000143,0.00000044,-0.00000078,-0.00000227,-0.00000043,-0.00000018,
 0.00000035,0.00000009,-0.00000014,0.00000048,-0.00000039,-0.00000024,-
 0.00000050,-0.00000038,-0.00000012,-0.00000007,0.00000055,0.00000028,0
 .00000012,-0.00000027,0.00000076,-0.00000011,0.00000043,-0.00000004,0.
 00000057,0.00000048,-0.00000014,-0.00000075,-0.00000021,-0.00000716,0.
 00000072,0.00000109,-0.00000005,-0.00000041,0.00000014,0.00000014,-0.0
 0000011,-0.00000061,-0.00000267,0.00000052,-0.00000223,0.00000099,-0.0
 0000092,-0.00000176,0.00000028,-0.00000082,-0.00000025,0.00000028,0.00
 000022,0.00000005,0.00000015,-0.00000034,0.00000034,0.00000010,-0.0000
 0072,0.00000016,0.00000405,0.00000309,-0.00000392,-0.00000356,-0.00000
 003,-0.00000238,-0.00000057,0.00000045,0.00000011,-0.00000037,-0.00000
 035,0.00000005,0.00000042,0.00000031,0.00000033,0.00000010,0.00000020,
 0.00000050,0.00000011,-0.00000032,-0.00000032,-0.00000040,-0.00000006,
 0.00000005,-0.00000599,-0.00000643,-0.00000088,-0.00000052,-0.00000066
 ,-0.00000005,-0.00000011,0.00000009,-0.00000024,0.00000020,0.00000012,
 0.00000015,-0.00000008,-0.00000037,0.00000057,0.00000029,-0.00000015,-
 0.00000014,-0.00000005,0.00000010,-0.00000016,0.00000319,0.00000122,-0
 .00000033,-0.00000012,-0.00000068,-0.00000027,0.00000009,-0.00000017,-
 0.00000001,0.00000024,-0.00000046,0.00000005,-0.00000045,0.00000004,-0
 .00000007,-0.00000012,0.00000006,-0.00000022,0.00000025,0.00000013,-0.
 00000119,-0.00000705,-0.00000121,-0.00000337,0.00000014,0.00000067,-0.
 00000124,-0.00000092,-0.00000072,0.00000182,0.00000016,-0.00000017,0.0
 0000069\\\@


 This summer one third of the nation will be ill-housed
 ill-nourished and ill-clad. Only they call it a vacation.
 -- Jonas Salk
 Job cpu time:       0 days  0 hours  0 minutes 32.2 seconds.
 File lengths (MBytes):  RWF=   2529 Int=      0 D2E=      0 Chk=      7 Scr=      2
 Normal termination of Gaussian 09 at Mon Apr 18 12:49:10 2022.
