 Entering Gaussian System, Link 0=g09
 Input=/scratch/mverot/bi-phenyl-redundant-opt/bi-phenyl-redundant-opt.com
 Output=/scratch/mverot/bi-phenyl-redundant-opt/bi-phenyl-redundant-opt.log
 Initial command:
 /opt/g09/l1.exe "/scratch/mverot/bi-phenyl-redundant-opt/Gau-1499618.inp" -scrdir="/scratch/mverot/bi-phenyl-redundant-opt/"
 Entering Link 1 = /opt/g09/l1.exe PID=   1499620.
  
 Copyright (c) 1988,1990,1992,1993,1995,1998,2003,2009,2013,
            Gaussian, Inc.  All Rights Reserved.
  
 This is part of the Gaussian(R) 09 program.  It is based on
 the Gaussian(R) 03 system (copyright 2003, Gaussian, Inc.),
 the Gaussian(R) 98 system (copyright 1998, Gaussian, Inc.),
 the Gaussian(R) 94 system (copyright 1995, Gaussian, Inc.),
 the Gaussian 92(TM) system (copyright 1992, Gaussian, Inc.),
 the Gaussian 90(TM) system (copyright 1990, Gaussian, Inc.),
 the Gaussian 88(TM) system (copyright 1988, Gaussian, Inc.),
 the Gaussian 86(TM) system (copyright 1986, Carnegie Mellon
 University), and the Gaussian 82(TM) system (copyright 1983,
 Carnegie Mellon University). Gaussian is a federally registered
 trademark of Gaussian, Inc.
  
 This software contains proprietary and confidential information,
 including trade secrets, belonging to Gaussian, Inc.
  
 This software is provided under written license and may be
 used, copied, transmitted, or stored only in accord with that
 written license.
  
 The following legend is applicable only to US Government
 contracts under FAR:
  
                    RESTRICTED RIGHTS LEGEND
  
 Use, reproduction and disclosure by the US Government is
 subject to restrictions as set forth in subparagraphs (a)
 and (c) of the Commercial Computer Software - Restricted
 Rights clause in FAR 52.227-19.
  
 Gaussian, Inc.
 340 Quinnipiac St., Bldg. 40, Wallingford CT 06492
  
  
 ---------------------------------------------------------------
 Warning -- This program may not be used in any manner that
 competes with the business of Gaussian, Inc. or will provide
 assistance to any competitor of Gaussian, Inc.  The licensee
 of this program is prohibited from giving any competitor of
 Gaussian, Inc. access to this program.  By using this program,
 the user acknowledges that Gaussian, Inc. is engaged in the
 business of creating and licensing software in the field of
 computational chemistry and represents and warrants to the
 licensee that it is not a competitor of Gaussian, Inc. and that
 it will not use this program in any manner prohibited above.
 ---------------------------------------------------------------
  

 Cite this work as:
 Gaussian 09, Revision D.01,
 M. J. Frisch, G. W. Trucks, H. B. Schlegel, G. E. Scuseria, 
 M. A. Robb, J. R. Cheeseman, G. Scalmani, V. Barone, B. Mennucci, 
 G. A. Petersson, H. Nakatsuji, M. Caricato, X. Li, H. P. Hratchian, 
 A. F. Izmaylov, J. Bloino, G. Zheng, J. L. Sonnenberg, M. Hada, 
 M. Ehara, K. Toyota, R. Fukuda, J. Hasegawa, M. Ishida, T. Nakajima, 
 Y. Honda, O. Kitao, H. Nakai, T. Vreven, J. A. Montgomery, Jr., 
 J. E. Peralta, F. Ogliaro, M. Bearpark, J. J. Heyd, E. Brothers, 
 K. N. Kudin, V. N. Staroverov, T. Keith, R. Kobayashi, J. Normand, 
 K. Raghavachari, A. Rendell, J. C. Burant, S. S. Iyengar, J. Tomasi, 
 M. Cossi, N. Rega, J. M. Millam, M. Klene, J. E. Knox, J. B. Cross, 
 V. Bakken, C. Adamo, J. Jaramillo, R. Gomperts, R. E. Stratmann, 
 O. Yazyev, A. J. Austin, R. Cammi, C. Pomelli, J. W. Ochterski, 
 R. L. Martin, K. Morokuma, V. G. Zakrzewski, G. A. Voth, 
 P. Salvador, J. J. Dannenberg, S. Dapprich, A. D. Daniels, 
 O. Farkas, J. B. Foresman, J. V. Ortiz, J. Cioslowski, 
 and D. J. Fox, Gaussian, Inc., Wallingford CT, 2013.
 
 ******************************************
 Gaussian 09:  AM64L-G09RevD.01 24-Apr-2013
                18-Apr-2022 
 ******************************************
 %chk=bi-phenyl-opt
 -----------------------
 #n PM3 Opt=modredundant
 -----------------------
 1/14=-1,18=120,19=15,26=1,38=1/1,3;
 2/9=110,12=2,17=6,18=5,40=1/2;
 3/5=2,16=1,25=1,41=800000,71=1/1,2,3;
 4/35=1/1;
 5/5=2,35=1,38=5/2;
 6/7=2,8=2,9=2,10=2,28=1/1;
 7//1,2,3,16;
 1/14=-1,18=20,19=15,26=1/3(2);
 2/9=110/2;
 99//99;
 2/9=110/2;
 3/5=2,16=1,25=1,41=800000,71=1,135=20/1,2,3;
 4/5=5,16=3,35=1/1;
 5/5=2,35=1,38=5/2;
 7//1,2,3,16;
 1/14=-1,18=20,19=15,26=1/3(-5);
 2/9=110/2;
 6/7=2,8=2,9=2,10=2,19=2,28=1/1;
 99/9=1/99;
 -------------------------
 Optimisation de geometrie
 -------------------------
 Symbolic Z-matrix:
 Charge =  0 Multiplicity = 1
 C                    -2.9429   -0.6554    0.8399 
 C                    -1.5545   -0.5288    0.8511 
 C                    -0.9076    0.4131    0.0333 
 C                    -1.7004    1.2249   -0.7958 
 C                    -3.0889    1.1      -0.8067 
 C                    -3.7169    0.1588    0.0109 
 C                     0.5721    0.5469    0.0432 
 C                     1.1844    1.8079   -0.0566 
 C                     2.5727    1.934    -0.0502 
 C                     3.3814    0.8011    0.0576 
 C                     2.7881   -0.4586    0.1584 
 C                     1.3997   -0.5838    0.1506 
 H                     0.9492   -1.5712    0.2018 
 H                    -3.4213   -1.3858    1.4873 
 H                    -0.9639   -1.149     1.5198 
 H                    -1.2205    1.9419   -1.4562 
 H                    -3.6805    1.7335   -1.4626 
 H                    -4.7991    0.0606    0.0024 
 H                     0.5643    2.6982   -0.114 
 H                     3.0232    2.9207   -0.1208 
 H                     4.4637    0.899     0.0629 
 H                     3.4077   -1.3484    0.2341 
 
 The following ModRedundant input section has been read:
 D       2       3       7      12 S  36 10.000                                
 

 GradGradGradGradGradGradGradGradGradGradGradGradGradGradGradGradGradGrad
 Berny optimization.
 Initialization pass.
                           ----------------------------
                           !    Initial Parameters    !
                           ! (Angstroms and Degrees)  !
 --------------------------                            --------------------------
 ! Name  Definition              Value          Derivative Info.                !
 --------------------------------------------------------------------------------
 ! R1    R(1,2)                  1.3942         estimate D2E/DX2                !
 ! R2    R(1,6)                  1.3962         estimate D2E/DX2                !
 ! R3    R(1,14)                 1.087          estimate D2E/DX2                !
 ! R4    R(2,3)                  1.4052         estimate D2E/DX2                !
 ! R5    R(2,15)                 1.0866         estimate D2E/DX2                !
 ! R6    R(3,4)                  1.4053         estimate D2E/DX2                !
 ! R7    R(3,7)                  1.4858         estimate D2E/DX2                !
 ! R8    R(4,5)                  1.3941         estimate D2E/DX2                !
 ! R9    R(4,16)                 1.0865         estimate D2E/DX2                !
 ! R10   R(5,6)                  1.396          estimate D2E/DX2                !
 ! R11   R(5,17)                 1.087          estimate D2E/DX2                !
 ! R12   R(6,18)                 1.0867         estimate D2E/DX2                !
 ! R13   R(7,8)                  1.4053         estimate D2E/DX2                !
 ! R14   R(7,12)                 1.4053         estimate D2E/DX2                !
 ! R15   R(8,9)                  1.394          estimate D2E/DX2                !
 ! R16   R(8,19)                 1.0865         estimate D2E/DX2                !
 ! R17   R(9,10)                 1.3961         estimate D2E/DX2                !
 ! R18   R(9,20)                 1.087          estimate D2E/DX2                !
 ! R19   R(10,11)                1.3961         estimate D2E/DX2                !
 ! R20   R(10,21)                1.0867         estimate D2E/DX2                !
 ! R21   R(11,12)                1.3941         estimate D2E/DX2                !
 ! R22   R(11,22)                1.0869         estimate D2E/DX2                !
 ! R23   R(12,13)                1.0865         estimate D2E/DX2                !
 ! A1    A(2,1,6)              120.2576         estimate D2E/DX2                !
 ! A2    A(2,1,14)             119.6386         estimate D2E/DX2                !
 ! A3    A(6,1,14)             120.1014         estimate D2E/DX2                !
 ! A4    A(1,2,3)              120.9743         estimate D2E/DX2                !
 ! A5    A(1,2,15)             119.6302         estimate D2E/DX2                !
 ! A6    A(3,2,15)             119.377          estimate D2E/DX2                !
 ! A7    A(2,3,4)              118.0902         estimate D2E/DX2                !
 ! A8    A(2,3,7)              120.9964         estimate D2E/DX2                !
 ! A9    A(4,3,7)              120.9135         estimate D2E/DX2                !
 ! A10   A(3,4,5)              120.9782         estimate D2E/DX2                !
 ! A11   A(3,4,16)             119.3812         estimate D2E/DX2                !
 ! A12   A(5,4,16)             119.6213         estimate D2E/DX2                !
 ! A13   A(4,5,6)              120.2564         estimate D2E/DX2                !
 ! A14   A(4,5,17)             119.6408         estimate D2E/DX2                !
 ! A15   A(6,5,17)             120.1003         estimate D2E/DX2                !
 ! A16   A(1,6,5)              119.4433         estimate D2E/DX2                !
 ! A17   A(1,6,18)             120.2677         estimate D2E/DX2                !
 ! A18   A(5,6,18)             120.289          estimate D2E/DX2                !
 ! A19   A(3,7,8)              120.947          estimate D2E/DX2                !
 ! A20   A(3,7,12)             120.9674         estimate D2E/DX2                !
 ! A21   A(8,7,12)             118.0855         estimate D2E/DX2                !
 ! A22   A(7,8,9)              120.9803         estimate D2E/DX2                !
 ! A23   A(7,8,19)             119.3636         estimate D2E/DX2                !
 ! A24   A(9,8,19)             119.6376         estimate D2E/DX2                !
 ! A25   A(8,9,10)             120.2536         estimate D2E/DX2                !
 ! A26   A(8,9,20)             119.641          estimate D2E/DX2                !
 ! A27   A(10,9,20)            120.1032         estimate D2E/DX2                !
 ! A28   A(9,10,11)            119.4468         estimate D2E/DX2                !
 ! A29   A(9,10,21)            120.2763         estimate D2E/DX2                !
 ! A30   A(11,10,21)           120.277          estimate D2E/DX2                !
 ! A31   A(10,11,12)           120.2576         estimate D2E/DX2                !
 ! A32   A(10,11,22)           120.096          estimate D2E/DX2                !
 ! A33   A(12,11,22)           119.644          estimate D2E/DX2                !
 ! A34   A(7,12,11)            120.9762         estimate D2E/DX2                !
 ! A35   A(7,12,13)            119.3806         estimate D2E/DX2                !
 ! A36   A(11,12,13)           119.6234         estimate D2E/DX2                !
 ! D1    D(6,1,2,3)             -0.0693         estimate D2E/DX2                !
 ! D2    D(6,1,2,15)           178.354          estimate D2E/DX2                !
 ! D3    D(14,1,2,3)          -179.51           estimate D2E/DX2                !
 ! D4    D(14,1,2,15)           -1.0867         estimate D2E/DX2                !
 ! D5    D(2,1,6,5)              0.0238         estimate D2E/DX2                !
 ! D6    D(2,1,6,18)          -179.9699         estimate D2E/DX2                !
 ! D7    D(14,1,6,5)           179.4619         estimate D2E/DX2                !
 ! D8    D(14,1,6,18)           -0.5318         estimate D2E/DX2                !
 ! D9    D(1,2,3,4)              0.0476         estimate D2E/DX2                !
 ! D10   D(1,2,3,7)           -179.8987         estimate D2E/DX2                !
 ! D11   D(15,2,3,4)          -178.3797         estimate D2E/DX2                !
 ! D12   D(15,2,3,7)             1.674          estimate D2E/DX2                !
 ! D13   D(2,3,4,5)              0.0186         estimate D2E/DX2                !
 ! D14   D(2,3,4,16)          -178.3776         estimate D2E/DX2                !
 ! D15   D(7,3,4,5)            179.965          estimate D2E/DX2                !
 ! D16   D(7,3,4,16)             1.5687         estimate D2E/DX2                !
 ! D17   D(2,3,7,8)           -141.903          estimate D2E/DX2                !
 ! D18   D(2,3,7,12)            38.1929         Scan                            !
 ! D19   D(4,3,7,8)             38.1522         estimate D2E/DX2                !
 ! D20   D(4,3,7,12)          -141.7519         estimate D2E/DX2                !
 ! D21   D(3,4,5,6)             -0.0636         estimate D2E/DX2                !
 ! D22   D(3,4,5,17)          -179.4961         estimate D2E/DX2                !
 ! D23   D(16,4,5,6)           178.3289         estimate D2E/DX2                !
 ! D24   D(16,4,5,17)           -1.1037         estimate D2E/DX2                !
 ! D25   D(4,5,6,1)              0.0419         estimate D2E/DX2                !
 ! D26   D(4,5,6,18)          -179.9644         estimate D2E/DX2                !
 ! D27   D(17,5,6,1)           179.4719         estimate D2E/DX2                !
 ! D28   D(17,5,6,18)           -0.5345         estimate D2E/DX2                !
 ! D29   D(3,7,8,9)           -179.8644         estimate D2E/DX2                !
 ! D30   D(3,7,8,19)             1.7063         estimate D2E/DX2                !
 ! D31   D(12,7,8,9)             0.0424         estimate D2E/DX2                !
 ! D32   D(12,7,8,19)         -178.3869         estimate D2E/DX2                !
 ! D33   D(3,7,12,11)          179.9275         estimate D2E/DX2                !
 ! D34   D(3,7,12,13)            1.5543         estimate D2E/DX2                !
 ! D35   D(8,7,12,11)            0.0207         estimate D2E/DX2                !
 ! D36   D(8,7,12,13)         -178.3524         estimate D2E/DX2                !
 ! D37   D(7,8,9,10)            -0.0647         estimate D2E/DX2                !
 ! D38   D(7,8,9,20)          -179.526          estimate D2E/DX2                !
 ! D39   D(19,8,9,10)          178.3603         estimate D2E/DX2                !
 ! D40   D(19,8,9,20)           -1.101          estimate D2E/DX2                !
 ! D41   D(8,9,10,11)            0.023          estimate D2E/DX2                !
 ! D42   D(8,9,10,21)         -179.9832         estimate D2E/DX2                !
 ! D43   D(20,9,10,11)         179.4818         estimate D2E/DX2                !
 ! D44   D(20,9,10,21)          -0.5244         estimate D2E/DX2                !
 ! D45   D(9,10,11,12)           0.0396         estimate D2E/DX2                !
 ! D46   D(9,10,11,22)         179.4677         estimate D2E/DX2                !
 ! D47   D(21,10,11,12)       -179.9541         estimate D2E/DX2                !
 ! D48   D(21,10,11,22)         -0.5261         estimate D2E/DX2                !
 ! D49   D(10,11,12,7)          -0.0619         estimate D2E/DX2                !
 ! D50   D(10,11,12,13)        178.3073         estimate D2E/DX2                !
 ! D51   D(22,11,12,7)        -179.4926         estimate D2E/DX2                !
 ! D52   D(22,11,12,13)         -1.1234         estimate D2E/DX2                !
 --------------------------------------------------------------------------------
 Trust Radius=3.00D-01 FncErr=1.00D-07 GrdErr=1.00D-07
 Number of optimizations in scan=  37
 Number of steps in this run=    121 maximum allowed number of steps=    132.
 GradGradGradGradGradGradGradGradGradGradGradGradGradGradGradGradGradGrad

                          Input orientation:                          
 ---------------------------------------------------------------------
 Center     Atomic      Atomic             Coordinates (Angstroms)
 Number     Number       Type             X           Y           Z
 ---------------------------------------------------------------------
      1          6           0       -2.942900   -0.655400    0.839900
      2          6           0       -1.554500   -0.528800    0.851100
      3          6           0       -0.907600    0.413100    0.033300
      4          6           0       -1.700400    1.224900   -0.795800
      5          6           0       -3.088900    1.100000   -0.806700
      6          6           0       -3.716900    0.158800    0.010900
      7          6           0        0.572100    0.546900    0.043200
      8          6           0        1.184400    1.807900   -0.056600
      9          6           0        2.572700    1.934000   -0.050200
     10          6           0        3.381400    0.801100    0.057600
     11          6           0        2.788100   -0.458600    0.158400
     12          6           0        1.399700   -0.583800    0.150600
     13          1           0        0.949200   -1.571200    0.201800
     14          1           0       -3.421300   -1.385800    1.487300
     15          1           0       -0.963900   -1.149000    1.519800
     16          1           0       -1.220500    1.941900   -1.456200
     17          1           0       -3.680500    1.733500   -1.462600
     18          1           0       -4.799100    0.060600    0.002400
     19          1           0        0.564300    2.698200   -0.114000
     20          1           0        3.023200    2.920700   -0.120800
     21          1           0        4.463700    0.899000    0.062900
     22          1           0        3.407700   -1.348400    0.234100
 ---------------------------------------------------------------------
                    Distance matrix (angstroms):
                    1          2          3          4          5
     1  C    0.000000
     2  C    1.394205   0.000000
     3  C    2.436133   1.405152   0.000000
     4  C    2.784753   2.410193   1.405332   0.000000
     5  C    2.411231   2.784901   2.436288   1.394149   0.000000
     6  C    1.396151   2.419649   2.820875   2.419423   1.395962
     7  C    3.799405   2.516398   1.485770   2.515524   3.798838
     8  C    4.889393   3.712904   2.515952   3.034531   4.396006
     9  C    6.157850   4.889939   3.799026   4.395239   5.772483
    10  C    6.536831   5.173141   4.306583   5.170357   6.534611
    11  C    5.774732   4.398060   3.799172   4.887873   6.156280
    12  C    4.397549   3.036614   2.516188   3.711831   4.888674
    13  H    4.048988   2.788674   2.722783   3.979166   4.945567
    14  H    1.086958   2.150382   3.415969   3.871666   3.398842
    15  H    2.149964   1.086562   2.157083   3.397034   3.871205
    16  H    3.871008   3.396991   2.157254   1.086518   2.149782
    17  H    3.398883   3.871832   3.416160   2.150370   1.086976
    18  H    2.158597   3.405160   3.907555   3.405093   2.158652
    19  H    4.945403   3.979229   2.722107   2.786455   4.047215
    20  H    7.021808   5.813689   4.665082   5.063967   6.414294
    21  H    7.607734   6.235271   5.393314   6.232151   7.605154
    22  H    6.416959   5.067135   4.665299   5.811648   7.020238
                    6          7          8          9         10
     6  C    0.000000
     7  C    4.306644   0.000000
     8  C    5.171734   1.405344   0.000000
     9  C    6.535605   2.436221   1.394030   0.000000
    10  C    7.127453   2.820814   2.419400   1.396094   0.000000
    11  C    6.535898   2.436177   2.784798   2.411316   1.396069
    12  C    5.172095   1.405325   2.410294   2.784882   2.419449
    13  H    4.980144   2.157245   3.397117   3.871135   3.400617
    14  H    2.157064   4.665619   5.813417   7.022323   7.287201
    15  H    3.400901   2.723182   3.980388   4.947457   4.982223
    16  H    3.400565   2.721698   2.785746   4.045400   4.976997
    17  H    2.156898   4.664768   5.064546   6.413859   7.283599
    18  H    1.086679   5.393324   6.233684   7.606302   8.214132
    19  H    4.979239   2.157050   1.086486   2.149824   3.400660
    20  H    7.285217   3.416096   2.150263   1.086974   2.157044
    21  H    8.214184   3.907546   3.405024   2.158680   1.086732
    22  H    7.285698   3.416026   3.871666   3.398853   2.156895
                   11         12         13         14         15
    11  C    0.000000
    12  C    1.394055   0.000000
    13  H    2.149725   1.086522   0.000000
    14  H    6.417346   5.066756   4.559403   0.000000
    15  H    4.050625   2.789402   2.361213   2.468997   0.000000
    16  H    4.943502   3.978243   4.449543   4.957953   4.298381
    17  H    7.019667   5.812119   5.926668   4.301061   4.958168
    18  H    7.606544   6.233966   5.978753   2.489043   4.298185
    19  H    3.871030   3.396974   4.298332   5.926907   4.450353
    20  H    3.398955   3.871812   4.958096   7.916029   5.928827
    21  H    2.158665   3.405067   4.298010   8.332014   5.981279
    22  H    1.086912   2.150267   2.468786   6.943137   4.561104
                   16         17         18         19         20
    16  H    0.000000
    17  H    2.468820   0.000000
    18  H    4.298044   2.489194   0.000000
    19  H    2.357754   4.557159   5.978005   0.000000
    20  H    4.555253   6.938982   8.329690   2.468956   0.000000
    21  H    5.975402   8.327757   9.300862   4.298108   2.489188
    22  H    5.924814   7.913247   8.330098   4.957930   4.301047
                   21         22
    21  H    0.000000
    22  H    2.489026   0.000000
 Stoichiometry    C12H10
 Framework group  C1[X(C12H10)]
 Deg. of freedom    60
 Full point group                 C1      NOp   1
 Largest Abelian subgroup         C1      NOp   1
 Largest concise Abelian subgroup C1      NOp   1
                         Standard orientation:                         
 ---------------------------------------------------------------------
 Center     Atomic      Atomic             Coordinates (Angstroms)
 Number     Number       Type             X           Y           Z
 ---------------------------------------------------------------------
      1          6           0        2.860973    1.138964    0.392702
      2          6           0        1.466770    1.139032    0.395032
      3          6           0        0.742890    0.000698    0.001784
      4          6           0        1.464620   -1.138652   -0.393117
      5          6           0        2.858767   -1.140154   -0.394480
      6          6           0        3.563762   -0.001030   -0.001936
      7          6           0       -0.742880    0.000966    0.001951
      8          6           0       -1.465733   -1.138266    0.395178
      9          6           0       -2.859760   -1.139704    0.392925
     10          6           0       -3.563691   -0.000472   -0.001677
     11          6           0       -2.859884    1.139498   -0.394275
     12          6           0       -1.465829    1.139540   -0.392932
     13          1           0       -0.928469    2.022932   -0.726687
     14          1           0        3.399076    2.028929    0.708746
     15          1           0        0.930176    2.022632    0.729599
     16          1           0        0.926315   -2.021596   -0.726523
     17          1           0        3.395075   -2.030725   -0.711928
     18          1           0        4.650441   -0.001426   -0.003348
     19          1           0       -0.928081   -2.021194    0.729574
     20          1           0       -3.396931   -2.030355    0.708677
     21          1           0       -4.650421   -0.001097   -0.003314
     22          1           0       -3.397202    2.029380   -0.711731
 ---------------------------------------------------------------------
 Rotational constants (GHZ):      2.8593405      0.5455315      0.4745243
 Standard basis: VSTO-6G (5D, 7F)
 There are    58 symmetry adapted cartesian basis functions of A   symmetry.
 There are    58 symmetry adapted basis functions of A   symmetry.
    58 basis functions,   348 primitive gaussians,    58 cartesian basis functions
    29 alpha electrons       29 beta electrons
       nuclear repulsion energy       318.4669198011 Hartrees.
 Integral buffers will be    131072 words long.
 Regular integral format.
 Two-electron integral symmetry is turned off.
 Do NDO integrals.
 One-electron integrals computed using PRISM.
 NBasis=    58 RedAO= F EigKep=  0.00D+00  NBF=    58
 NBsUse=    58 1.00D-04 EigRej=  0.00D+00 NBFU=    58
 Simple Huckel Guess.
 Overlap will be assumed to be unity.
 Keep J ints in memory in canonical form, NReq=912245.
 Requested convergence on RMS density matrix=1.00D-08 within 128 cycles.
 Requested convergence on MAX density matrix=1.00D-06.
 Requested convergence on             energy=1.00D-06.
 No special actions if energy rises.
 SCF Done:  E(RPM3) =  0.783483881125E-01 A.U. after   13 cycles
            NFock= 12  Conv=0.32D-08     -V/T= 1.0021

 **********************************************************************

            Population analysis using the SCF density.

 **********************************************************************

 Orbital symmetries:
       Occupied  (A) (A) (A) (A) (A) (A) (A) (A) (A) (A) (A) (A)
                 (A) (A) (A) (A) (A) (A) (A) (A) (A) (A) (A) (A)
                 (A) (A) (A) (A) (A)
       Virtual   (A) (A) (A) (A) (A) (A) (A) (A) (A) (A) (A) (A)
                 (A) (A) (A) (A) (A) (A) (A) (A) (A) (A) (A) (A)
                 (A) (A) (A) (A) (A)
 The electronic state is 1-A.
 Alpha  occ. eigenvalues --   -1.49780  -1.39866  -1.15495  -1.11007  -1.07154
 Alpha  occ. eigenvalues --   -0.99572  -0.81934  -0.81926  -0.76005  -0.74538
 Alpha  occ. eigenvalues --   -0.69407  -0.63179  -0.61488  -0.58410  -0.57534
 Alpha  occ. eigenvalues --   -0.54460  -0.54294  -0.54259  -0.53212  -0.49592
 Alpha  occ. eigenvalues --   -0.47877  -0.47545  -0.46386  -0.45770  -0.44514
 Alpha  occ. eigenvalues --   -0.37903  -0.35962  -0.35877  -0.33284
 Alpha virt. eigenvalues --   -0.00880   0.01269   0.01336   0.02794   0.09608
 Alpha virt. eigenvalues --    0.10528   0.10755   0.11992   0.12377   0.12483
 Alpha virt. eigenvalues --    0.12912   0.13039   0.13483   0.13895   0.14523
 Alpha virt. eigenvalues --    0.14633   0.15020   0.17437   0.17609   0.18355
 Alpha virt. eigenvalues --    0.18390   0.18810   0.19140   0.19391   0.19810
 Alpha virt. eigenvalues --    0.21896   0.22692   0.23051   0.23414
          Condensed to atoms (all electrons):
               1          2          3          4          5          6
     1  C    4.100892   0.000000   0.000000   0.000000   0.000000   0.000000
     2  C    0.000000   4.095205   0.000000   0.000000   0.000000   0.000000
     3  C    0.000000   0.000000   4.029011   0.000000   0.000000   0.000000
     4  C    0.000000   0.000000   0.000000   4.095340   0.000000   0.000000
     5  C    0.000000   0.000000   0.000000   0.000000   4.100878   0.000000
     6  C    0.000000   0.000000   0.000000   0.000000   0.000000   4.100185
     7  C    0.000000   0.000000   0.000000   0.000000   0.000000   0.000000
     8  C    0.000000   0.000000   0.000000   0.000000   0.000000   0.000000
     9  C    0.000000   0.000000   0.000000   0.000000   0.000000   0.000000
    10  C    0.000000   0.000000   0.000000   0.000000   0.000000   0.000000
    11  C    0.000000   0.000000   0.000000   0.000000   0.000000   0.000000
    12  C    0.000000   0.000000   0.000000   0.000000   0.000000   0.000000
    13  H    0.000000   0.000000   0.000000   0.000000   0.000000   0.000000
    14  H    0.000000   0.000000   0.000000   0.000000   0.000000   0.000000
    15  H    0.000000   0.000000   0.000000   0.000000   0.000000   0.000000
    16  H    0.000000   0.000000   0.000000   0.000000   0.000000   0.000000
    17  H    0.000000   0.000000   0.000000   0.000000   0.000000   0.000000
    18  H    0.000000   0.000000   0.000000   0.000000   0.000000   0.000000
    19  H    0.000000   0.000000   0.000000   0.000000   0.000000   0.000000
    20  H    0.000000   0.000000   0.000000   0.000000   0.000000   0.000000
    21  H    0.000000   0.000000   0.000000   0.000000   0.000000   0.000000
    22  H    0.000000   0.000000   0.000000   0.000000   0.000000   0.000000
               7          8          9         10         11         12
     1  C    0.000000   0.000000   0.000000   0.000000   0.000000   0.000000
     2  C    0.000000   0.000000   0.000000   0.000000   0.000000   0.000000
     3  C    0.000000   0.000000   0.000000   0.000000   0.000000   0.000000
     4  C    0.000000   0.000000   0.000000   0.000000   0.000000   0.000000
     5  C    0.000000   0.000000   0.000000   0.000000   0.000000   0.000000
     6  C    0.000000   0.000000   0.000000   0.000000   0.000000   0.000000
     7  C    4.029034   0.000000   0.000000   0.000000   0.000000   0.000000
     8  C    0.000000   4.095314   0.000000   0.000000   0.000000   0.000000
     9  C    0.000000   0.000000   4.100866   0.000000   0.000000   0.000000
    10  C    0.000000   0.000000   0.000000   4.100191   0.000000   0.000000
    11  C    0.000000   0.000000   0.000000   0.000000   4.100886   0.000000
    12  C    0.000000   0.000000   0.000000   0.000000   0.000000   4.095230
    13  H    0.000000   0.000000   0.000000   0.000000   0.000000   0.000000
    14  H    0.000000   0.000000   0.000000   0.000000   0.000000   0.000000
    15  H    0.000000   0.000000   0.000000   0.000000   0.000000   0.000000
    16  H    0.000000   0.000000   0.000000   0.000000   0.000000   0.000000
    17  H    0.000000   0.000000   0.000000   0.000000   0.000000   0.000000
    18  H    0.000000   0.000000   0.000000   0.000000   0.000000   0.000000
    19  H    0.000000   0.000000   0.000000   0.000000   0.000000   0.000000
    20  H    0.000000   0.000000   0.000000   0.000000   0.000000   0.000000
    21  H    0.000000   0.000000   0.000000   0.000000   0.000000   0.000000
    22  H    0.000000   0.000000   0.000000   0.000000   0.000000   0.000000
              13         14         15         16         17         18
     1  C    0.000000   0.000000   0.000000   0.000000   0.000000   0.000000
     2  C    0.000000   0.000000   0.000000   0.000000   0.000000   0.000000
     3  C    0.000000   0.000000   0.000000   0.000000   0.000000   0.000000
     4  C    0.000000   0.000000   0.000000   0.000000   0.000000   0.000000
     5  C    0.000000   0.000000   0.000000   0.000000   0.000000   0.000000
     6  C    0.000000   0.000000   0.000000   0.000000   0.000000   0.000000
     7  C    0.000000   0.000000   0.000000   0.000000   0.000000   0.000000
     8  C    0.000000   0.000000   0.000000   0.000000   0.000000   0.000000
     9  C    0.000000   0.000000   0.000000   0.000000   0.000000   0.000000
    10  C    0.000000   0.000000   0.000000   0.000000   0.000000   0.000000
    11  C    0.000000   0.000000   0.000000   0.000000   0.000000   0.000000
    12  C    0.000000   0.000000   0.000000   0.000000   0.000000   0.000000
    13  H    0.893648   0.000000   0.000000   0.000000   0.000000   0.000000
    14  H    0.000000   0.897252   0.000000   0.000000   0.000000   0.000000
    15  H    0.000000   0.000000   0.893642   0.000000   0.000000   0.000000
    16  H    0.000000   0.000000   0.000000   0.893613   0.000000   0.000000
    17  H    0.000000   0.000000   0.000000   0.000000   0.897254   0.000000
    18  H    0.000000   0.000000   0.000000   0.000000   0.000000   0.896713
    19  H    0.000000   0.000000   0.000000   0.000000   0.000000   0.000000
    20  H    0.000000   0.000000   0.000000   0.000000   0.000000   0.000000
    21  H    0.000000   0.000000   0.000000   0.000000   0.000000   0.000000
    22  H    0.000000   0.000000   0.000000   0.000000   0.000000   0.000000
              19         20         21         22
     1  C    0.000000   0.000000   0.000000   0.000000
     2  C    0.000000   0.000000   0.000000   0.000000
     3  C    0.000000   0.000000   0.000000   0.000000
     4  C    0.000000   0.000000   0.000000   0.000000
     5  C    0.000000   0.000000   0.000000   0.000000
     6  C    0.000000   0.000000   0.000000   0.000000
     7  C    0.000000   0.000000   0.000000   0.000000
     8  C    0.000000   0.000000   0.000000   0.000000
     9  C    0.000000   0.000000   0.000000   0.000000
    10  C    0.000000   0.000000   0.000000   0.000000
    11  C    0.000000   0.000000   0.000000   0.000000
    12  C    0.000000   0.000000   0.000000   0.000000
    13  H    0.000000   0.000000   0.000000   0.000000
    14  H    0.000000   0.000000   0.000000   0.000000
    15  H    0.000000   0.000000   0.000000   0.000000
    16  H    0.000000   0.000000   0.000000   0.000000
    17  H    0.000000   0.000000   0.000000   0.000000
    18  H    0.000000   0.000000   0.000000   0.000000
    19  H    0.893626   0.000000   0.000000   0.000000
    20  H    0.000000   0.897246   0.000000   0.000000
    21  H    0.000000   0.000000   0.896717   0.000000
    22  H    0.000000   0.000000   0.000000   0.897255
 Mulliken charges:
               1
     1  C   -0.100892
     2  C   -0.095205
     3  C   -0.029011
     4  C   -0.095340
     5  C   -0.100878
     6  C   -0.100185
     7  C   -0.029034
     8  C   -0.095314
     9  C   -0.100866
    10  C   -0.100191
    11  C   -0.100886
    12  C   -0.095230
    13  H    0.106352
    14  H    0.102748
    15  H    0.106358
    16  H    0.106387
    17  H    0.102746
    18  H    0.103287
    19  H    0.106374
    20  H    0.102754
    21  H    0.103283
    22  H    0.102745
 Sum of Mulliken charges =  -0.00000
 Mulliken charges with hydrogens summed into heavy atoms:
               1
     1  C    0.001855
     2  C    0.011153
     3  C   -0.029011
     4  C    0.011047
     5  C    0.001868
     6  C    0.003102
     7  C   -0.029034
     8  C    0.011060
     9  C    0.001887
    10  C    0.003092
    11  C    0.001859
    12  C    0.011122
 Charge=             -0.0000 electrons
 Dipole moment (field-independent basis, Debye):
    X=              0.0001    Y=             -0.0005    Z=             -0.0025  Tot=              0.0026
 N-N= 3.184669198011D+02 E-N=-5.598741140659D+02  KE=-3.713843120421D+01
 Calling FoFJK, ICntrl=      2127 FMM=F ISym2X=0 I1Cent= 0 IOpClX= 0 NMat=1 NMatS=1 NMatT=0.
 ***** Axes restored to original set *****
 -------------------------------------------------------------------
 Center     Atomic                   Forces (Hartrees/Bohr)
 Number     Number              X              Y              Z
 -------------------------------------------------------------------
      1        6           0.004653935    0.008668490   -0.006997549
      2        6          -0.001092896    0.008698404   -0.005723538
      3        6          -0.000267300    0.000072736   -0.000144792
      4        6           0.000422567   -0.008869913    0.005792469
      5        6           0.006039774   -0.007580043    0.006985337
      6        6           0.012699043    0.001023181    0.000240926
      7        6           0.000373071    0.000004011   -0.000054573
      8        6           0.001074892   -0.010225281    0.002733210
      9        6          -0.004257526   -0.011112065    0.001350846
     10        6          -0.012653142   -0.001129379   -0.000056883
     11        6          -0.006186633    0.010193665   -0.001399297
     12        6          -0.000769894    0.010231202   -0.002727703
     13        1          -0.002425546   -0.005622472    0.001243880
     14        1          -0.002306256   -0.003415388    0.002664699
     15        1           0.003257954   -0.004232327    0.003184325
     16        1           0.002511729    0.004775442   -0.003157223
     17        1          -0.002832184    0.002948058   -0.002701856
     18        1          -0.004783450   -0.000427057   -0.000048233
     19        1          -0.003369182    0.005141244   -0.001251488
     20        1           0.002203953    0.004341153   -0.000554439
     21        1           0.004749346    0.000430274    0.000026786
     22        1           0.002957745   -0.003913935    0.000595097
 -------------------------------------------------------------------
 Cartesian Forces:  Max     0.012699043 RMS     0.004994626

 GradGradGradGradGradGradGradGradGradGradGradGradGradGradGradGradGradGrad
 Berny optimization.
 FormGI is forming the generalized inverse of G from B-inverse, IUseBI=4.
 Internal  Forces:  Max     0.018378404 RMS     0.003732640
 Search for a local minimum.
 Step number   1 out of a maximum of  121 on scan point     1 out of    37
 All quantities printed in internal units (Hartrees-Bohrs-Radians)
 Mixed Optimization -- RFO/linear search
 Second derivative matrix not updated -- first step.
 ITU=  0
     Eigenvalues ---    0.01403   0.01688   0.02036   0.02037   0.02086
     Eigenvalues ---    0.02086   0.02099   0.02099   0.02131   0.02132
     Eigenvalues ---    0.02141   0.02141   0.02148   0.02148   0.02154
     Eigenvalues ---    0.02155   0.02156   0.02156   0.15994   0.15994
     Eigenvalues ---    0.15995   0.15995   0.15999   0.15999   0.15999
     Eigenvalues ---    0.15999   0.16000   0.16000   0.22000   0.22000
     Eigenvalues ---    0.22000   0.22000   0.23469   0.23469   0.25000
     Eigenvalues ---    0.25000   0.33917   0.35164   0.35165   0.35167
     Eigenvalues ---    0.35172   0.35193   0.35199   0.35213   0.35218
     Eigenvalues ---    0.35218   0.35222   0.41504   0.41514   0.41752
     Eigenvalues ---    0.41757   0.45173   0.45178   0.45627   0.45635
     Eigenvalues ---    0.46351   0.46354   0.46599   0.466221000.00000
     Eigenvalues --- 1000.000001000.000001000.000001000.000001000.00000
     Eigenvalues --- 1000.000001000.000001000.000001000.000001000.00000
     Eigenvalues --- 1000.000001000.000001000.000001000.000001000.00000
     Eigenvalues --- 1000.000001000.000001000.000001000.000001000.00000
     Eigenvalues --- 1000.000001000.000001000.000001000.000001000.00000
     Eigenvalues --- 1000.000001000.000001000.000001000.000001000.00000
     Eigenvalues --- 1000.000001000.000001000.000001000.000001000.00000
     Eigenvalues --- 1000.000001000.000001000.000001000.000001000.00000
     Eigenvalues --- 1000.000001000.000001000.000001000.000001000.00000
     Eigenvalues --- 1000.000001000.000001000.000001000.000001000.00000
     Eigenvalues --- 1000.00000
 RFO step:  Lambda=-4.23194662D-03 EMin= 1.40267354D-02
 Linear search not attempted -- first point.
 Iteration  1 RMS(Cart)=  0.03209756 RMS(Int)=  0.00007814
 Iteration  2 RMS(Cart)=  0.00011690 RMS(Int)=  0.00003356
 Iteration  3 RMS(Cart)=  0.00000001 RMS(Int)=  0.00003356
 Iteration  1 RMS(Cart)=  0.00001680 RMS(Int)=  0.00000763
 Iteration  2 RMS(Cart)=  0.00000998 RMS(Int)=  0.00000849
 Iteration  3 RMS(Cart)=  0.00000593 RMS(Int)=  0.00000968
 Iteration  4 RMS(Cart)=  0.00000353 RMS(Int)=  0.00001055
 Iteration  5 RMS(Cart)=  0.00000210 RMS(Int)=  0.00001111
 Iteration  6 RMS(Cart)=  0.00000125 RMS(Int)=  0.00001145
 Iteration  7 RMS(Cart)=  0.00000074 RMS(Int)=  0.00001166
 Variable       Old X    -DE/DX   Delta X   Delta X   Delta X     New X
                                 (Linear)    (Quad)   (Total)
    R1        2.63467  -0.00679   0.00000  -0.01445  -0.01445   2.62021
    R2        2.63834  -0.00670   0.00000  -0.01423  -0.01425   2.62409
    R3        2.05405   0.00490   0.00000   0.01376   0.01376   2.06781
    R4        2.65535  -0.01001   0.00000  -0.02229  -0.02226   2.63309
    R5        2.05330   0.00615   0.00000   0.01725   0.01725   2.07055
    R6        2.65569  -0.01012   0.00000  -0.02252  -0.02249   2.63320
    R7        2.80770  -0.01838   0.00000  -0.05352  -0.05352   2.75418
    R8        2.63456  -0.00674   0.00000  -0.01432  -0.01432   2.62024
    R9        2.05322   0.00618   0.00000   0.01734   0.01734   2.07056
   R10        2.63799  -0.00650   0.00000  -0.01379  -0.01381   2.62417
   R11        2.05409   0.00489   0.00000   0.01374   0.01374   2.06783
   R12        2.05353   0.00480   0.00000   0.01348   0.01348   2.06701
   R13        2.65572  -0.01013   0.00000  -0.02257  -0.02254   2.63317
   R14        2.65568  -0.01017   0.00000  -0.02266  -0.02263   2.63305
   R15        2.63433  -0.00662   0.00000  -0.01406  -0.01407   2.62027
   R16        2.05316   0.00620   0.00000   0.01740   0.01740   2.07056
   R17        2.63824  -0.00663   0.00000  -0.01407  -0.01410   2.62414
   R18        2.05408   0.00489   0.00000   0.01374   0.01374   2.06782
   R19        2.63819  -0.00662   0.00000  -0.01404  -0.01407   2.62412
   R20        2.05363   0.00477   0.00000   0.01339   0.01339   2.06701
   R21        2.63438  -0.00662   0.00000  -0.01408  -0.01408   2.62030
   R22        2.05397   0.00493   0.00000   0.01385   0.01385   2.06782
   R23        2.05323   0.00617   0.00000   0.01732   0.01732   2.07055
    A1        2.09889  -0.00043   0.00000  -0.00118  -0.00120   2.09769
    A2        2.08809   0.00040   0.00000   0.00179   0.00178   2.08987
    A3        2.09617   0.00002   0.00000  -0.00053  -0.00054   2.09563
    A4        2.11140  -0.00284   0.00000  -0.01241  -0.01241   2.09899
    A5        2.08794   0.00123   0.00000   0.00524   0.00516   2.09310
    A6        2.08352   0.00162   0.00000   0.00761   0.00753   2.09106
    A7        2.06106   0.00557   0.00000   0.02182   0.02189   2.08295
    A8        2.11178  -0.00293   0.00000  -0.01147  -0.01152   2.10027
    A9        2.11034  -0.00264   0.00000  -0.01036  -0.01040   2.09993
   A10        2.11147  -0.00288   0.00000  -0.01255  -0.01255   2.09891
   A11        2.08360   0.00164   0.00000   0.00768   0.00760   2.09120
   A12        2.08779   0.00126   0.00000   0.00535   0.00526   2.09305
   A13        2.09887  -0.00043   0.00000  -0.00115  -0.00117   2.09770
   A14        2.08813   0.00040   0.00000   0.00174   0.00174   2.08986
   A15        2.09615   0.00003   0.00000  -0.00052  -0.00053   2.09562
   A16        2.08468   0.00101   0.00000   0.00548   0.00544   2.09012
   A17        2.09907  -0.00049   0.00000  -0.00266  -0.00264   2.09642
   A18        2.09944  -0.00052   0.00000  -0.00282  -0.00280   2.09664
   A19        2.11092  -0.00272   0.00000  -0.01064  -0.01069   2.10023
   A20        2.11128  -0.00287   0.00000  -0.01122  -0.01127   2.10000
   A21        2.06098   0.00559   0.00000   0.02187   0.02194   2.08292
   A22        2.11150  -0.00287   0.00000  -0.01253  -0.01253   2.09897
   A23        2.08329   0.00166   0.00000   0.00781   0.00773   2.09102
   A24        2.08807   0.00122   0.00000   0.00517   0.00509   2.09316
   A25        2.09882  -0.00042   0.00000  -0.00111  -0.00113   2.09769
   A26        2.08813   0.00040   0.00000   0.00177   0.00177   2.08990
   A27        2.09620   0.00002   0.00000  -0.00060  -0.00060   2.09559
   A28        2.08474   0.00098   0.00000   0.00539   0.00535   2.09009
   A29        2.09922  -0.00049   0.00000  -0.00270  -0.00268   2.09654
   A30        2.09923  -0.00049   0.00000  -0.00269  -0.00267   2.09656
   A31        2.09889  -0.00043   0.00000  -0.00117  -0.00119   2.09770
   A32        2.09607   0.00003   0.00000  -0.00050  -0.00051   2.09556
   A33        2.08818   0.00040   0.00000   0.00175   0.00174   2.08992
   A34        2.11143  -0.00285   0.00000  -0.01245  -0.01245   2.09898
   A35        2.08358   0.00161   0.00000   0.00754   0.00746   2.09105
   A36        2.08782   0.00125   0.00000   0.00538   0.00530   2.09312
    D1       -0.00121  -0.00002   0.00000   0.00043   0.00042  -0.00079
    D2        3.11286   0.00045   0.00000   0.01888   0.01886   3.13172
    D3       -3.13304  -0.00024   0.00000  -0.00839  -0.00840  -3.14144
    D4       -0.01897   0.00024   0.00000   0.01006   0.01004  -0.00893
    D5        0.00042   0.00002   0.00000   0.00150   0.00150   0.00191
    D6       -3.14107   0.00001   0.00000   0.00033   0.00033  -3.14074
    D7        3.13220   0.00023   0.00000   0.01037   0.01036  -3.14062
    D8       -0.00928   0.00023   0.00000   0.00920   0.00919  -0.00009
    D9        0.00083   0.00001   0.00000  -0.00344  -0.00349  -0.00266
   D10       -3.13982  -0.00000   0.00000   0.00426   0.00430  -3.13552
   D11       -3.11331  -0.00046   0.00000  -0.02180  -0.02187  -3.13518
   D12        0.02922  -0.00047   0.00000  -0.01410  -0.01408   0.01514
   D13        0.00033   0.00002   0.00000   0.00463   0.00467   0.00500
   D14       -3.11328  -0.00046   0.00000  -0.01540  -0.01536  -3.12864
   D15        3.14098   0.00003   0.00000  -0.00307  -0.00312   3.13787
   D16        0.02738  -0.00045   0.00000  -0.02310  -0.02315   0.00423
   D17       -2.47667   0.00044   0.00000   0.01038   0.01030  -2.46638
   D18        0.66659   0.00040   0.00000   0.00000   0.00000   0.66660
   D19        0.66588   0.00042   0.00000   0.01827   0.01815   0.68403
   D20       -2.47404   0.00038   0.00000   0.00790   0.00785  -2.46618
   D21       -0.00111  -0.00003   0.00000  -0.00281  -0.00280  -0.00391
   D22       -3.13280  -0.00024   0.00000  -0.01076  -0.01075   3.13963
   D23        3.11243   0.00046   0.00000   0.01730   0.01730   3.12973
   D24       -0.01926   0.00025   0.00000   0.00935   0.00934  -0.00992
   D25        0.00073   0.00001   0.00000  -0.00031  -0.00030   0.00043
   D26       -3.14097   0.00001   0.00000   0.00086   0.00086  -3.14011
   D27        3.13238   0.00023   0.00000   0.00769   0.00769   3.14007
   D28       -0.00933   0.00023   0.00000   0.00886   0.00886  -0.00047
   D29       -3.13923  -0.00002   0.00000  -0.00533  -0.00539   3.13857
   D30        0.02978  -0.00048   0.00000  -0.02462  -0.02468   0.00510
   D31        0.00074   0.00002   0.00000   0.00472   0.00477   0.00551
   D32       -3.11344  -0.00045   0.00000  -0.01456  -0.01452  -3.12796
   D33        3.14033   0.00005   0.00000   0.00666   0.00671  -3.13615
   D34        0.02713  -0.00045   0.00000  -0.01282  -0.01278   0.01435
   D35        0.00036   0.00001   0.00000  -0.00339  -0.00345  -0.00309
   D36       -3.11284  -0.00048   0.00000  -0.02288  -0.02294  -3.13578
   D37       -0.00113  -0.00003   0.00000  -0.00299  -0.00298  -0.00411
   D38       -3.13332  -0.00023   0.00000  -0.01033  -0.01032   3.13954
   D39        3.11297   0.00044   0.00000   0.01639   0.01638   3.12936
   D40       -0.01922   0.00024   0.00000   0.00904   0.00903  -0.01018
   D41        0.00040   0.00002   0.00000  -0.00018  -0.00017   0.00023
   D42       -3.14130   0.00002   0.00000   0.00117   0.00117  -3.14013
   D43        3.13255   0.00022   0.00000   0.00721   0.00721   3.13976
   D44       -0.00915   0.00023   0.00000   0.00856   0.00855  -0.00060
   D45        0.00069   0.00002   0.00000   0.00150   0.00150   0.00220
   D46        3.13230   0.00024   0.00000   0.01066   0.01065  -3.14023
   D47       -3.14079   0.00001   0.00000   0.00016   0.00016  -3.14063
   D48       -0.00918   0.00023   0.00000   0.00931   0.00931   0.00013
   D49       -0.00108  -0.00003   0.00000   0.00033   0.00033  -0.00075
   D50        3.11205   0.00047   0.00000   0.01990   0.01988   3.13193
   D51       -3.13274  -0.00025   0.00000  -0.00877  -0.00877  -3.14151
   D52       -0.01961   0.00026   0.00000   0.01079   0.01078  -0.00883
         Item               Value     Threshold  Converged?
 Maximum Force            0.018378     0.000450     NO 
 RMS     Force            0.003749     0.000300     NO 
 Maximum Displacement     0.090507     0.001800     NO 
 RMS     Displacement     0.032093     0.001200     NO 
 Predicted change in Energy=-2.153091D-03
 GradGradGradGradGradGradGradGradGradGradGradGradGradGradGradGradGradGrad

                          Input orientation:                          
 ---------------------------------------------------------------------
 Center     Atomic      Atomic             Coordinates (Angstroms)
 Number     Number       Type             X           Y           Z
 ---------------------------------------------------------------------
      1          6           0       -2.900433   -0.645588    0.840896
      2          6           0       -1.519715   -0.518962    0.852070
      3          6           0       -0.893836    0.418174    0.032595
      4          6           0       -1.668902    1.223477   -0.799515
      5          6           0       -3.049624    1.096428   -0.806437
      6          6           0       -3.669006    0.161967    0.013016
      7          6           0        0.557863    0.547427    0.037497
      8          6           0        1.152795    1.804205   -0.052884
      9          6           0        2.534022    1.925720   -0.044476
     10          6           0        3.333831    0.795281    0.059055
     11          6           0        2.745369   -0.458901    0.153991
     12          6           0        1.364447   -0.583823    0.142951
     13          1           0        0.904809   -1.576249    0.208960
     14          1           0       -3.383048   -1.384265    1.488043
     15          1           0       -0.918086   -1.151968    1.513795
     16          1           0       -1.183993    1.954508   -1.456022
     17          1           0       -3.650171    1.734465   -1.461900
     18          1           0       -4.758183    0.061626    0.005737
     19          1           0        0.525625    2.699897   -0.123168
     20          1           0        2.992249    2.916688   -0.117837
     21          1           0        4.423290    0.892504    0.066960
     22          1           0        3.370696   -1.353012    0.237072
 ---------------------------------------------------------------------
                    Distance matrix (angstroms):
                    1          2          3          4          5
     1  C    0.000000
     2  C    1.386557   0.000000
     3  C    2.410679   1.393373   0.000000
     4  C    2.775072   2.405428   1.393430   0.000000
     5  C    2.402204   2.775023   2.410690   1.386573   0.000000
     6  C    1.388609   2.405645   2.787040   2.405707   1.388652
     7  C    3.745470   2.473266   1.457449   2.473077   3.745342
     8  C    4.819646   3.654909   2.473275   2.976017   4.327715
     9  C    6.076908   4.817992   3.745510   4.327562   5.696087
    10  C    6.446195   5.090483   4.244535   5.093901   6.448897
    11  C    5.690499   4.322252   3.745372   4.819269   6.076465
    12  C    4.322053   2.970766   2.473058   3.654556   4.817532
    13  H    3.968040   2.722088   2.691459   3.934397   4.879732
    14  H    1.094239   2.150633   3.400484   3.869307   3.395534
    15  H    2.153813   1.095689   2.158677   3.399686   3.870687
    16  H    3.870723   3.399713   2.158818   1.095693   2.153797
    17  H    3.395530   3.869267   3.400517   2.150649   1.094248
    18  H    2.156126   3.397211   3.880854   3.397351   2.156297
    19  H    4.884625   3.936439   2.691726   2.730056   3.977484
    20  H    6.952171   5.753453   4.622430   5.005794   6.347578
    21  H    7.523405   6.158567   5.338352   6.162396   7.526544
    22  H    6.339725   4.998999   4.622245   5.754160   6.950481
                    6          7          8          9         10
     6  C    0.000000
     7  C    4.244478   0.000000
     8  C    5.094218   1.393415   0.000000
     9  C    6.449161   2.410729   1.386587   0.000000
    10  C    7.031567   2.787095   2.405696   1.388634   0.000000
    11  C    6.445895   2.410695   2.775021   2.402181   1.388623
    12  C    5.090062   1.393350   2.405374   2.775038   2.405710
    13  H    4.896894   2.158650   3.399636   3.870704   3.398054
    14  H    2.155994   4.622369   5.754535   6.950995   7.204783
    15  H    3.397988   2.691807   3.934716   4.880310   4.897637
    16  H    3.398023   2.691568   2.729829   3.977050   4.904080
    17  H    2.156034   4.622207   5.005864   6.347433   7.209136
    18  H    1.093814   5.338291   6.162766   7.526860   8.125379
    19  H    4.904545   2.158698   1.095694   2.153880   3.398056
    20  H    7.209572   3.400554   2.150681   1.094245   2.156000
    21  H    8.125383   3.880912   3.397308   2.156221   1.093817
    22  H    7.204358   3.400519   3.869261   3.395493   2.155971
                   11         12         13         14         15
    11  C    0.000000
    12  C    1.386605   0.000000
    13  H    2.153868   1.095689   0.000000
    14  H    6.339834   4.998869   4.478686   0.000000
    15  H    3.968667   2.722492   2.281569   2.476017   0.000000
    16  H    4.884319   3.936291   4.427359   4.964954   4.305893
    17  H    6.951610   5.752947   5.873708   4.301162   4.964931
    18  H    7.523047   6.158087   5.898595   2.485725   4.300395
    19  H    3.870669   3.399596   4.305753   5.878274   4.427280
    20  H    3.395503   3.869280   4.964945   7.856301   5.874258
    21  H    2.156221   3.397328   4.300536   8.254821   5.899449
    22  H    1.094244   2.150708   2.476131   6.868695   4.479297
                   16         17         18         19         20
    16  H    0.000000
    17  H    2.475982   0.000000
    18  H    4.300532   2.485968   0.000000
    19  H    2.292357   4.490160   5.907260   0.000000
    20  H    4.489714   6.879382   8.260499   2.476138   0.000000
    21  H    5.906688   8.259969   9.219195   4.300536   2.485830
    22  H    5.878048   7.855672   8.254296   4.964903   4.301107
                   21         22
    21  H    0.000000
    22  H    2.485806   0.000000
 Stoichiometry    C12H10
 Framework group  C1[X(C12H10)]
 Deg. of freedom    60
 Full point group                 C1      NOp   1
 Largest Abelian subgroup         C1      NOp   1
 Largest concise Abelian subgroup C1      NOp   1
                         Standard orientation:                         
 ---------------------------------------------------------------------
 Center     Atomic      Atomic             Coordinates (Angstroms)
 Number     Number       Type             X           Y           Z
 ---------------------------------------------------------------------
      1          6           0        2.817614    1.134590    0.396444
      2          6           0        1.431059    1.133869    0.398877
      3          6           0        0.728732   -0.002565    0.002973
      4          6           0        1.433583   -1.135747   -0.397940
      5          6           0        2.820152   -1.132912   -0.396660
      6          6           0        3.515768    0.001598    0.000029
      7          6           0       -0.728708   -0.002577   -0.002295
      8          6           0       -1.433890   -1.135585    0.398474
      9          6           0       -2.820472   -1.132740    0.396289
     10          6           0       -3.515799    0.001729   -0.000959
     11          6           0       -2.817326    1.134745   -0.396793
     12          6           0       -1.430722    1.133953   -0.398403
     13          1           0       -0.883947    2.027270   -0.720205
     14          1           0        3.360524    2.031708    0.709156
     15          1           0        0.884541    2.027110    0.721324
     16          1           0        0.889141   -2.029535   -0.722396
     17          1           0        3.365098   -2.028095   -0.711397
     18          1           0        4.609580    0.003203   -0.000670
     19          1           0       -0.889558   -2.029167    0.723679
     20          1           0       -3.365661   -2.027835    0.710846
     21          1           0       -4.609615    0.003239   -0.000961
     22          1           0       -3.360051    2.031950   -0.709590
 ---------------------------------------------------------------------
 Rotational constants (GHZ):      2.8713444      0.5614193      0.4870726
 Standard basis: VSTO-6G (5D, 7F)
 There are    58 symmetry adapted cartesian basis functions of A   symmetry.
 There are    58 symmetry adapted basis functions of A   symmetry.
    58 basis functions,   348 primitive gaussians,    58 cartesian basis functions
    29 alpha electrons       29 beta electrons
       nuclear repulsion energy       320.2806983901 Hartrees.
 Integral buffers will be    131072 words long.
 Regular integral format.
 Two-electron integral symmetry is turned off.
 Do NDO integrals.
 One-electron integrals computed using PRISM.
 NBasis=    58 RedAO= F EigKep=  0.00D+00  NBF=    58
 NBsUse=    58 1.00D-04 EigRej=  0.00D+00 NBFU=    58
 Initial guess from the checkpoint file:  "bi-phenyl-opt.chk"
 B after Tr=     0.000000   -0.000000    0.000000
         Rot=    1.000000    0.000007    0.000117   -0.000051 Ang=   0.01 deg.
 Overlap will be assumed to be unity.
 Keep J ints in memory in canonical form, NReq=912245.
 Requested convergence on RMS density matrix=1.00D-08 within 128 cycles.
 Requested convergence on MAX density matrix=1.00D-06.
 Requested convergence on             energy=1.00D-06.
 No special actions if energy rises.
 SCF Done:  E(RPM3) =  0.770849375579E-01 A.U. after   10 cycles
            NFock=  9  Conv=0.60D-08     -V/T= 1.0021
 Calling FoFJK, ICntrl=      2127 FMM=F ISym2X=0 I1Cent= 0 IOpClX= 0 NMat=1 NMatS=1 NMatT=0.
 ***** Axes restored to original set *****
 -------------------------------------------------------------------
 Center     Atomic                   Forces (Hartrees/Bohr)
 Number     Number              X              Y              Z
 -------------------------------------------------------------------
      1        6          -0.002433307   -0.002080470    0.001836595
      2        6           0.000404872   -0.003098077    0.004267692
      3        6          -0.003435116   -0.000834806   -0.000911452
      4        6          -0.000123105    0.003532801   -0.003795296
      5        6          -0.002751037    0.001592133   -0.001859166
      6        6          -0.002680410   -0.000253286   -0.000058104
      7        6           0.003453708    0.000581781    0.001036441
      8        6          -0.000653017    0.005167760   -0.000084405
      9        6           0.002330614    0.002831480   -0.000109160
     10        6           0.002672427    0.000241926    0.000059005
     11        6           0.002795563   -0.002368529    0.000159178
     12        6           0.000411133   -0.005266025   -0.000524330
     13        1           0.000065904   -0.000723740    0.000097122
     14        1          -0.000398999   -0.000264412    0.000301419
     15        1           0.000051346   -0.000561705    0.000465429
     16        1          -0.000025991    0.000542658   -0.000436416
     17        1          -0.000435532    0.000181468   -0.000303946
     18        1          -0.000626759   -0.000035832    0.000000875
     19        1          -0.000069220    0.000690582   -0.000126184
     20        1           0.000379795    0.000410507    0.000037443
     21        1           0.000622841    0.000053507   -0.000015638
     22        1           0.000444293   -0.000339720   -0.000037102
 -------------------------------------------------------------------
 Cartesian Forces:  Max     0.005266025 RMS     0.001781689

 GradGradGradGradGradGradGradGradGradGradGradGradGradGradGradGradGradGrad
 Berny optimization.
 Using GEDIIS/GDIIS optimizer.
 FormGI is forming the generalized inverse of G from B-inverse, IUseBI=4.
 Internal  Forces:  Max     0.012520027 RMS     0.002180890
 Search for a local minimum.
 Step number   2 out of a maximum of  121 on scan point     1 out of    37
 All quantities printed in internal units (Hartrees-Bohrs-Radians)
 Mixed Optimization -- RFO/linear search
 Update second derivatives using D2CorX and points    1    2
 DE= -1.26D-03 DEPred=-2.15D-03 R= 5.87D-01
 TightC=F SS=  1.41D+00  RLast= 1.33D-01 DXNew= 5.0454D-01 3.9909D-01
 Trust test= 5.87D-01 RLast= 1.33D-01 DXMaxT set to 3.99D-01
 ITU=  1  0
 Use linear search instead of GDIIS.
     Eigenvalues ---    0.01403   0.01696   0.02035   0.02036   0.02078
     Eigenvalues ---    0.02085   0.02098   0.02098   0.02129   0.02131
     Eigenvalues ---    0.02141   0.02141   0.02148   0.02148   0.02154
     Eigenvalues ---    0.02155   0.02156   0.02156   0.15953   0.15999
     Eigenvalues ---    0.16000   0.16000   0.16000   0.16000   0.16000
     Eigenvalues ---    0.16000   0.16000   0.16000   0.21998   0.22000
     Eigenvalues ---    0.22000   0.22000   0.22860   0.23478   0.24999
     Eigenvalues ---    0.25000   0.32324   0.35165   0.35166   0.35170
     Eigenvalues ---    0.35181   0.35195   0.35203   0.35215   0.35218
     Eigenvalues ---    0.35221   0.36399   0.41417   0.41768   0.41773
     Eigenvalues ---    0.42221   0.45163   0.45168   0.45631   0.46315
     Eigenvalues ---    0.46351   0.46353   0.46611   0.688491000.00000
     Eigenvalues --- 1000.000001000.000001000.000001000.000001000.00000
     Eigenvalues --- 1000.000001000.000001000.000001000.000001000.00000
     Eigenvalues --- 1000.000001000.000001000.000001000.000001000.00000
     Eigenvalues --- 1000.000001000.000001000.000001000.000001000.00000
     Eigenvalues --- 1000.000001000.000001000.000001000.000001000.00000
     Eigenvalues --- 1000.000001000.000001000.000001000.000001000.00000
     Eigenvalues --- 1000.000001000.000001000.000001000.000001000.00000
     Eigenvalues --- 1000.000001000.000001000.000001000.000001000.00000
     Eigenvalues --- 1000.000001000.000001000.000001000.000001000.00000
     Eigenvalues --- 1000.000001000.000001000.000001000.000001000.00000
     Eigenvalues --- 1000.00000
 RFO step:  Lambda=-3.10932661D-04 EMin= 1.40263907D-02
 Quartic linear search produced a step of -0.28853.
 Iteration  1 RMS(Cart)=  0.01348627 RMS(Int)=  0.00003202
 Iteration  2 RMS(Cart)=  0.00006584 RMS(Int)=  0.00001096
 Iteration  3 RMS(Cart)=  0.00000000 RMS(Int)=  0.00001096
 Iteration  1 RMS(Cart)=  0.00000684 RMS(Int)=  0.00000310
 Iteration  2 RMS(Cart)=  0.00000406 RMS(Int)=  0.00000345
 Iteration  3 RMS(Cart)=  0.00000241 RMS(Int)=  0.00000393
 Iteration  4 RMS(Cart)=  0.00000143 RMS(Int)=  0.00000428
 Iteration  5 RMS(Cart)=  0.00000085 RMS(Int)=  0.00000451
 Variable       Old X    -DE/DX   Delta X   Delta X   Delta X     New X
                                 (Linear)    (Quad)   (Total)
    R1        2.62021   0.00470   0.00417   0.00192   0.00609   2.62631
    R2        2.62409   0.00341   0.00411  -0.00020   0.00392   2.62801
    R3        2.06781   0.00053  -0.00397   0.00611   0.00214   2.06995
    R4        2.63309   0.00743   0.00642   0.00398   0.01040   2.64349
    R5        2.07055   0.00063  -0.00498   0.00759   0.00261   2.07316
    R6        2.63320   0.00735   0.00649   0.00378   0.01026   2.64346
    R7        2.75418   0.01252   0.01544   0.00663   0.02207   2.77625
    R8        2.62024   0.00467   0.00413   0.00192   0.00605   2.62629
    R9        2.07056   0.00061  -0.00500   0.00758   0.00257   2.07313
   R10        2.62417   0.00336   0.00399  -0.00012   0.00387   2.62804
   R11        2.06783   0.00053  -0.00396   0.00609   0.00213   2.06995
   R12        2.06701   0.00063  -0.00389   0.00620   0.00231   2.06932
   R13        2.63317   0.00736   0.00650   0.00377   0.01027   2.64344
   R14        2.63305   0.00747   0.00653   0.00392   0.01044   2.64349
   R15        2.62027   0.00464   0.00406   0.00197   0.00603   2.62630
   R16        2.07056   0.00061  -0.00502   0.00760   0.00258   2.07314
   R17        2.62414   0.00339   0.00407  -0.00018   0.00390   2.62803
   R18        2.06782   0.00053  -0.00396   0.00609   0.00213   2.06995
   R19        2.62412   0.00339   0.00406  -0.00017   0.00390   2.62801
   R20        2.06701   0.00063  -0.00386   0.00616   0.00230   2.06931
   R21        2.62030   0.00464   0.00406   0.00197   0.00603   2.62633
   R22        2.06782   0.00053  -0.00400   0.00614   0.00214   2.06996
   R23        2.07055   0.00063  -0.00500   0.00761   0.00262   2.07317
    A1        2.09769   0.00042   0.00035   0.00028   0.00063   2.09832
    A2        2.08987  -0.00003  -0.00051   0.00112   0.00061   2.09048
    A3        2.09563  -0.00039   0.00016  -0.00140  -0.00124   2.09439
    A4        2.09899   0.00010   0.00358  -0.00380  -0.00022   2.09877
    A5        2.09310  -0.00042  -0.00149  -0.00017  -0.00164   2.09146
    A6        2.09106   0.00032  -0.00217   0.00404   0.00188   2.09294
    A7        2.08295  -0.00170  -0.00632   0.00418  -0.00217   2.08078
    A8        2.10027   0.00096   0.00332  -0.00204   0.00127   2.10154
    A9        2.09993   0.00074   0.00300  -0.00225   0.00074   2.10068
   A10        2.09891   0.00014   0.00362  -0.00376  -0.00013   2.09879
   A11        2.09120   0.00027  -0.00219   0.00386   0.00169   2.09288
   A12        2.09305  -0.00041  -0.00152  -0.00003  -0.00154   2.09151
   A13        2.09770   0.00042   0.00034   0.00026   0.00060   2.09830
   A14        2.08986  -0.00002  -0.00050   0.00113   0.00063   2.09050
   A15        2.09562  -0.00040   0.00015  -0.00139  -0.00123   2.09439
   A16        2.09012   0.00062  -0.00157   0.00282   0.00126   2.09138
   A17        2.09642  -0.00030   0.00076  -0.00133  -0.00057   2.09586
   A18        2.09664  -0.00032   0.00081  -0.00150  -0.00069   2.09595
   A19        2.10023   0.00069   0.00309  -0.00250   0.00057   2.10080
   A20        2.10000   0.00100   0.00325  -0.00183   0.00141   2.10141
   A21        2.08292  -0.00169  -0.00633   0.00422  -0.00215   2.08077
   A22        2.09897   0.00012   0.00362  -0.00379  -0.00017   2.09880
   A23        2.09102   0.00029  -0.00223   0.00401   0.00179   2.09281
   A24        2.09316  -0.00042  -0.00147  -0.00014  -0.00159   2.09157
   A25        2.09769   0.00042   0.00033   0.00028   0.00061   2.09830
   A26        2.08990  -0.00003  -0.00051   0.00112   0.00061   2.09051
   A27        2.09559  -0.00039   0.00017  -0.00139  -0.00122   2.09437
   A28        2.09009   0.00063  -0.00154   0.00282   0.00128   2.09137
   A29        2.09654  -0.00032   0.00077  -0.00141  -0.00064   2.09590
   A30        2.09656  -0.00032   0.00077  -0.00141  -0.00064   2.09591
   A31        2.09770   0.00042   0.00034   0.00027   0.00061   2.09832
   A32        2.09556  -0.00039   0.00015  -0.00135  -0.00120   2.09436
   A33        2.08992  -0.00003  -0.00050   0.00108   0.00058   2.09050
   A34        2.09898   0.00010   0.00359  -0.00381  -0.00022   2.09877
   A35        2.09105   0.00033  -0.00215   0.00403   0.00190   2.09294
   A36        2.09312  -0.00043  -0.00153  -0.00015  -0.00166   2.09146
    D1       -0.00079   0.00005  -0.00012   0.00491   0.00479   0.00401
    D2        3.13172   0.00003  -0.00544   0.01334   0.00790   3.13963
    D3       -3.14144   0.00003   0.00242  -0.00137   0.00105  -3.14038
    D4       -0.00893   0.00002  -0.00290   0.00706   0.00416  -0.00476
    D5        0.00191  -0.00007  -0.00043   0.00022  -0.00021   0.00170
    D6       -3.14074  -0.00003  -0.00010  -0.00126  -0.00135   3.14110
    D7       -3.14062  -0.00005  -0.00299   0.00653   0.00354  -3.13708
    D8       -0.00009  -0.00001  -0.00265   0.00505   0.00240   0.00231
    D9       -0.00266   0.00007   0.00101  -0.00780  -0.00677  -0.00943
   D10       -3.13552  -0.00016  -0.00124   0.00652   0.00527  -3.13026
   D11       -3.13518   0.00009   0.00631  -0.01619  -0.00986   3.13815
   D12        0.01514  -0.00014   0.00406  -0.00187   0.00217   0.01732
   D13        0.00500  -0.00015  -0.00135   0.00561   0.00424   0.00924
   D14       -3.12864  -0.00011   0.00443  -0.00489  -0.00048  -3.12912
   D15        3.13787   0.00007   0.00090  -0.00871  -0.00779   3.13008
   D16        0.00423   0.00012   0.00668  -0.01921  -0.01251  -0.00828
   D17       -2.46638   0.00085  -0.00297   0.01590   0.01296  -2.45342
   D18        0.66660   0.00106  -0.00000   0.00000  -0.00001   0.66659
   D19        0.68403   0.00064  -0.00524   0.03033   0.02514   0.70917
   D20       -2.46618   0.00085  -0.00227   0.01443   0.01218  -2.45400
   D21       -0.00391   0.00013   0.00081  -0.00053   0.00027  -0.00363
   D22        3.13963   0.00009   0.00310  -0.00517  -0.00207   3.13756
   D23        3.12973   0.00008  -0.00499   0.01000   0.00501   3.13473
   D24       -0.00992   0.00004  -0.00270   0.00536   0.00266  -0.00726
   D25        0.00043  -0.00002   0.00009  -0.00240  -0.00232  -0.00189
   D26       -3.14011  -0.00006  -0.00025  -0.00092  -0.00118  -3.14128
   D27        3.14007   0.00002  -0.00222   0.00226   0.00003   3.14010
   D28       -0.00047  -0.00002  -0.00256   0.00373   0.00118   0.00071
   D29        3.13857   0.00006   0.00156  -0.01028  -0.00870   3.12987
   D30        0.00510   0.00011   0.00712  -0.02046  -0.01331  -0.00822
   D31        0.00551  -0.00016  -0.00138   0.00549   0.00409   0.00960
   D32       -3.12796  -0.00011   0.00419  -0.00469  -0.00052  -3.12848
   D33       -3.13615  -0.00015  -0.00194   0.00812   0.00617  -3.12998
   D34        0.01435  -0.00013   0.00369  -0.00077   0.00290   0.01724
   D35       -0.00309   0.00007   0.00100  -0.00765  -0.00663  -0.00972
   D36       -3.13578   0.00010   0.00662  -0.01655  -0.00990   3.13750
   D37       -0.00411   0.00013   0.00086  -0.00055   0.00031  -0.00380
   D38        3.13954   0.00009   0.00298  -0.00496  -0.00199   3.13755
   D39        3.12936   0.00009  -0.00473   0.00966   0.00493   3.13429
   D40       -0.01018   0.00004  -0.00261   0.00525   0.00264  -0.00755
   D41        0.00023  -0.00002   0.00005  -0.00227  -0.00222  -0.00199
   D42       -3.14013  -0.00006  -0.00034  -0.00085  -0.00119  -3.14132
   D43        3.13976   0.00003  -0.00208   0.00216   0.00008   3.13984
   D44       -0.00060  -0.00002  -0.00247   0.00358   0.00111   0.00051
   D45        0.00220  -0.00007  -0.00043   0.00012  -0.00032   0.00188
   D46       -3.14023  -0.00006  -0.00307   0.00649   0.00342  -3.13681
   D47       -3.14063  -0.00003  -0.00005  -0.00130  -0.00135   3.14121
   D48        0.00013  -0.00002  -0.00269   0.00508   0.00239   0.00252
   D49       -0.00075   0.00005  -0.00010   0.00488   0.00478   0.00404
   D50        3.13193   0.00003  -0.00574   0.01380   0.00807   3.14000
   D51       -3.14151   0.00004   0.00253  -0.00148   0.00105  -3.14046
   D52       -0.00883   0.00002  -0.00311   0.00745   0.00434  -0.00449
         Item               Value     Threshold  Converged?
 Maximum Force            0.012520     0.000450     NO 
 RMS     Force            0.002185     0.000300     NO 
 Maximum Displacement     0.033808     0.001800     NO 
 RMS     Displacement     0.013499     0.001200     NO 
 Predicted change in Energy=-4.061027D-04
 GradGradGradGradGradGradGradGradGradGradGradGradGradGradGradGradGradGrad

                          Input orientation:                          
 ---------------------------------------------------------------------
 Center     Atomic      Atomic             Coordinates (Angstroms)
 Number     Number       Type             X           Y           Z
 ---------------------------------------------------------------------
      1          6           0       -2.911998   -0.642616    0.849179
      2          6           0       -1.528051   -0.515834    0.859647
      3          6           0       -0.900077    0.422634    0.033948
      4          6           0       -1.680441    1.221598   -0.808370
      5          6           0       -3.063944    1.089847   -0.814378
      6          6           0       -3.682172    0.159506    0.014059
      7          6           0        0.563536    0.549793    0.031760
      8          6           0        1.163687    1.810902   -0.047000
      9          6           0        2.548353    1.929368   -0.034848
     10          6           0        3.347206    0.794987    0.060282
     11          6           0        2.757105   -0.461380    0.145864
     12          6           0        1.373000   -0.586473    0.134353
     13          1           0        0.914327   -1.580851    0.200699
     14          1           0       -3.395694   -1.379253    1.499751
     15          1           0       -0.926866   -1.150626    1.522353
     16          1           0       -1.198967    1.953056   -1.469189
     17          1           0       -3.667739    1.722115   -1.474311
     18          1           0       -4.772411    0.057350    0.007329
     19          1           0        0.539468    2.710467   -0.115325
     20          1           0        3.010139    2.920454   -0.100739
     21          1           0        4.437982    0.890963    0.069917
     22          1           0        3.383559   -1.356407    0.225419
 ---------------------------------------------------------------------
                    Distance matrix (angstroms):
                    1          2          3          4          5
     1  C    0.000000
     2  C    1.389781   0.000000
     3  C    2.418096   1.398876   0.000000
     4  C    2.781995   2.413333   1.398861   0.000000
     5  C    2.406645   2.782004   2.418088   1.389775   0.000000
     6  C    1.390681   2.410672   2.794581   2.410675   1.390701
     7  C    3.764220   2.489116   1.469128   2.488489   3.763805
     8  C    4.840878   3.671671   2.488566   3.002671   4.356795
     9  C    6.100167   4.836963   3.763861   4.356831   5.728032
    10  C    6.470448   5.111298   4.263655   5.119941   6.477254
    11  C    5.715437   4.344538   3.764171   4.840950   6.100245
    12  C    4.344575   2.991177   2.489028   3.671696   4.837005
    13  H    3.992690   2.744756   2.708103   3.950286   4.897923
    14  H    1.095372   2.154835   3.409323   3.877363   3.400251
    15  H    2.156846   1.097070   2.165922   3.409926   3.879064
    16  H    3.879023   3.409867   2.165859   1.097055   2.156861
    17  H    3.400251   3.877376   3.409318   2.154843   1.095373
    18  H    2.158657   3.403066   3.889616   3.403104   2.158729
    19  H    4.907754   3.954014   2.707167   2.761347   4.012439
    20  H    6.976354   5.772832   4.641878   5.038690   6.383956
    21  H    7.548597   6.180315   5.358684   6.189976   7.556482
    22  H    6.366523   5.023219   4.642326   5.775719   6.973926
                    6          7          8          9         10
     6  C    0.000000
     7  C    4.263646   0.000000
     8  C    5.119882   1.398849   0.000000
     9  C    6.477210   2.418090   1.389778   0.000000
    10  C    7.058196   2.794593   2.410673   1.390696   0.000000
    11  C    6.470484   2.418105   2.781985   2.406638   1.390684
    12  C    5.111332   1.398877   2.413318   2.782003   2.410686
    13  H    4.918483   2.165926   3.409915   3.879067   3.403414
    14  H    2.158038   4.642383   5.775594   6.973784   7.229530
    15  H    3.403397   2.708245   3.950181   4.897794   4.918410
    16  H    3.403403   2.707104   2.761334   4.012518   4.934379
    17  H    2.158054   4.641797   5.038629   6.383950   7.240442
    18  H    1.095035   5.358678   6.189924   7.556442   8.153226
    19  H    4.934206   2.165809   1.097058   2.156899   3.403424
    20  H    7.240375   3.409318   2.154850   1.095372   2.158043
    21  H    8.153223   3.889625   3.403081   2.158693   1.095032
    22  H    7.229608   3.409345   3.877356   3.400239   2.158029
                   11         12         13         14         15
    11  C    0.000000
    12  C    1.389794   0.000000
    13  H    2.156862   1.097073   0.000000
    14  H    6.366509   5.023272   4.506047   0.000000
    15  H    3.992672   2.744849   2.306915   2.479495   0.000000
    16  H    4.907994   3.954184   4.443313   4.974384   4.319283
    17  H    6.976477   5.772904   5.891567   4.305523   4.974437
    18  H    7.548634   6.180349   5.921155   2.487267   4.306126
    19  H    3.879014   3.409829   4.319236   5.900829   4.442991
    20  H    3.400241   3.877374   4.974438   7.879324   5.891361
    21  H    2.158691   3.403099   4.306171   8.280385   5.921085
    22  H    1.095376   2.154864   2.479535   6.898023   4.506013
                   16         17         18         19         20
    16  H    0.000000
    17  H    2.479556   0.000000
    18  H    4.306194   2.487368   0.000000
    19  H    2.329973   4.530372   5.938866   0.000000
    20  H    4.530462   6.922194   8.293198   2.479622   0.000000
    21  H    5.939030   8.293260   9.248252   4.306196   2.487306
    22  H    5.901168   7.879542   8.280466   4.974377   4.305503
                   21         22
    21  H    0.000000
    22  H    2.487299   0.000000
 Stoichiometry    C12H10
 Framework group  C1[X(C12H10)]
 Deg. of freedom    60
 Full point group                 C1      NOp   1
 Largest Abelian subgroup         C1      NOp   1
 Largest concise Abelian subgroup C1      NOp   1
                         Standard orientation:                         
 ---------------------------------------------------------------------
 Center     Atomic      Atomic             Coordinates (Angstroms)
 Number     Number       Type             X           Y           Z
 ---------------------------------------------------------------------
      1          6           0        2.828710    1.134980    0.406034
      2          6           0        1.438930    1.134012    0.407621
      3          6           0        0.734536   -0.006038    0.006412
      4          6           0        1.445401   -1.137987   -0.406106
      5          6           0        2.835157   -1.130647   -0.405651
      6          6           0        3.529094    0.003897    0.000932
      7          6           0       -0.734533   -0.006159   -0.006821
      8          6           0       -1.445356   -1.138003    0.406022
      9          6           0       -2.835114   -1.130661    0.405750
     10          6           0       -3.529102    0.003864   -0.000782
     11          6           0       -2.828761    1.134970   -0.405905
     12          6           0       -1.438968    1.133963   -0.407755
     13          1           0       -0.893000    2.029301   -0.730026
     14          1           0        3.372413    2.031576    0.722801
     15          1           0        0.892931    2.029211    0.730216
     16          1           0        0.904448   -2.034219   -0.734234
     17          1           0        3.383964   -2.022628   -0.726622
     18          1           0        4.624123    0.007352    0.000143
     19          1           0       -0.904305   -2.034051    0.734502
     20          1           0       -3.383889   -2.022571    0.726971
     21          1           0       -4.624128    0.007258    0.000135
     22          1           0       -3.372523    2.031636   -0.722387
 ---------------------------------------------------------------------
 Rotational constants (GHZ):      2.8572012      0.5558883      0.4832680
 Standard basis: VSTO-6G (5D, 7F)
 There are    58 symmetry adapted cartesian basis functions of A   symmetry.
 There are    58 symmetry adapted basis functions of A   symmetry.
    58 basis functions,   348 primitive gaussians,    58 cartesian basis functions
    29 alpha electrons       29 beta electrons
       nuclear repulsion energy       319.5165571819 Hartrees.
 Integral buffers will be    131072 words long.
 Regular integral format.
 Two-electron integral symmetry is turned off.
 Do NDO integrals.
 One-electron integrals computed using PRISM.
 NBasis=    58 RedAO= F EigKep=  0.00D+00  NBF=    58
 NBsUse=    58 1.00D-04 EigRej=  0.00D+00 NBFU=    58
 Initial guess from the checkpoint file:  "bi-phenyl-opt.chk"
 B after Tr=     0.000000    0.000000   -0.000000
         Rot=    1.000000   -0.000003    0.000105   -0.000025 Ang=  -0.01 deg.
 Overlap will be assumed to be unity.
 Keep J ints in memory in canonical form, NReq=912245.
 Requested convergence on RMS density matrix=1.00D-08 within 128 cycles.
 Requested convergence on MAX density matrix=1.00D-06.
 Requested convergence on             energy=1.00D-06.
 No special actions if energy rises.
 SCF Done:  E(RPM3) =  0.767132473851E-01 A.U. after   11 cycles
            NFock= 10  Conv=0.88D-08     -V/T= 1.0021
 Calling FoFJK, ICntrl=      2127 FMM=F ISym2X=0 I1Cent= 0 IOpClX= 0 NMat=1 NMatS=1 NMatT=0.
 ***** Axes restored to original set *****
 -------------------------------------------------------------------
[...]
           D44          0.07086  -0.20942
           D45         -0.31774   0.00949
           D46        179.67327-179.99137
           D47        179.80444 179.94774
           D48         -0.20454  -0.05311
           D49          0.03694   0.31558
           D50       -179.35892 179.79267
           D51       -179.95409-179.68357
           D52          0.65005  -0.20648
                          Input orientation:                          
 ---------------------------------------------------------------------
 Center     Atomic      Atomic             Coordinates (Angstroms)
 Number     Number       Type             X           Y           Z
 ---------------------------------------------------------------------
      1          6           0       -3.056398    1.088990   -0.823442
      2          6           0       -1.672490    1.216177   -0.810431
      3          6           0       -0.898515    0.405806    0.025726
      4          6           0       -1.533406   -0.524507    0.854244
      5          6           0       -2.917852   -0.645400    0.839251
      6          6           0       -3.681585    0.159014    0.000273
      7          6           0        0.563833    0.545271    0.050680
      8          6           0        1.378897   -0.586957    0.144518
      9          6           0        2.762368   -0.455018    0.154030
     10          6           0        3.345813    0.804630    0.069507
     11          6           0        2.540705    1.934460   -0.027916
     12          6           0        1.156697    1.808193   -0.040807
     13          1           0        0.528492    2.703621   -0.114407
     14          1           0       -3.655140    1.723653   -1.484904
     15          1           0       -1.186292    1.949080   -1.464908
     16          1           0       -0.938209   -1.156989    1.523221
     17          1           0       -3.407619   -1.375346    1.492039
     18          1           0       -4.771839    0.061166   -0.010917
     19          1           0        0.925759   -1.583414    0.204417
     20          1           0        3.393745   -1.346621    0.226344
     21          1           0        4.435725    0.906417    0.078618
     22          1           0        2.997312    2.927371   -0.094737
 ---------------------------------------------------------------------
                    Distance matrix (angstroms):
                    1          2          3          4          5
     1  C    0.000000
     2  C    1.389802   0.000000
     3  C    2.417496   1.398176   0.000000
     4  C    2.781638   2.412565   1.398217   0.000000
     5  C    2.406627   2.781698   2.417557   1.389795   0.000000
     6  C    1.390763   2.410664   2.794107   2.410631   1.390774
     7  C    3.763747   2.488527   1.469195   2.487680   3.763200
     8  C    4.839173   3.670720   2.487226   2.998186   4.352945
     9  C    6.098972   4.836429   3.762917   4.353023   5.724568
    10  C    6.470434   5.111460   4.263249   5.117538   6.475229
    11  C    5.716227   4.345028   3.764026   4.839743   6.099468
    12  C    4.345106   2.991171   2.488978   3.671412   4.837001
    13  H    3.995147   2.746135   2.708494   3.951015   4.899254
    14  H    1.094907   2.154843   3.408476   3.876544   3.399662
    15  H    2.156045   1.096301   2.164833   3.408458   3.877986
    16  H    3.877883   3.408374   2.164808   1.096277   2.156044
    17  H    3.399671   3.876601   3.408546   2.154851   1.094909
    18  H    2.158555   3.402829   3.888800   3.402788   2.158538
    19  H    4.904673   3.952028   2.704977   2.755186   4.007023
    20  H    6.974138   5.771444   4.640554   5.034575   6.379939
    21  H    7.548441   6.180344   5.357941   6.187057   7.553927
    22  H    6.368521   5.024684   4.642226   5.774377   6.973248
                    6          7          8          9         10
     6  C    0.000000
     7  C    4.263251   0.000000
     8  C    5.117203   1.398240   0.000000
     9  C    6.474968   2.417606   1.389780   0.000000
    10  C    7.057332   2.794107   2.410580   1.390779   0.000000
    11  C    6.470696   2.417447   2.781560   2.406626   1.390757
    12  C    5.111796   1.398153   2.412563   2.781774   2.410712
    13  H    4.920663   2.164943   3.408538   3.878049   3.402541
    14  H    2.157440   4.641803   5.773688   6.972598   7.230086
    15  H    3.402585   2.707512   3.949928   4.898220   4.919773
    16  H    3.402550   2.705955   2.755856   4.007707   4.930931
    17  H    2.157472   4.640982   5.034691   6.380126   7.237730
    18  H    1.094693   5.357943   6.186743   7.553670   8.152023
    19  H    4.930046   2.164700   1.096289   2.156142   3.402589
    20  H    7.237288   3.408594   2.154854   1.094906   2.157493
    21  H    8.152023   3.888799   3.402750   2.158546   1.094693
    22  H    7.230525   3.408426   3.876468   3.399653   2.157419
                   11         12         13         14         15
    11  C    0.000000
    12  C    1.389815   0.000000
    13  H    2.155943   1.096289   0.000000
    14  H    6.368340   5.024574   4.510141   0.000000
    15  H    3.994454   2.745452   2.309473   2.479199   0.000000
    16  H    4.905703   3.953116   4.442673   4.972789   4.317189
    17  H    6.974786   5.772134   5.891656   4.304330   4.972891
    18  H    7.548697   6.180659   5.923410   2.486668   4.305167
    19  H    3.877817   3.408294   4.317191   5.897044   4.441387
    20  H    3.399679   3.876674   4.972951   7.876657   5.890561
    21  H    2.158546   3.402864   4.305075   8.280977   5.922558
    22  H    1.094909   2.154838   2.479016   6.901928   4.509651
                   16         17         18         19         20
    16  H    0.000000
    17  H    2.479241   0.000000
    18  H    4.305137   2.486673   0.000000
    19  H    2.322813   4.525420   5.934108   0.000000
    20  H    4.525889   6.918190   8.289446   2.479416   0.000000
    21  H    5.934956   8.289889   9.246714   4.305224   2.486710
    22  H    5.898144   7.877459   8.281417   4.972726   4.304330
                   21         22
    21  H    0.000000
    22  H    2.486632   0.000000
 Stoichiometry    C12H10
 Framework group  C1[X(C12H10)]
 Deg. of freedom    60
 Full point group                 C1      NOp   1
 Largest Abelian subgroup         C1      NOp   1
 Largest concise Abelian subgroup C1      NOp   1
                         Standard orientation:                         
 ---------------------------------------------------------------------
 Center     Atomic      Atomic             Coordinates (Angstroms)
 Number     Number       Type             X           Y           Z
 ---------------------------------------------------------------------
      1          6           0        2.829054   -1.134615   -0.405408
      2          6           0        1.439253   -1.134841   -0.405872
      3          6           0        0.734573    0.004523   -0.005657
      4          6           0        1.443832    1.137720    0.404011
      5          6           0        2.833613    1.131369    0.405236
      6          6           0        3.528666   -0.002907   -0.000438
      7          6           0       -0.734574    0.004233    0.006137
      8          6           0       -1.443493    1.137593   -0.403748
      9          6           0       -2.833259    1.131584   -0.405468
     10          6           0       -3.528666   -0.002555   -0.000001
     11          6           0       -2.829408   -1.134399    0.405181
     12          6           0       -1.439593   -1.134970    0.406132
     13          1           0       -0.895269   -2.029738    0.730096
     14          1           0        3.373621   -2.029035   -0.725221
     15          1           0        0.894426   -2.029409   -0.729582
     16          1           0        0.902522    2.032932    0.731733
     17          1           0        3.381739    2.022275    0.728763
     18          1           0        4.623357   -0.005251    0.000021
     19          1           0       -0.901682    2.032599   -0.731245
     20          1           0       -3.381078    2.022600   -0.729204
     21          1           0       -4.623357   -0.004670   -0.000750
     22          1           0       -3.374280   -2.028720    0.724760
 ---------------------------------------------------------------------
 Rotational constants (GHZ):      2.8583932      0.5561596      0.4834225

 **********************************************************************

            Population analysis using the SCF density.

 **********************************************************************

 Orbital symmetries:
       Occupied  (A) (A) (A) (A) (A) (A) (A) (A) (A) (A) (A) (A)
                 (A) (A) (A) (A) (A) (A) (A) (A) (A) (A) (A) (A)
                 (A) (A) (A) (A) (A)
       Virtual   (A) (A) (A) (A) (A) (A) (A) (A) (A) (A) (A) (A)
                 (A) (A) (A) (A) (A) (A) (A) (A) (A) (A) (A) (A)
                 (A) (A) (A) (A) (A)
 The electronic state is 1-A.
 Alpha  occ. eigenvalues --   -1.50630  -1.40152  -1.15812  -1.11206  -1.07124
 Alpha  occ. eigenvalues --   -0.99315  -0.82089  -0.81986  -0.75900  -0.74406
 Alpha  occ. eigenvalues --   -0.69580  -0.62993  -0.61694  -0.58554  -0.57342
 Alpha  occ. eigenvalues --   -0.54616  -0.54170  -0.54071  -0.53198  -0.49855
 Alpha  occ. eigenvalues --   -0.47701  -0.47687  -0.46476  -0.45589  -0.44533
 Alpha  occ. eigenvalues --   -0.38028  -0.36040  -0.35959  -0.33349
 Alpha virt. eigenvalues --   -0.00766   0.01335   0.01409   0.02935   0.09751
 Alpha virt. eigenvalues --    0.10841   0.10905   0.11951   0.12418   0.12529
 Alpha virt. eigenvalues --    0.12817   0.13091   0.13285   0.13758   0.14360
 Alpha virt. eigenvalues --    0.14506   0.14857   0.17577   0.17590   0.18374
 Alpha virt. eigenvalues --    0.18381   0.18866   0.19057   0.19411   0.19795
 Alpha virt. eigenvalues --    0.21874   0.22784   0.23076   0.23509
          Condensed to atoms (all electrons):
               1          2          3          4          5          6
     1  C    4.101444   0.000000   0.000000   0.000000   0.000000   0.000000
     2  C    0.000000   4.095134   0.000000   0.000000   0.000000   0.000000
     3  C    0.000000   0.000000   4.032141   0.000000   0.000000   0.000000
     4  C    0.000000   0.000000   0.000000   4.094905   0.000000   0.000000
     5  C    0.000000   0.000000   0.000000   0.000000   4.101498   0.000000
     6  C    0.000000   0.000000   0.000000   0.000000   0.000000   4.101499
     7  C    0.000000   0.000000   0.000000   0.000000   0.000000   0.000000
     8  C    0.000000   0.000000   0.000000   0.000000   0.000000   0.000000
     9  C    0.000000   0.000000   0.000000   0.000000   0.000000   0.000000
    10  C    0.000000   0.000000   0.000000   0.000000   0.000000   0.000000
    11  C    0.000000   0.000000   0.000000   0.000000   0.000000   0.000000
    12  C    0.000000   0.000000   0.000000   0.000000   0.000000   0.000000
    13  H    0.000000   0.000000   0.000000   0.000000   0.000000   0.000000
    14  H    0.000000   0.000000   0.000000   0.000000   0.000000   0.000000
    15  H    0.000000   0.000000   0.000000   0.000000   0.000000   0.000000
    16  H    0.000000   0.000000   0.000000   0.000000   0.000000   0.000000
    17  H    0.000000   0.000000   0.000000   0.000000   0.000000   0.000000
    18  H    0.000000   0.000000   0.000000   0.000000   0.000000   0.000000
    19  H    0.000000   0.000000   0.000000   0.000000   0.000000   0.000000
    20  H    0.000000   0.000000   0.000000   0.000000   0.000000   0.000000
    21  H    0.000000   0.000000   0.000000   0.000000   0.000000   0.000000
    22  H    0.000000   0.000000   0.000000   0.000000   0.000000   0.000000
               7          8          9         10         11         12
     1  C    0.000000   0.000000   0.000000   0.000000   0.000000   0.000000
     2  C    0.000000   0.000000   0.000000   0.000000   0.000000   0.000000
     3  C    0.000000   0.000000   0.000000   0.000000   0.000000   0.000000
     4  C    0.000000   0.000000   0.000000   0.000000   0.000000   0.000000
     5  C    0.000000   0.000000   0.000000   0.000000   0.000000   0.000000
     6  C    0.000000   0.000000   0.000000   0.000000   0.000000   0.000000
     7  C    4.032141   0.000000   0.000000   0.000000   0.000000   0.000000
     8  C    0.000000   4.094971   0.000000   0.000000   0.000000   0.000000
     9  C    0.000000   0.000000   4.101480   0.000000   0.000000   0.000000
    10  C    0.000000   0.000000   0.000000   4.101498   0.000000   0.000000
    11  C    0.000000   0.000000   0.000000   0.000000   4.101462   0.000000
    12  C    0.000000   0.000000   0.000000   0.000000   0.000000   4.095068
    13  H    0.000000   0.000000   0.000000   0.000000   0.000000   0.000000
    14  H    0.000000   0.000000   0.000000   0.000000   0.000000   0.000000
    15  H    0.000000   0.000000   0.000000   0.000000   0.000000   0.000000
    16  H    0.000000   0.000000   0.000000   0.000000   0.000000   0.000000
    17  H    0.000000   0.000000   0.000000   0.000000   0.000000   0.000000
    18  H    0.000000   0.000000   0.000000   0.000000   0.000000   0.000000
    19  H    0.000000   0.000000   0.000000   0.000000   0.000000   0.000000
    20  H    0.000000   0.000000   0.000000   0.000000   0.000000   0.000000
    21  H    0.000000   0.000000   0.000000   0.000000   0.000000   0.000000
    22  H    0.000000   0.000000   0.000000   0.000000   0.000000   0.000000
              13         14         15         16         17         18
     1  C    0.000000   0.000000   0.000000   0.000000   0.000000   0.000000
     2  C    0.000000   0.000000   0.000000   0.000000   0.000000   0.000000
     3  C    0.000000   0.000000   0.000000   0.000000   0.000000   0.000000
     4  C    0.000000   0.000000   0.000000   0.000000   0.000000   0.000000
     5  C    0.000000   0.000000   0.000000   0.000000   0.000000   0.000000
     6  C    0.000000   0.000000   0.000000   0.000000   0.000000   0.000000
     7  C    0.000000   0.000000   0.000000   0.000000   0.000000   0.000000
     8  C    0.000000   0.000000   0.000000   0.000000   0.000000   0.000000
     9  C    0.000000   0.000000   0.000000   0.000000   0.000000   0.000000
    10  C    0.000000   0.000000   0.000000   0.000000   0.000000   0.000000
    11  C    0.000000   0.000000   0.000000   0.000000   0.000000   0.000000
    12  C    0.000000   0.000000   0.000000   0.000000   0.000000   0.000000
    13  H    0.891110   0.000000   0.000000   0.000000   0.000000   0.000000
    14  H    0.000000   0.897081   0.000000   0.000000   0.000000   0.000000
    15  H    0.000000   0.000000   0.891102   0.000000   0.000000   0.000000
    16  H    0.000000   0.000000   0.000000   0.891182   0.000000   0.000000
    17  H    0.000000   0.000000   0.000000   0.000000   0.897074   0.000000
    18  H    0.000000   0.000000   0.000000   0.000000   0.000000   0.896940
    19  H    0.000000   0.000000   0.000000   0.000000   0.000000   0.000000
    20  H    0.000000   0.000000   0.000000   0.000000   0.000000   0.000000
    21  H    0.000000   0.000000   0.000000   0.000000   0.000000   0.000000
    22  H    0.000000   0.000000   0.000000   0.000000   0.000000   0.000000
              19         20         21         22
     1  C    0.000000   0.000000   0.000000   0.000000
     2  C    0.000000   0.000000   0.000000   0.000000
     3  C    0.000000   0.000000   0.000000   0.000000
     4  C    0.000000   0.000000   0.000000   0.000000
     5  C    0.000000   0.000000   0.000000   0.000000
     6  C    0.000000   0.000000   0.000000   0.000000
     7  C    0.000000   0.000000   0.000000   0.000000
     8  C    0.000000   0.000000   0.000000   0.000000
     9  C    0.000000   0.000000   0.000000   0.000000
    10  C    0.000000   0.000000   0.000000   0.000000
    11  C    0.000000   0.000000   0.000000   0.000000
    12  C    0.000000   0.000000   0.000000   0.000000
    13  H    0.000000   0.000000   0.000000   0.000000
    14  H    0.000000   0.000000   0.000000   0.000000
    15  H    0.000000   0.000000   0.000000   0.000000
    16  H    0.000000   0.000000   0.000000   0.000000
    17  H    0.000000   0.000000   0.000000   0.000000
    18  H    0.000000   0.000000   0.000000   0.000000
    19  H    0.891174   0.000000   0.000000   0.000000
    20  H    0.000000   0.897071   0.000000   0.000000
    21  H    0.000000   0.000000   0.896940   0.000000
    22  H    0.000000   0.000000   0.000000   0.897084
 Mulliken charges:
               1
     1  C   -0.101444
     2  C   -0.095134
     3  C   -0.032141
     4  C   -0.094905
     5  C   -0.101498
     6  C   -0.101499
     7  C   -0.032141
     8  C   -0.094971
     9  C   -0.101480
    10  C   -0.101498
    11  C   -0.101462
    12  C   -0.095068
    13  H    0.108890
    14  H    0.102919
    15  H    0.108898
    16  H    0.108818
    17  H    0.102926
    18  H    0.103060
    19  H    0.108826
    20  H    0.102929
    21  H    0.103060
    22  H    0.102916
 Sum of Mulliken charges =   0.00000
 Mulliken charges with hydrogens summed into heavy atoms:
               1
     1  C    0.001475
     2  C    0.013763
     3  C   -0.032141
     4  C    0.013913
     5  C    0.001428
     6  C    0.001561
     7  C   -0.032141
     8  C    0.013854
     9  C    0.001449
    10  C    0.001561
    11  C    0.001454
    12  C    0.013821
 Charge=              0.0000 electrons
 Dipole moment (field-independent basis, Debye):
    X=             -0.0000    Y=             -0.0052    Z=             -0.0001  Tot=              0.0052
 N-N= 3.195636099207D+02 E-N=-5.619936073536D+02  KE=-3.717911634658D+01
 1\1\GINC-GTX1080DELTA\Scan\RPM3\ZDO\C12H10\MVEROT\18-Apr-2022\0\\#n PM
 3 Opt=modredundant\\Optimisation de geometrie\\0,1\C,-3.0563981468,1.0
 889904352,-0.823442073\C,-1.672489754,1.2161774228,-0.810430653\C,-0.8
 985146786,0.405806288,0.0257261092\C,-1.533406258,-0.5245069071,0.8542
 438972\C,-2.9178523322,-0.6453999291,0.8392505774\C,-3.6815851999,0.15
 90139831,0.0002730003\C,0.5638326864,0.5452708401,0.0506800658\C,1.378
 8973066,-0.5869566146,0.1445184322\C,2.7623680876,-0.4550184421,0.1540
 298587\C,3.3458126315,0.8046301587,0.0695072557\C,2.5407051483,1.93446
 01599,-0.0279155842\C,1.1566974186,1.8081931231,-0.0408074908\H,0.5284
 91865,2.7036209602,-0.1144067531\H,-3.6551400874,1.723653326,-1.484903
 9923\H,-1.1862915824,1.9490803267,-1.4649078894\H,-0.9382092051,-1.156
 9889032,1.5232208875\H,-3.4076190298,-1.3753461388,1.4920392368\H,-4.7
 71839476,0.0611659111,-0.0109168218\H,0.9257588672,-1.5834138343,0.204
 4168338\H,3.3937447367,-1.3466205075,0.2263444201\H,4.4357254341,0.906
 4174763,0.0786175982\H,2.9973115682,2.9273708656,-0.0947369153\\Versio
 n=AM64L-G09RevD.01\State=1-A\HF=0.0767041,0.0764715,0.0766911,0.076999
 5,0.0772037,0.0772855,0.0772472,0.0770875,0.0768083,0.0765149,0.076556
 7,0.0770377,0.0765097,0.0758725,0.0757028,0.0757722,0.0762135,0.077069
 4,0.0767019,0.0764715,0.0766901,0.0769991,0.0772037,0.0772855,0.077247
 3,0.0770875,0.0768092,0.0765152,0.0765577,0.0770386,0.0765142,0.075872
 9,0.0757027,0.0757725,0.0762159,0.077067,0.0767041\RMSD=3.442e-09,8.59
 2e-09,3.465e-09,7.752e-09,7.205e-09,2.155e-09,9.756e-09,8.279e-09,3.12
 7e-09,6.870e-09,2.787e-09,6.901e-09,3.046e-09,7.226e-09,9.892e-09,4.32
 2e-09,5.112e-09,2.531e-09,5.871e-09,3.471e-09,3.671e-09,2.496e-09,4.42
 3e-09,3.634e-09,8.849e-09,3.431e-09,6.555e-09,1.779e-09,8.088e-09,4.46
 7e-09,2.886e-09,2.823e-09,3.057e-09,4.623e-09,6.897e-09,6.110e-09,3.95
 9e-09\PG=C01 [X(C12H10)]\\@


 DON'T WORRY CHARLIE BROWN...WE LEARN MORE FROM LOSING  THAN WE DO FROM WINNING.
 THEN THAT MAKES ME THE SMARTEST PERSON IN THE WORLD...
 CHARLES SCHULZ 'PEANUTS'
 Job cpu time:       0 days  0 hours  1 minutes 25.5 seconds.
 File lengths (MBytes):  RWF=    137 Int=      0 D2E=      0 Chk=      8 Scr=      2
 Normal termination of Gaussian 09 at Mon Apr 18 01:03:45 2022.
