 Entering Gaussian System, Link 0=g09
 Input=/scratch/mverot/1-3-propanediol-redundant-opt/1-3-propanediol-redundant-opt.com
 Output=/scratch/mverot/1-3-propanediol-redundant-opt/1-3-propanediol-redundant-opt.log
 Initial command:
 /opt/g09/l1.exe "/scratch/mverot/1-3-propanediol-redundant-opt/Gau-1486237.inp" -scrdir="/scratch/mverot/1-3-propanediol-redundant-opt/"
 Entering Link 1 = /opt/g09/l1.exe PID=   1486239.
  
 Copyright (c) 1988,1990,1992,1993,1995,1998,2003,2009,2013,
            Gaussian, Inc.  All Rights Reserved.
  
 This is part of the Gaussian(R) 09 program.  It is based on
 the Gaussian(R) 03 system (copyright 2003, Gaussian, Inc.),
 the Gaussian(R) 98 system (copyright 1998, Gaussian, Inc.),
 the Gaussian(R) 94 system (copyright 1995, Gaussian, Inc.),
 the Gaussian 92(TM) system (copyright 1992, Gaussian, Inc.),
 the Gaussian 90(TM) system (copyright 1990, Gaussian, Inc.),
 the Gaussian 88(TM) system (copyright 1988, Gaussian, Inc.),
 the Gaussian 86(TM) system (copyright 1986, Carnegie Mellon
 University), and the Gaussian 82(TM) system (copyright 1983,
 Carnegie Mellon University). Gaussian is a federally registered
 trademark of Gaussian, Inc.
  
 This software contains proprietary and confidential information,
 including trade secrets, belonging to Gaussian, Inc.
  
 This software is provided under written license and may be
 used, copied, transmitted, or stored only in accord with that
 written license.
  
 The following legend is applicable only to US Government
 contracts under FAR:
  
                    RESTRICTED RIGHTS LEGEND
  
 Use, reproduction and disclosure by the US Government is
 subject to restrictions as set forth in subparagraphs (a)
 and (c) of the Commercial Computer Software - Restricted
 Rights clause in FAR 52.227-19.
  
 Gaussian, Inc.
 340 Quinnipiac St., Bldg. 40, Wallingford CT 06492
  
  
 ---------------------------------------------------------------
 Warning -- This program may not be used in any manner that
 competes with the business of Gaussian, Inc. or will provide
 assistance to any competitor of Gaussian, Inc.  The licensee
 of this program is prohibited from giving any competitor of
 Gaussian, Inc. access to this program.  By using this program,
 the user acknowledges that Gaussian, Inc. is engaged in the
 business of creating and licensing software in the field of
 computational chemistry and represents and warrants to the
 licensee that it is not a competitor of Gaussian, Inc. and that
 it will not use this program in any manner prohibited above.
 ---------------------------------------------------------------
  

 Cite this work as:
 Gaussian 09, Revision D.01,
 M. J. Frisch, G. W. Trucks, H. B. Schlegel, G. E. Scuseria, 
 M. A. Robb, J. R. Cheeseman, G. Scalmani, V. Barone, B. Mennucci, 
 G. A. Petersson, H. Nakatsuji, M. Caricato, X. Li, H. P. Hratchian, 
 A. F. Izmaylov, J. Bloino, G. Zheng, J. L. Sonnenberg, M. Hada, 
 M. Ehara, K. Toyota, R. Fukuda, J. Hasegawa, M. Ishida, T. Nakajima, 
 Y. Honda, O. Kitao, H. Nakai, T. Vreven, J. A. Montgomery, Jr., 
 J. E. Peralta, F. Ogliaro, M. Bearpark, J. J. Heyd, E. Brothers, 
 K. N. Kudin, V. N. Staroverov, T. Keith, R. Kobayashi, J. Normand, 
 K. Raghavachari, A. Rendell, J. C. Burant, S. S. Iyengar, J. Tomasi, 
 M. Cossi, N. Rega, J. M. Millam, M. Klene, J. E. Knox, J. B. Cross, 
 V. Bakken, C. Adamo, J. Jaramillo, R. Gomperts, R. E. Stratmann, 
 O. Yazyev, A. J. Austin, R. Cammi, C. Pomelli, J. W. Ochterski, 
 R. L. Martin, K. Morokuma, V. G. Zakrzewski, G. A. Voth, 
 P. Salvador, J. J. Dannenberg, S. Dapprich, A. D. Daniels, 
 O. Farkas, J. B. Foresman, J. V. Ortiz, J. Cioslowski, 
 and D. J. Fox, Gaussian, Inc., Wallingford CT, 2013.
 
 ******************************************
 Gaussian 09:  AM64L-G09RevD.01 24-Apr-2013
                18-Apr-2022 
 ******************************************
 %chk=1-3-propanediol-opt
 -----------------------
 #n PM3 Opt=modredundant
 -----------------------
 1/14=-1,18=120,19=15,26=1,38=1/1,3;
 2/9=110,12=2,17=6,18=5,40=1/2;
 3/5=2,16=1,25=1,41=800000,71=1/1,2,3;
 4/35=1/1;
 5/5=2,35=1,38=5/2;
 6/7=2,8=2,9=2,10=2,28=1/1;
 7//1,2,3,16;
 1/14=-1,18=20,19=15,26=1/3(2);
 2/9=110/2;
 99//99;
 2/9=110/2;
 3/5=2,16=1,25=1,41=800000,71=1,135=20/1,2,3;
 4/5=5,16=3,35=1/1;
 5/5=2,35=1,38=5/2;
 7//1,2,3,16;
 1/14=-1,18=20,19=15,26=1/3(-5);
 2/9=110/2;
 6/7=2,8=2,9=2,10=2,19=2,28=1/1;
 99/9=1/99;
 -------------------------
 Optimisation de geometrie
 -------------------------
 Symbolic Z-matrix:
 Charge =  0 Multiplicity = 1
 C                     1.0003    2.0505    1.2298 
 O                     1.6167    3.2158    0.6619 
 C                     1.9842    0.8895    1.1354 
 C                     3.2981    1.1469    1.8851 
 O                     4.1136    2.1208    1.2591 
 H                     0.0703    1.8109    0.6924 
 H                     0.7421    2.2317    2.2855 
 H                     1.0489    3.9812    0.8361 
 H                     2.2102    0.6867    0.0812 
 H                     1.4929   -0.0037    1.5453 
 H                     3.8898    0.225     1.9226 
 H                     3.0683    1.4232    2.9315 
 H                     3.5208    2.8609    1.0374 
 
 The following ModRedundant input section has been read:
 D       2       1       3       4 S  36 10.000                                
 

 GradGradGradGradGradGradGradGradGradGradGradGradGradGradGradGradGradGrad
 Berny optimization.
 Initialization pass.
                           ----------------------------
                           !    Initial Parameters    !
                           ! (Angstroms and Degrees)  !
 --------------------------                            --------------------------
 ! Name  Definition              Value          Derivative Info.                !
 --------------------------------------------------------------------------------
 ! R1    R(1,2)                  1.4354         estimate D2E/DX2                !
 ! R2    R(1,3)                  1.5248         estimate D2E/DX2                !
 ! R3    R(1,6)                  1.1005         estimate D2E/DX2                !
 ! R4    R(1,7)                  1.1018         estimate D2E/DX2                !
 ! R5    R(2,8)                  0.9688         estimate D2E/DX2                !
 ! R6    R(3,4)                  1.5345         estimate D2E/DX2                !
 ! R7    R(3,9)                  1.0971         estimate D2E/DX2                !
 ! R8    R(3,10)                 1.0987         estimate D2E/DX2                !
 ! R9    R(4,5)                  1.4161         estimate D2E/DX2                !
 ! R10   R(4,11)                 1.0961         estimate D2E/DX2                !
 ! R11   R(4,12)                 1.1064         estimate D2E/DX2                !
 ! R12   R(5,13)                 0.9738         estimate D2E/DX2                !
 ! A1    A(2,1,3)              108.4547         estimate D2E/DX2                !
 ! A2    A(2,1,6)              110.2701         estimate D2E/DX2                !
 ! A3    A(2,1,7)              110.2551         estimate D2E/DX2                !
 ! A4    A(3,1,6)              110.4443         estimate D2E/DX2                !
 ! A5    A(3,1,7)              109.6186         estimate D2E/DX2                !
 ! A6    A(6,1,7)              107.7975         estimate D2E/DX2                !
 ! A7    A(1,2,8)              108.576          estimate D2E/DX2                !
 ! A8    A(1,3,4)              113.2378         estimate D2E/DX2                !
 ! A9    A(1,3,9)              109.4619         estimate D2E/DX2                !
 ! A10   A(1,3,10)             107.9003         estimate D2E/DX2                !
 ! A11   A(4,3,9)              108.9109         estimate D2E/DX2                !
 ! A12   A(4,3,10)             109.6925         estimate D2E/DX2                !
 ! A13   A(9,3,10)             107.4775         estimate D2E/DX2                !
 ! A14   A(3,4,5)              113.1086         estimate D2E/DX2                !
 ! A15   A(3,4,11)             109.7463         estimate D2E/DX2                !
 ! A16   A(3,4,12)             109.0336         estimate D2E/DX2                !
 ! A17   A(5,4,11)             106.4205         estimate D2E/DX2                !
 ! A18   A(5,4,12)             111.4659         estimate D2E/DX2                !
 ! A19   A(11,4,12)            106.8466         estimate D2E/DX2                !
 ! A20   A(4,5,13)             105.8283         estimate D2E/DX2                !
 ! D1    D(3,1,2,8)           -171.8373         estimate D2E/DX2                !
 ! D2    D(6,1,2,8)             67.1123         estimate D2E/DX2                !
 ! D3    D(7,1,2,8)            -51.8083         estimate D2E/DX2                !
 ! D4    D(2,1,3,4)             60.0254         Scan                            !
 ! D5    D(2,1,3,9)            -61.6978         estimate D2E/DX2                !
 ! D6    D(2,1,3,10)          -178.3692         estimate D2E/DX2                !
 ! D7    D(6,1,3,4)           -179.0318         estimate D2E/DX2                !
 ! D8    D(6,1,3,9)             59.2449         estimate D2E/DX2                !
 ! D9    D(6,1,3,10)           -57.4264         estimate D2E/DX2                !
 ! D10   D(7,1,3,4)            -60.3999         estimate D2E/DX2                !
 ! D11   D(7,1,3,9)            177.8768         estimate D2E/DX2                !
 ! D12   D(7,1,3,10)            61.2055         estimate D2E/DX2                !
 ! D13   D(1,3,4,5)            -70.6852         estimate D2E/DX2                !
 ! D14   D(1,3,4,11)           170.6476         estimate D2E/DX2                !
 ! D15   D(1,3,4,12)            53.9321         estimate D2E/DX2                !
 ! D16   D(9,3,4,5)             51.3464         estimate D2E/DX2                !
 ! D17   D(9,3,4,11)           -67.3209         estimate D2E/DX2                !
 ! D18   D(9,3,4,12)           175.9636         estimate D2E/DX2                !
 ! D19   D(10,3,4,5)           168.7207         estimate D2E/DX2                !
 ! D20   D(10,3,4,11)           50.0534         estimate D2E/DX2                !
 ! D21   D(10,3,4,12)          -66.6621         estimate D2E/DX2                !
 ! D22   D(3,4,5,13)            46.2397         estimate D2E/DX2                !
 ! D23   D(11,4,5,13)          166.8172         estimate D2E/DX2                !
 ! D24   D(12,4,5,13)          -77.0447         estimate D2E/DX2                !
 --------------------------------------------------------------------------------
 Trust Radius=3.00D-01 FncErr=1.00D-07 GrdErr=1.00D-07
 Number of optimizations in scan=  37
 Number of steps in this run=     66 maximum allowed number of steps=    100.
 GradGradGradGradGradGradGradGradGradGradGradGradGradGradGradGradGradGrad

                          Input orientation:                          
 ---------------------------------------------------------------------
 Center     Atomic      Atomic             Coordinates (Angstroms)
 Number     Number       Type             X           Y           Z
 ---------------------------------------------------------------------
      1          6           0        1.000300    2.050500    1.229800
      2          8           0        1.616700    3.215800    0.661900
      3          6           0        1.984200    0.889500    1.135400
      4          6           0        3.298100    1.146900    1.885100
      5          8           0        4.113600    2.120800    1.259100
      6          1           0        0.070300    1.810900    0.692400
      7          1           0        0.742100    2.231700    2.285500
      8          1           0        1.048900    3.981200    0.836100
      9          1           0        2.210200    0.686700    0.081200
     10          1           0        1.492900   -0.003700    1.545300
     11          1           0        3.889800    0.225000    1.922600
     12          1           0        3.068300    1.423200    2.931500
     13          1           0        3.520800    2.860900    1.037400
 ---------------------------------------------------------------------
                    Distance matrix (angstroms):
                    1          2          3          4          5
     1  C    0.000000
     2  O    1.435404   0.000000
     3  C    1.524760   2.402276   0.000000
     4  C    2.554564   2.933202   1.534483   0.000000
     5  O    3.114231   2.791090   2.462873   1.416121   0.000000
     6  H    1.100503   2.089504   2.169848   3.504586   4.094565
     7  H    1.101818   2.090324   2.160334   2.805396   3.526019
     8  H    1.971031   0.968803   3.243914   3.767301   3.610042
     9  H    2.154783   2.661917   1.097060   2.156239   2.658387
    10  H    2.135868   3.340794   1.098727   2.167508   3.385776
    11  H    3.487353   3.962478   2.166231   1.096091   2.020984
    12  H    2.750620   3.235992   2.164736   1.106392   2.091942
    13  H    2.654560   1.972955   2.501432   1.925094   0.973812
                    6          7          8          9         10
     6  H    0.000000
     7  H    1.779426   0.000000
     8  H    2.385060   2.292518   0.000000
     9  H    2.493304   3.066151   3.573825   0.000000
    10  H    2.458455   2.471560   4.071797   1.770525   0.000000
    11  H    4.314748   3.750541   4.833243   2.534754   2.437168
    12  H    3.761899   2.546015   3.874538   3.066428   2.537613
    13  H    3.623186   3.110437   2.721375   2.712773   3.546304
                   11         12         13
    11  H    0.000000
    12  H    1.768735   0.000000
    13  H    2.804944   2.420610   0.000000
 Stoichiometry    C3H8O2
 Framework group  C1[X(C3H8O2)]
 Deg. of freedom    33
 Full point group                 C1      NOp   1
 Largest Abelian subgroup         C1      NOp   1
 Largest concise Abelian subgroup C1      NOp   1
                         Standard orientation:                         
 ---------------------------------------------------------------------
 Center     Atomic      Atomic             Coordinates (Angstroms)
 Number     Number       Type             X           Y           Z
 ---------------------------------------------------------------------
      1          6           0        1.279122    0.476932    0.183540
      2          8           0        1.313242   -0.929184   -0.102915
      3          6           0       -0.033396    1.045416   -0.344677
      4          6           0       -1.272035    0.399497    0.290304
      5          8           0       -1.477722   -0.937696   -0.128032
      6          1           0        2.134825    0.983046   -0.288400
      7          1           0        1.345017    0.646545    1.270229
      8          1           0        2.081408   -1.316380    0.342709
      9          1           0       -0.079373    0.909092   -1.432263
     10          1           0       -0.037080    2.126234   -0.147141
     11          1           0       -2.170198    0.956633   -0.000073
     12          1           0       -1.192079    0.471487    1.391452
     13          1           0       -0.608824   -1.372689   -0.063945
 ---------------------------------------------------------------------
 Rotational constants (GHZ):      7.6403067      3.9465992      2.8720686
 Standard basis: VSTO-6G (5D, 7F)
 There are    28 symmetry adapted cartesian basis functions of A   symmetry.
 There are    28 symmetry adapted basis functions of A   symmetry.
    28 basis functions,   168 primitive gaussians,    28 cartesian basis functions
    16 alpha electrons       16 beta electrons
       nuclear repulsion energy       137.8053977105 Hartrees.
 Integral buffers will be    131072 words long.
 Regular integral format.
 Two-electron integral symmetry is turned off.
 Do NDO integrals.
 One-electron integrals computed using PRISM.
 NBasis=    28 RedAO= F EigKep=  0.00D+00  NBF=    28
 NBsUse=    28 1.00D-04 EigRej=  0.00D+00 NBFU=    28
 Simple Huckel Guess.
 Overlap will be assumed to be unity.
 Keep J ints in memory in canonical form, NReq=891302.
 Requested convergence on RMS density matrix=1.00D-08 within 128 cycles.
 Requested convergence on MAX density matrix=1.00D-06.
 Requested convergence on             energy=1.00D-06.
 No special actions if energy rises.
 SCF Done:  E(RPM3) = -0.160340308821     A.U. after   13 cycles
            NFock= 12  Conv=0.78D-08     -V/T= 0.9929

 **********************************************************************

            Population analysis using the SCF density.

 **********************************************************************

 Orbital symmetries:
       Occupied  (A) (A) (A) (A) (A) (A) (A) (A) (A) (A) (A) (A)
                 (A) (A) (A) (A)
       Virtual   (A) (A) (A) (A) (A) (A) (A) (A) (A) (A) (A) (A)
 The electronic state is 1-A.
 Alpha  occ. eigenvalues --   -1.47114  -1.33449  -1.16925  -0.92375  -0.77616
 Alpha  occ. eigenvalues --   -0.67762  -0.65142  -0.58023  -0.57822  -0.55953
 Alpha  occ. eigenvalues --   -0.51854  -0.49111  -0.48097  -0.44001  -0.41316
 Alpha  occ. eigenvalues --   -0.39606
 Alpha virt. eigenvalues --    0.10112   0.12047   0.12475   0.13631   0.13774
 Alpha virt. eigenvalues --    0.14681   0.15224   0.16748   0.17186   0.17717
 Alpha virt. eigenvalues --    0.19317   0.22158
          Condensed to atoms (all electrons):
               1          2          3          4          5          6
     1  C    3.923974   0.000000   0.000000   0.000000   0.000000   0.000000
     2  O    0.000000   6.328271   0.000000   0.000000   0.000000   0.000000
     3  C    0.000000   0.000000   4.162928   0.000000   0.000000   0.000000
     4  C    0.000000   0.000000   0.000000   3.918194   0.000000   0.000000
     5  O    0.000000   0.000000   0.000000   0.000000   6.329241   0.000000
     6  H    0.000000   0.000000   0.000000   0.000000   0.000000   0.970179
     7  H    0.000000   0.000000   0.000000   0.000000   0.000000   0.000000
     8  H    0.000000   0.000000   0.000000   0.000000   0.000000   0.000000
     9  H    0.000000   0.000000   0.000000   0.000000   0.000000   0.000000
    10  H    0.000000   0.000000   0.000000   0.000000   0.000000   0.000000
    11  H    0.000000   0.000000   0.000000   0.000000   0.000000   0.000000
    12  H    0.000000   0.000000   0.000000   0.000000   0.000000   0.000000
    13  H    0.000000   0.000000   0.000000   0.000000   0.000000   0.000000
               7          8          9         10         11         12
     1  C    0.000000   0.000000   0.000000   0.000000   0.000000   0.000000
     2  O    0.000000   0.000000   0.000000   0.000000   0.000000   0.000000
     3  C    0.000000   0.000000   0.000000   0.000000   0.000000   0.000000
     4  C    0.000000   0.000000   0.000000   0.000000   0.000000   0.000000
     5  O    0.000000   0.000000   0.000000   0.000000   0.000000   0.000000
     6  H    0.000000   0.000000   0.000000   0.000000   0.000000   0.000000
     7  H    0.975681   0.000000   0.000000   0.000000   0.000000   0.000000
     8  H    0.000000   0.805601   0.000000   0.000000   0.000000   0.000000
     9  H    0.000000   0.000000   0.926896   0.000000   0.000000   0.000000
    10  H    0.000000   0.000000   0.000000   0.938115   0.000000   0.000000
    11  H    0.000000   0.000000   0.000000   0.000000   0.953288   0.000000
    12  H    0.000000   0.000000   0.000000   0.000000   0.000000   0.980294
    13  H    0.000000   0.000000   0.000000   0.000000   0.000000   0.000000
              13
     1  C    0.000000
     2  O    0.000000
     3  C    0.000000
     4  C    0.000000
     5  O    0.000000
     6  H    0.000000
     7  H    0.000000
     8  H    0.000000
     9  H    0.000000
    10  H    0.000000
    11  H    0.000000
    12  H    0.000000
    13  H    0.787338
 Mulliken charges:
               1
     1  C    0.076026
     2  O   -0.328271
     3  C   -0.162928
     4  C    0.081806
     5  O   -0.329241
     6  H    0.029821
     7  H    0.024319
     8  H    0.194399
     9  H    0.073104
    10  H    0.061885
    11  H    0.046712
    12  H    0.019706
    13  H    0.212662
 Sum of Mulliken charges =   0.00000
 Mulliken charges with hydrogens summed into heavy atoms:
               1
     1  C    0.130166
     2  O   -0.133872
     3  C   -0.027939
     4  C    0.148224
     5  O   -0.116579
 Charge=              0.0000 electrons
 Dipole moment (field-independent basis, Debye):
    X=              2.5611    Y=              1.3795    Z=              1.2310  Tot=              3.1587
 N-N= 1.378053977105D+02 E-N=-2.304771570998D+02  KE=-2.253097211022D+01
 Calling FoFJK, ICntrl=      2127 FMM=F ISym2X=0 I1Cent= 0 IOpClX= 0 NMat=1 NMatS=1 NMatT=0.
 ***** Axes restored to original set *****
 -------------------------------------------------------------------
 Center     Atomic                   Forces (Hartrees/Bohr)
 Number     Number              X              Y              Z
 -------------------------------------------------------------------
      1        6           0.009673931    0.014414587   -0.002740844
      2        8          -0.012704532    0.002188814    0.007886408
      3        6           0.004149103    0.007941670    0.000473015
      4        6          -0.005328522    0.007807750   -0.005264843
      5        8          -0.016673339    0.003631223    0.003432783
      6        1          -0.002968001    0.000831409   -0.002608462
      7        1          -0.001711829    0.002648772    0.003210336
      8        1           0.010280072   -0.020273980   -0.001853939
      9        1           0.000506743   -0.003174782   -0.006710777
     10        1          -0.001264341   -0.004668172    0.001035414
     11        1           0.006358712   -0.001564242   -0.001587926
     12        1           0.002276595    0.003328836    0.001519161
     13        1           0.007405408   -0.013111885    0.003209674
 -------------------------------------------------------------------
 Cartesian Forces:  Max     0.020273980 RMS     0.007116969

 GradGradGradGradGradGradGradGradGradGradGradGradGradGradGradGradGradGrad
 Berny optimization.
 FormGI is forming the generalized inverse of G from B-inverse, IUseBI=4.
 Internal  Forces:  Max     0.022375737 RMS     0.005883102
 Search for a local minimum.
 Step number   1 out of a maximum of   66 on scan point     1 out of    37
 All quantities printed in internal units (Hartrees-Bohrs-Radians)
 Mixed Optimization -- RFO/linear search
 Second derivative matrix not updated -- first step.
 ITU=  0
     Eigenvalues ---    0.00310   0.01223   0.01479   0.01719   0.04333
     Eigenvalues ---    0.04700   0.04853   0.05833   0.05910   0.08401
     Eigenvalues ---    0.11134   0.11531   0.11726   0.13531   0.14030
     Eigenvalues ---    0.16000   0.16000   0.21957   0.21979   0.22027
     Eigenvalues ---    0.29013   0.29913   0.32985   0.33482   0.33627
     Eigenvalues ---    0.33823   0.34009   0.34118   0.40223   0.43050
     Eigenvalues ---    0.52605   0.536221000.000001000.000001000.00000
     Eigenvalues --- 1000.000001000.000001000.000001000.000001000.00000
     Eigenvalues --- 1000.000001000.000001000.000001000.000001000.00000
     Eigenvalues --- 1000.000001000.000001000.000001000.000001000.00000
     Eigenvalues --- 1000.000001000.000001000.000001000.000001000.00000
     Eigenvalues --- 1000.00000
 RFO step:  Lambda=-6.53697854D-03 EMin= 3.09803529D-03
 Linear search not attempted -- first point.
 Iteration  1 RMS(Cart)=  0.08628931 RMS(Int)=  0.00265161
 Iteration  2 RMS(Cart)=  0.00309294 RMS(Int)=  0.00035091
 Iteration  3 RMS(Cart)=  0.00000312 RMS(Int)=  0.00035090
 Iteration  4 RMS(Cart)=  0.00000000 RMS(Int)=  0.00035090
 Iteration  1 RMS(Cart)=  0.00001088 RMS(Int)=  0.00000860
 Iteration  2 RMS(Cart)=  0.00000700 RMS(Int)=  0.00000953
 Iteration  3 RMS(Cart)=  0.00000451 RMS(Int)=  0.00001094
 Iteration  4 RMS(Cart)=  0.00000290 RMS(Int)=  0.00001207
 Iteration  5 RMS(Cart)=  0.00000187 RMS(Int)=  0.00001286
 Iteration  6 RMS(Cart)=  0.00000120 RMS(Int)=  0.00001340
 Iteration  7 RMS(Cart)=  0.00000077 RMS(Int)=  0.00001375
 Variable       Old X    -DE/DX   Delta X   Delta X   Delta X     New X
                                 (Linear)    (Quad)   (Total)
    R1        2.71252  -0.01811   0.00000  -0.04430  -0.04430   2.66822
    R2        2.88138  -0.00156   0.00000  -0.00511  -0.00511   2.87627
    R3        2.07965   0.00360   0.00000   0.01050   0.01050   2.09015
    R4        2.08213   0.00391   0.00000   0.01146   0.01146   2.09360
    R5        1.83077  -0.02238   0.00000  -0.04123  -0.04123   1.78955
    R6        2.89975  -0.00445   0.00000  -0.01500  -0.01500   2.88475
    R7        2.07314   0.00714   0.00000   0.02060   0.02060   2.09374
    R8        2.07629   0.00475   0.00000   0.01377   0.01377   2.09006
    R9        2.67608  -0.01479   0.00000  -0.03385  -0.03385   2.64223
   R10        2.07131   0.00469   0.00000   0.01350   0.01350   2.08481
   R11        2.09078   0.00180   0.00000   0.00534   0.00534   2.09611
   R12        1.84024  -0.01520   0.00000  -0.02855  -0.02855   1.81169
    A1        1.89289  -0.00812   0.00000  -0.03973  -0.03966   1.85323
    A2        1.92458   0.00168   0.00000  -0.00788  -0.00784   1.91673
    A3        1.92431   0.00092   0.00000  -0.00087  -0.00055   1.92376
    A4        1.92762   0.00291   0.00000   0.01476   0.01428   1.94189
    A5        1.91321   0.00406   0.00000   0.02868   0.02843   1.94163
    A6        1.88142  -0.00129   0.00000   0.00593   0.00542   1.88684
    A7        1.89501  -0.00808   0.00000  -0.04851  -0.04851   1.84650
    A8        1.97637  -0.01166   0.00000  -0.05286  -0.05274   1.92363
    A9        1.91047   0.00293   0.00000   0.00741   0.00731   1.91778
   A10        1.88322   0.00489   0.00000   0.02821   0.02824   1.91145
   A11        1.90085   0.00377   0.00000   0.01565   0.01544   1.91629
   A12        1.91450   0.00304   0.00000   0.01043   0.01078   1.92528
   A13        1.87584  -0.00261   0.00000  -0.00689  -0.00717   1.86866
   A14        1.97412  -0.00608   0.00000  -0.03371  -0.03360   1.94052
   A15        1.91543   0.00504   0.00000   0.04098   0.04039   1.95583
   A16        1.90300   0.00387   0.00000   0.02321   0.02209   1.92509
   A17        1.85739  -0.00071   0.00000  -0.01490  -0.01438   1.84301
   A18        1.94545  -0.00125   0.00000  -0.03093  -0.03091   1.91454
   A19        1.86482  -0.00057   0.00000   0.01880   0.01745   1.88227
   A20        1.84705  -0.00387   0.00000  -0.02326  -0.02326   1.82380
    D1       -2.99913  -0.00030   0.00000  -0.00506  -0.00495  -3.00407
    D2        1.17133   0.00023   0.00000   0.00673   0.00648   1.17781
    D3       -0.90422   0.00019   0.00000   0.00488   0.00502  -0.89920
    D4        1.04764  -0.00061   0.00000   0.00000   0.00000   1.04765
    D5       -1.07683   0.00037   0.00000   0.01054   0.01042  -1.06641
    D6       -3.11313  -0.00083   0.00000  -0.00099  -0.00128  -3.11441
    D7       -3.12469  -0.00191   0.00000  -0.02587  -0.02592   3.13257
    D8        1.03402  -0.00093   0.00000  -0.01534  -0.01550   1.01852
    D9       -1.00228  -0.00213   0.00000  -0.02687  -0.02720  -1.02948
   D10       -1.05418   0.00080   0.00000   0.00817   0.00855  -1.04563
   D11        3.10454   0.00177   0.00000   0.01870   0.01896   3.12350
   D12        1.06824   0.00058   0.00000   0.00718   0.00727   1.07550
   D13       -1.23369   0.00183   0.00000   0.08288   0.08286  -1.15083
   D14        2.97836   0.00320   0.00000   0.09538   0.09596   3.07432
   D15        0.94129  -0.00120   0.00000   0.03615   0.03577   0.97707
   D16        0.89616   0.00045   0.00000   0.06809   0.06795   0.96412
   D17       -1.17497   0.00182   0.00000   0.08059   0.08105  -1.09392
   D18        3.07115  -0.00258   0.00000   0.02136   0.02087   3.09201
   D19        2.94473   0.00123   0.00000   0.07482   0.07473   3.01946
   D20        0.87360   0.00259   0.00000   0.08731   0.08783   0.96143
   D21       -1.16347  -0.00181   0.00000   0.02809   0.02764  -1.13583
   D22        0.80703  -0.00157   0.00000  -0.04673  -0.04646   0.76057
   D23        2.91151   0.00058   0.00000  -0.02596  -0.02579   2.88572
   D24       -1.34468  -0.00117   0.00000  -0.02832  -0.02876  -1.37344
         Item               Value     Threshold  Converged?
 Maximum Force            0.022376     0.000450     NO 
 RMS     Force            0.005935     0.000300     NO 
 Maximum Displacement     0.365048     0.001800     NO 
 RMS     Displacement     0.085874     0.001200     NO 
 Predicted change in Energy=-3.515122D-03
 GradGradGradGradGradGradGradGradGradGradGradGradGradGradGradGradGradGrad

                          Input orientation:                          
 ---------------------------------------------------------------------
 Center     Atomic      Atomic             Coordinates (Angstroms)
 Number     Number       Type             X           Y           Z
 ---------------------------------------------------------------------
      1          6           0        1.033202    2.056200    1.237279
      2          8           0        1.713688    3.150371    0.659910
      3          6           0        1.975917    0.866038    1.130240
      4          6           0        3.273996    1.152107    1.880906
      5          8           0        3.990303    2.188648    1.274712
      6          1           0        0.089535    1.870819    0.690929
      7          1           0        0.782024    2.275683    2.293756
      8          1           0        1.178251    3.910612    0.839147
      9          1           0        2.197010    0.655095    0.065253
     10          1           0        1.483511   -0.033771    1.543933
     11          1           0        3.953035    0.282606    1.880684
     12          1           0        3.058104    1.414548    2.936782
     13          1           0        3.327625    2.850443    1.069767
 ---------------------------------------------------------------------
                    Distance matrix (angstroms):
                    1          2          3          4          5
     1  C    0.000000
     2  O    1.411959   0.000000
     3  C    1.522055   2.346945   0.000000
     4  C    2.500559   2.813975   1.526547   0.000000
     5  O    2.960302   2.546737   2.414109   1.398208   0.000000
     6  H    1.106062   2.067871   2.181975   3.474678   3.956995
     7  H    1.107884   2.074254   2.183174   2.764560   3.367355
     8  H    1.902208   0.946987   3.160765   3.617563   3.326036
     9  H    2.165915   2.610292   1.107960   2.168759   2.651505
    10  H    2.159813   3.312588   1.106012   2.173866   3.360898
    11  H    3.476353   3.837843   2.193754   1.103234   2.000397
    12  H    2.720341   3.163018   2.176141   1.109216   2.056867
    13  H    2.433775   1.691961   2.401798   1.882862   0.958706
                    6          7          8          9         10
     6  H    0.000000
     7  H    1.792348   0.000000
     8  H    2.316901   2.223933   0.000000
     9  H    2.512152   3.097534   3.497882   0.000000
    10  H    2.509631   2.527429   4.018466   1.780481   0.000000
    11  H    4.343336   3.768062   4.684726   2.553069   2.512379
    12  H    3.750259   2.517057   3.763544   3.092561   2.552842
    13  H    3.404175   2.882461   2.407686   2.665876   3.456050
                   11         12         13
    11  H    0.000000
    12  H    1.788166   0.000000
    13  H    2.764510   2.370692   0.000000
 Stoichiometry    C3H8O2
 Framework group  C1[X(C3H8O2)]
 Deg. of freedom    33
 Full point group                 C1      NOp   1
 Largest Abelian subgroup         C1      NOp   1
 Largest concise Abelian subgroup C1      NOp   1
                         Standard orientation:                         
 ---------------------------------------------------------------------
 Center     Atomic      Atomic             Coordinates (Angstroms)
 Number     Number       Type             X           Y           Z
 ---------------------------------------------------------------------
      1          6           0        1.238641    0.467482    0.213642
      2          8           0        1.211467   -0.901447   -0.131211
      3          6           0       -0.044078    1.070260   -0.341284
      4          6           0       -1.259722    0.382019    0.274245
      5          8           0       -1.334616   -0.957760   -0.118654
      6          1           0        2.131532    0.947917   -0.228286
      7          1           0        1.293878    0.584211    1.313973
      8          1           0        1.945058   -1.295503    0.319731
      9          1           0       -0.067237    0.957855   -1.443284
     10          1           0       -0.066481    2.154703   -0.125079
     11          1           0       -2.207058    0.841255   -0.055577
     12          1           0       -1.218452    0.445306    1.380884
     13          1           0       -0.435093   -1.280654   -0.043051
 ---------------------------------------------------------------------
 Rotational constants (GHZ):      7.6615137      4.3787519      3.1028933
 Standard basis: VSTO-6G (5D, 7F)
 There are    28 symmetry adapted cartesian basis functions of A   symmetry.
 There are    28 symmetry adapted basis functions of A   symmetry.
    28 basis functions,   168 primitive gaussians,    28 cartesian basis functions
    16 alpha electrons       16 beta electrons
       nuclear repulsion energy       139.7873382451 Hartrees.
 Integral buffers will be    131072 words long.
 Regular integral format.
 Two-electron integral symmetry is turned off.
 Do NDO integrals.
 One-electron integrals computed using PRISM.
 NBasis=    28 RedAO= F EigKep=  0.00D+00  NBF=    28
 NBsUse=    28 1.00D-04 EigRej=  0.00D+00 NBFU=    28
 Initial guess from the checkpoint file:  "1-3-propanediol-opt.chk"
 B after Tr=    -0.000000   -0.000000    0.000000
         Rot=    0.999950   -0.006599    0.003054   -0.006868 Ang=  -1.15 deg.
 Overlap will be assumed to be unity.
 Keep J ints in memory in canonical form, NReq=891302.
 Requested convergence on RMS density matrix=1.00D-08 within 128 cycles.
 Requested convergence on MAX density matrix=1.00D-06.
 Requested convergence on             energy=1.00D-06.
 No special actions if energy rises.
 SCF Done:  E(RPM3) = -0.159062691761     A.U. after   12 cycles
            NFock= 11  Conv=0.58D-08     -V/T= 0.9930
 Calling FoFJK, ICntrl=      2127 FMM=F ISym2X=0 I1Cent= 0 IOpClX= 0 NMat=1 NMatS=1 NMatT=0.
 ***** Axes restored to original set *****
 -------------------------------------------------------------------
 Center     Atomic                   Forces (Hartrees/Bohr)
 Number     Number              X              Y              Z
 -------------------------------------------------------------------
      1        6          -0.003072189   -0.002385571   -0.000563098
      2        8          -0.023826615    0.009423853   -0.005639576
      3        6          -0.002342284   -0.006194377    0.001151250
      4        6           0.000433847   -0.003504942    0.002364075
      5        8           0.007423621   -0.001253772    0.003086139
      6        1          -0.000624604    0.000123996    0.000414157
      7        1          -0.000870502   -0.000073305   -0.000095482
      8        1           0.000754766    0.002992923   -0.000996998
      9        1          -0.000696644   -0.002126082   -0.000120443
     10        1           0.000230854    0.000031078   -0.000877747
     11        1           0.000424783    0.000802735   -0.000507535
     12        1           0.001066962   -0.000929086    0.000419294
     13        1           0.021098005    0.003092549    0.001365964
 -------------------------------------------------------------------
 Cartesian Forces:  Max     0.023826615 RMS     0.005797321

 GradGradGradGradGradGradGradGradGradGradGradGradGradGradGradGradGradGrad
 Berny optimization.
 Using GEDIIS/GDIIS optimizer.
 FormGI is forming the generalized inverse of G from B-inverse, IUseBI=4.
 GSVD:  received Info=                   1 from GESDD.
 Internal  Forces:  Max     0.060372017 RMS     0.017216490
 Search for a local minimum.
 Step number   2 out of a maximum of   66 on scan point     1 out of    37
 All quantities printed in internal units (Hartrees-Bohrs-Radians)
 Mixed Optimization -- RFO/linear search
 Update second derivatives using D2CorX and points    2    1
 DE=  1.28D-03 DEPred=-3.52D-03 R=-3.63D-01
 Trust test=-3.63D-01 RLast= 2.65D-01 DXMaxT set to 1.50D-01
 ITU= -1  0
 Use linear search instead of GDIIS.
 Energy rises -- skip Quadratic/GDIIS search.
 Quartic linear search produced a step of -0.49203.
 Iteration  1 RMS(Cart)=  0.04183749 RMS(Int)=  0.00062678
 Iteration  2 RMS(Cart)=  0.00080646 RMS(Int)=  0.00008752
 Iteration  3 RMS(Cart)=  0.00000035 RMS(Int)=  0.00008752
 Iteration  1 RMS(Cart)=  0.00000247 RMS(Int)=  0.00000196
 Iteration  2 RMS(Cart)=  0.00000159 RMS(Int)=  0.00000218
 Iteration  3 RMS(Cart)=  0.00000102 RMS(Int)=  0.00000250
 Iteration  4 RMS(Cart)=  0.00000066 RMS(Int)=  0.00000276
 Variable       Old X    -DE/DX   Delta X   Delta X   Delta X     New X
                                 (Linear)    (Quad)   (Total)
    R1        2.66822   0.00122   0.02180   0.00000   0.02180   2.69001
    R2        2.87627   0.02452   0.00251   0.00000   0.00251   2.87878
    R3        2.09015   0.00031  -0.00517   0.00000  -0.00517   2.08499
    R4        2.09360   0.00009  -0.00564   0.00000  -0.00564   2.08796
    R5        1.78955   0.00179   0.02028   0.00000   0.02028   1.80983
    R6        2.88475   0.02886   0.00738   0.00000   0.00738   2.89213
    R7        2.09374   0.00038  -0.01013   0.00000  -0.01013   2.08361
    R8        2.09006  -0.00046  -0.00677   0.00000  -0.00677   2.08329
    R9        2.64223   0.01404   0.01666   0.00000   0.01666   2.65889
   R10        2.08481  -0.00037  -0.00664   0.00000  -0.00664   2.07817
   R11        2.09611  -0.00003  -0.00263   0.00000  -0.00263   2.09349
   R12        1.81169  -0.01274   0.01405   0.00000   0.01405   1.82574
    A1        1.85323   0.04194   0.01951   0.00000   0.01950   1.87273
    A2        1.91673  -0.01820   0.00386   0.00000   0.00385   1.92058
    A3        1.92376  -0.00897   0.00027   0.00000   0.00019   1.92395
    A4        1.94189  -0.01028  -0.00702   0.00000  -0.00690   1.93499
    A5        1.94163  -0.00837  -0.01399   0.00000  -0.01393   1.92771
    A6        1.88684   0.00351  -0.00267   0.00000  -0.00254   1.88430
    A7        1.84650   0.00484   0.02387   0.00000   0.02387   1.87037
    A8        1.92363   0.06037   0.02595   0.00000   0.02592   1.94955
    A9        1.91778  -0.01268  -0.00360   0.00000  -0.00357   1.91421
   A10        1.91145  -0.02308  -0.01389   0.00000  -0.01390   1.89755
   A11        1.91629  -0.01318  -0.00760   0.00000  -0.00754   1.90875
   A12        1.92528  -0.02221  -0.00531   0.00000  -0.00539   1.91989
   A13        1.86866   0.00877   0.00353   0.00000   0.00360   1.87226
   A14        1.94052   0.05916   0.01653   0.00000   0.01651   1.95703
   A15        1.95583  -0.01627  -0.01987   0.00000  -0.01973   1.93609
   A16        1.92509  -0.00975  -0.01087   0.00000  -0.01060   1.91449
   A17        1.84301  -0.02548   0.00707   0.00000   0.00695   1.84996
   A18        1.91454  -0.01494   0.01521   0.00000   0.01521   1.92974
   A19        1.88227   0.00514  -0.00858   0.00000  -0.00825   1.87403
   A20        1.82380   0.02938   0.01144   0.00000   0.01144   1.83524
    D1       -3.00407  -0.00260   0.00243   0.00000   0.00241  -3.00167
    D2        1.17781  -0.00500  -0.00319   0.00000  -0.00313   1.17468
    D3       -0.89920   0.00751  -0.00247   0.00000  -0.00251  -0.90171
    D4        1.04765   0.01363  -0.00000   0.00000  -0.00001   1.04764
    D5       -1.06641  -0.00065  -0.00513   0.00000  -0.00510  -1.07151
    D6       -3.11441   0.00976   0.00063   0.00000   0.00070  -3.11371
    D7        3.13257   0.01160   0.01275   0.00000   0.01276  -3.13785
    D8        1.01852  -0.00269   0.00763   0.00000   0.00767   1.02619
    D9       -1.02948   0.00772   0.01338   0.00000   0.01347  -1.01601
   D10       -1.04563   0.00334  -0.00421   0.00000  -0.00430  -1.04993
   D11        3.12350  -0.01095  -0.00933   0.00000  -0.00939   3.11410
   D12        1.07550  -0.00054  -0.00358   0.00000  -0.00360   1.07191
   D13       -1.15083  -0.01590  -0.04077   0.00000  -0.04076  -1.19159
   D14        3.07432  -0.01241  -0.04722   0.00000  -0.04736   3.02696
   D15        0.97707  -0.00147  -0.01760   0.00000  -0.01750   0.95956
   D16        0.96412  -0.00137  -0.03344   0.00000  -0.03340   0.93072
   D17       -1.09392   0.00211  -0.03988   0.00000  -0.04000  -1.13392
   D18        3.09201   0.01305  -0.01027   0.00000  -0.01014   3.08187
   D19        3.01946  -0.01201  -0.03677   0.00000  -0.03675   2.98271
   D20        0.96143  -0.00853  -0.04321   0.00000  -0.04335   0.91808
   D21       -1.13583   0.00241  -0.01360   0.00000  -0.01349  -1.14932
   D22        0.76057   0.00965   0.02286   0.00000   0.02279   0.78337
   D23        2.88572   0.00751   0.01269   0.00000   0.01265   2.89836
   D24       -1.37344  -0.00734   0.01415   0.00000   0.01426  -1.35918
         Item               Value     Threshold  Converged?
 Maximum Force            0.060340     0.000450     NO 
 RMS     Force            0.017097     0.000300     NO 
 Maximum Displacement     0.178202     0.001800     NO 
 RMS     Displacement     0.042160     0.001200     NO 
 Predicted change in Energy=-3.440368D-03
 GradGradGradGradGradGradGradGradGradGradGradGradGradGradGradGradGradGrad

                          Input orientation:                          
 ---------------------------------------------------------------------
 Center     Atomic      Atomic             Coordinates (Angstroms)
 Number     Number       Type             X           Y           Z
 ---------------------------------------------------------------------
      1          6           0        1.016820    2.053279    1.233593
      2          8           0        1.666607    3.182855    0.660730
      3          6           0        1.979914    0.877270    1.132813
      4          6           0        3.285776    1.149337    1.883137
      5          8           0        4.051439    2.156032    1.266666
      6          1           0        0.079463    1.841156    0.691656
      7          1           0        0.761844    2.254014    2.289763
      8          1           0        1.115341    3.945800    0.837510
      9          1           0        2.203465    0.670246    0.073149
     10          1           0        1.488048   -0.019218    1.544788
     11          1           0        3.922425    0.252831    1.901490
     12          1           0        3.063133    1.418535    2.934442
     13          1           0        3.421925    2.857263    1.053564
 ---------------------------------------------------------------------
                    Distance matrix (angstroms):
                    1          2          3          4          5
     1  C    0.000000
     2  O    1.423494   0.000000
     3  C    1.523386   2.374183   0.000000
     4  C    2.527287   2.872487   1.530451   0.000000
     5  O    3.036538   2.666261   2.438106   1.407022   0.000000
     6  H    1.103327   2.078494   2.176100   3.489797   4.025714
     7  H    1.104899   2.082088   2.172016   2.784940   3.446413
     8  H    1.936032   0.957721   3.201650   3.691114   3.465272
     9  H    2.160448   2.635654   1.102597   2.162633   2.654628
    10  H    2.148055   3.326666   1.102427   2.170674   3.373430
    11  H    3.482850   3.900416   2.180399   1.099719   2.010428
    12  H    2.735541   3.198887   2.170760   1.107826   2.074156
    13  H    2.542309   1.827969   2.450724   1.903612   0.966139
                    6          7          8          9         10
     6  H    0.000000
     7  H    1.786069   0.000000
     8  H    2.350285   2.257462   0.000000
     9  H    2.502991   3.082202   3.535182   0.000000
    10  H    2.484540   2.499989   4.044813   1.775641   0.000000
    11  H    4.330686   3.760953   4.759180   2.543991   2.475366
    12  H    3.756459   2.531713   3.818125   3.079928   2.545420
    13  H    3.512194   2.994684   2.559672   2.688662   3.500760
                   11         12         13
    11  H    0.000000
    12  H    1.778831   0.000000
    13  H    2.784340   2.395072   0.000000
 Stoichiometry    C3H8O2
 Framework group  C1[X(C3H8O2)]
 Deg. of freedom    33
 Full point group                 C1      NOp   1
 Largest Abelian subgroup         C1      NOp   1
 Largest concise Abelian subgroup C1      NOp   1
                         Standard orientation:                         
 ---------------------------------------------------------------------
 Center     Atomic      Atomic             Coordinates (Angstroms)
 Number     Number       Type             X           Y           Z
 ---------------------------------------------------------------------
      1          6           0        1.259074    0.471973    0.198819
      2          8           0        1.260582   -0.916076   -0.116865
      3          6           0       -0.038172    1.058437   -0.343321
      4          6           0       -1.265562    0.391776    0.282267
      5          8           0       -1.405477   -0.948182   -0.123501
      6          1           0        2.134231    0.964598   -0.258072
      7          1           0        1.319975    0.615156    1.292708
      8          1           0        2.010957   -1.307136    0.331731
      9          1           0       -0.072814    0.933922   -1.438317
     10          1           0       -0.050657    2.141207   -0.136445
     11          1           0       -2.189865    0.900451   -0.028047
     12          1           0       -1.205229    0.459779    1.386357
     13          1           0       -0.519470   -1.327030   -0.053580
 ---------------------------------------------------------------------
 Rotational constants (GHZ):      7.6450424      4.1600823      2.9865128
 Standard basis: VSTO-6G (5D, 7F)
 There are    28 symmetry adapted cartesian basis functions of A   symmetry.
 There are    28 symmetry adapted basis functions of A   symmetry.
    28 basis functions,   168 primitive gaussians,    28 cartesian basis functions
    16 alpha electrons       16 beta electrons
       nuclear repulsion energy       138.7851014768 Hartrees.
 Integral buffers will be    131072 words long.
 Regular integral format.
 Two-electron integral symmetry is turned off.
 Do NDO integrals.
 One-electron integrals computed using PRISM.
 NBasis=    28 RedAO= F EigKep=  0.00D+00  NBF=    28
 NBsUse=    28 1.00D-04 EigRej=  0.00D+00 NBFU=    28
 Lowest energy guess from the checkpoint file:  "1-3-propanediol-opt.chk"
 B after Tr=    -0.000000    0.000000   -0.000000
         Rot=    0.999988   -0.003231    0.001558   -0.003186 Ang=  -0.55 deg.
 B after Tr=    -0.000000    0.000000   -0.000000
         Rot=    0.999986    0.003365   -0.001502    0.003685 Ang=   0.60 deg.
 Overlap will be assumed to be unity.
 Keep J ints in memory in canonical form, NReq=891302.
 Requested convergence on RMS density matrix=1.00D-08 within 128 cycles.
 Requested convergence on MAX density matrix=1.00D-06.
 Requested convergence on             energy=1.00D-06.
 No special actions if energy rises.
 SCF Done:  E(RPM3) = -0.162377623834     A.U. after    9 cycles
            NFock=  8  Conv=0.73D-08     -V/T= 0.9928
 Calling FoFJK, ICntrl=      2127 FMM=F ISym2X=0 I1Cent= 0 IOpClX= 0 NMat=1 NMatS=1 NMatT=0.
 ***** Axes restored to original set *****
 -------------------------------------------------------------------
 Center     Atomic                   Forces (Hartrees/Bohr)
 Number     Number              X              Y              Z
 -------------------------------------------------------------------
      1        6           0.004119107    0.006407357   -0.001903907
      2        8          -0.011339359    0.004344252    0.003394768
      3        6           0.000941158    0.001061574    0.000862758
      4        6          -0.002729755    0.002332027   -0.001571195
      5        8          -0.005299017    0.000989586    0.003179172
      6        1          -0.001740511    0.000487256   -0.001051407
      7        1          -0.001241775    0.001251895    0.001497870
      8        1           0.005631349   -0.009059612   -0.001450191
      9        1          -0.000124562   -0.002629984   -0.003303964
     10        1          -0.000486989   -0.002261006    0.000050179
     11        1           0.003363234   -0.000175779   -0.001071027
     12        1           0.001616922    0.001169831    0.000913837
     13        1           0.007290197   -0.003917397    0.000453106
 -------------------------------------------------------------------
 Cartesian Forces:  Max     0.011339359 RMS     0.003625864

 GradGradGradGradGradGradGradGradGradGradGradGradGradGradGradGradGradGrad
 Berny optimization.
 Using GEDIIS/GDIIS optimizer.
 FormGI is forming the generalized inverse of G from B-inverse, IUseBI=4.
 GSVD:  received Info=                   1 from GESDD.
 Internal  Forces:  Max     0.010726209 RMS     0.003224534
 Search for a local minimum.
 Step number   3 out of a maximum of   66 on scan point     1 out of    37
 All quantities printed in internal units (Hartrees-Bohrs-Radians)
 Mixed Optimization -- RFO/linear search
 Update second derivatives using D2CorX and points    2    1    3
 ITU=  0 -1  0
 Use linear search instead of GDIIS.
     Eigenvalues ---    0.00355   0.01223   0.01489   0.01763   0.04473
     Eigenvalues ---    0.04840   0.04926   0.05749   0.06097   0.08159
     Eigenvalues ---    0.10592   0.11305   0.11376   0.13433   0.13958
     Eigenvalues ---    0.15426   0.16568   0.21358   0.21947   0.27954
     Eigenvalues ---    0.29386   0.30126   0.33006   0.33526   0.33673
     Eigenvalues ---    0.33878   0.34088   0.35960   0.41557   0.48765
     Eigenvalues ---    0.52941   0.624811000.000001000.000001000.00000
     Eigenvalues --- 1000.000001000.000001000.000001000.000001000.00000
     Eigenvalues --- 1000.000001000.000001000.000001000.000001000.00000
     Eigenvalues --- 1000.000001000.000001000.000001000.000001000.00000
     Eigenvalues --- 1000.000001000.000001000.000001000.000001000.00000
     Eigenvalues --- 1000.00000
 RFO step:  Lambda=-2.70594883D-03 EMin= 3.54868706D-03
 Quartic linear search produced a step of  0.00804.
 Iteration  1 RMS(Cart)=  0.05624042 RMS(Int)=  0.00153381
 Iteration  2 RMS(Cart)=  0.00178504 RMS(Int)=  0.00021566
 Iteration  3 RMS(Cart)=  0.00000210 RMS(Int)=  0.00021566
 Iteration  4 RMS(Cart)=  0.00000000 RMS(Int)=  0.00021566
 Iteration  1 RMS(Cart)=  0.00000829 RMS(Int)=  0.00000669
 Iteration  2 RMS(Cart)=  0.00000533 RMS(Int)=  0.00000742
 Iteration  3 RMS(Cart)=  0.00000342 RMS(Int)=  0.00000851
 Iteration  4 RMS(Cart)=  0.00000220 RMS(Int)=  0.00000939
 Iteration  5 RMS(Cart)=  0.00000141 RMS(Int)=  0.00001000
 Iteration  6 RMS(Cart)=  0.00000091 RMS(Int)=  0.00001042
 Variable       Old X    -DE/DX   Delta X   Delta X   Delta X     New X
                                 (Linear)    (Quad)   (Total)
    R1        2.69001  -0.00713  -0.00018  -0.03768  -0.03786   2.65216
    R2        2.87878   0.00557  -0.00002   0.01647   0.01645   2.89523
    R3        2.08499   0.00190   0.00004   0.01038   0.01042   2.09541
    R4        2.08796   0.00195   0.00005   0.01097   0.01101   2.09897
    R5        1.80983  -0.01073  -0.00017  -0.03868  -0.03885   1.77098
    R6        2.89213   0.00462  -0.00006   0.00936   0.00930   2.90143
    R7        2.08361   0.00364   0.00008   0.01998   0.02007   2.10367
    R8        2.08329   0.00207   0.00006   0.01232   0.01238   2.09566
    R9        2.65889  -0.00260  -0.00014  -0.02124  -0.02137   2.63751
   R10        2.07817   0.00207   0.00006   0.01214   0.01220   2.09037
   R11        2.09349   0.00083   0.00002   0.00490   0.00493   2.09841
   R12        1.82574  -0.00769  -0.00012  -0.02756  -0.02768   1.79806
    A1        1.87273   0.00482  -0.00016   0.00656   0.00640   1.87913
    A2        1.92058  -0.00263  -0.00003  -0.01454  -0.01458   1.90601
    A3        1.92395  -0.00163  -0.00000  -0.01057  -0.01071   1.91324
    A4        1.93499  -0.00068   0.00006   0.00630   0.00635   1.94134
    A5        1.92771   0.00016   0.00012   0.01801   0.01808   1.94579
    A6        1.88430  -0.00011   0.00002  -0.00593  -0.00610   1.87820
    A7        1.87037  -0.00165  -0.00020  -0.03162  -0.03182   1.83855
    A8        1.94955   0.00503  -0.00022   0.00555   0.00520   1.95475
    A9        1.91421  -0.00068   0.00003   0.01391   0.01376   1.92797
   A10        1.89755  -0.00170   0.00012  -0.00068  -0.00052   1.89703
   A11        1.90875  -0.00057   0.00006   0.01249   0.01233   1.92108
   A12        1.91989  -0.00223   0.00004  -0.00939  -0.00929   1.91059
   A13        1.87226  -0.00006  -0.00003  -0.02310  -0.02306   1.84921
   A14        1.95703   0.00915  -0.00014   0.02773   0.02757   1.98460
   A15        1.93609  -0.00069   0.00017   0.01364   0.01392   1.95001
   A16        1.91449  -0.00023   0.00009   0.02464   0.02454   1.93903
   A17        1.84996  -0.00555  -0.00006  -0.05083  -0.05100   1.79896
   A18        1.92974  -0.00373  -0.00013  -0.02288  -0.02359   1.90615
   A19        1.87403   0.00054   0.00007   0.00436   0.00354   1.87756
   A20        1.83524   0.00563  -0.00009   0.02491   0.02482   1.86006
    D1       -3.00167  -0.00047  -0.00002  -0.00047  -0.00046  -3.00213
    D2        1.17468  -0.00106   0.00003  -0.00369  -0.00355   1.17113
    D3       -0.90171   0.00172   0.00002   0.01925   0.01913  -0.88258
    D4        1.04764   0.00182  -0.00000   0.00000   0.00001   1.04765
    D5       -1.07151  -0.00032   0.00004  -0.02898  -0.02899  -1.10050
    D6       -3.11371   0.00111  -0.00000  -0.00866  -0.00866  -3.12237
    D7       -3.13785   0.00123  -0.00011  -0.00996  -0.01008   3.13526
    D8        1.02619  -0.00092  -0.00006  -0.03894  -0.03908   0.98711
    D9       -1.01601   0.00051  -0.00011  -0.01862  -0.01875  -1.03476
   D10       -1.04993   0.00076   0.00003  -0.00159  -0.00155  -1.05148
   D11        3.11410  -0.00139   0.00008  -0.03057  -0.03055   3.08356
   D12        1.07191   0.00004   0.00003  -0.01025  -0.01022   1.06169
   D13       -1.19159  -0.00211   0.00034  -0.07795  -0.07777  -1.26937
   D14        3.02696  -0.00062   0.00039  -0.04103  -0.04058   2.98638
   D15        0.95956  -0.00071   0.00015  -0.07029  -0.07011   0.88945
   D16        0.93072  -0.00005   0.00028  -0.04821  -0.04804   0.88268
   D17       -1.13392   0.00144   0.00033  -0.01130  -0.01085  -1.14477
   D18        3.08187   0.00135   0.00009  -0.04056  -0.04038   3.04149
   D19        2.98271  -0.00176   0.00031  -0.07437  -0.07421   2.90851
   D20        0.91808  -0.00028   0.00036  -0.03745  -0.03702   0.88106
   D21       -1.14932  -0.00037   0.00011  -0.06671  -0.06654  -1.21586
   D22        0.78337   0.00085  -0.00019  -0.00105  -0.00124   0.78213
   D23        2.89836   0.00172  -0.00011  -0.00119  -0.00204   2.89633
   D24       -1.35918  -0.00262  -0.00012  -0.03590  -0.03527  -1.39445
         Item               Value     Threshold  Converged?
 Maximum Force            0.010726     0.000450     NO 
 RMS     Force            0.003228     0.000300     NO 
 Maximum Displacement     0.242909     0.001800     NO 
 RMS     Displacement     0.055916     0.001200     NO 
 Predicted change in Energy=-1.406870D-03
 GradGradGradGradGradGradGradGradGradGradGradGradGradGradGradGradGradGrad

                          Input orientation:                          
 ---------------------------------------------------------------------
 Center     Atomic      Atomic             Coordinates (Angstroms)
 Number     Number       Type             X           Y           Z
 ---------------------------------------------------------------------
      1          6           0        0.995851    2.060460    1.232455
      2          8           0        1.620976    3.195418    0.693205
      3          6           0        1.979140    0.890859    1.120737
      4          6           0        3.282053    1.159618    1.887257
      5          8           0        4.110552    2.100197    1.273327
      6          1           0        0.062786    1.855788    0.669400
      7          1           0        0.714740    2.256108    2.289060
      8          1           0        1.048068    3.910699    0.889222
      9          1           0        2.202722    0.671013    0.052594
     10          1           0        1.494116   -0.021022    1.524536
     11          1           0        3.921114    0.258112    1.937324
     12          1           0        3.073615    1.481197    2.929467
     13          1           0        3.550467    2.820954    1.004714
 ---------------------------------------------------------------------
                    Distance matrix (angstroms):
                    1          2          3          4          5
     1  C    0.000000
     2  O    1.403460   0.000000
     3  C    1.532091   2.371087   0.000000
     4  C    2.543029   2.886073   1.535372   0.000000
     5  O    3.115222   2.781014   2.455341   1.395711   0.000000
     6  H    1.108843   2.055025   2.192534   3.511625   4.099863
     7  H    1.110727   2.061630   2.197177   2.820431   3.547895
     8  H    1.882530   0.937162   3.168584   3.681740   3.578304
     9  H    2.186132   2.668601   1.113216   2.183959   2.678166
    10  H    2.160126   3.324559   1.108977   2.173061   3.377634
    11  H    3.507486   3.932714   2.199647   1.106174   1.967246
    12  H    2.744540   3.170108   2.194967   1.110433   2.049682
    13  H    2.675122   1.990025   2.491545   1.900253   0.951492
                    6          7          8          9         10
     6  H    0.000000
     7  H    1.791256   0.000000
     8  H    2.289489   2.192789   0.000000
     9  H    2.522592   3.119038   3.539595   0.000000
    10  H    2.510454   2.525321   4.007619   1.774161   0.000000
    11  H    4.364275   3.794277   4.763854   2.583711   2.477625
    12  H    3.783294   2.564157   3.764030   3.113077   2.593320
    13  H    3.634268   3.163849   2.731828   2.710202   3.546212
                   11         12         13
    11  H    0.000000
    12  H    1.788446   0.000000
    13  H    2.752326   2.393117   0.000000
 Stoichiometry    C3H8O2
 Framework group  C1[X(C3H8O2)]
 Deg. of freedom    33
 Full point group                 C1      NOp   1
 Largest Abelian subgroup         C1      NOp   1
 Largest concise Abelian subgroup C1      NOp   1
                         Standard orientation:                         
 ---------------------------------------------------------------------
 Center     Atomic      Atomic             Coordinates (Angstroms)
 Number     Number       Type             X           Y           Z
 ---------------------------------------------------------------------
      1          6           0        1.295428    0.439369    0.186075
      2          8           0        1.278654   -0.933260   -0.106000
      3          6           0       -0.008332    1.043733   -0.345201
      4          6           0       -1.244614    0.406088    0.304709
      5          8           0       -1.501935   -0.893610   -0.134130
      6          1           0        2.179201    0.904133   -0.296080
      7          1           0        1.394739    0.586189    1.282567
      8          1           0        2.022861   -1.290296    0.337796
      9          1           0       -0.062534    0.940290   -1.452275
     10          1           0       -0.004015    2.133699   -0.140789
     11          1           0       -2.171918    0.947847    0.039706
     12          1           0       -1.159942    0.407931    1.411907
     13          1           0       -0.667031   -1.349977   -0.135287
 ---------------------------------------------------------------------
 Rotational constants (GHZ):      7.8249425      3.9534913      2.9120596
 Standard basis: VSTO-6G (5D, 7F)
 There are    28 symmetry adapted cartesian basis functions of A   symmetry.
 There are    28 symmetry adapted basis functions of A   symmetry.
    28 basis functions,   168 primitive gaussians,    28 cartesian basis functions
    16 alpha electrons       16 beta electrons
       nuclear repulsion energy       138.2815998147 Hartrees.
 Integral buffers will be    131072 words long.
 Regular integral format.
 Two-electron integral symmetry is turned off.
 Do NDO integrals.
 One-electron integrals computed using PRISM.
 NBasis=    28 RedAO= F EigKep=  0.00D+00  NBF=    28
 NBsUse=    28 1.00D-04 EigRej=  0.00D+00 NBFU=    28
 Initial guess from the checkpoint file:  "1-3-propanediol-opt.chk"
 B after Tr=     0.000000   -0.000000    0.000000
         Rot=    0.999902   -0.002821   -0.003317    0.013324 Ang=  -1.61 deg.
 Overlap will be assumed to be unity.
 Keep J ints in memory in canonical form, NReq=891302.
 Requested convergence on RMS density matrix=1.00D-08 within 128 cycles.
 Requested convergence on MAX density matrix=1.00D-06.
 Requested convergence on             energy=1.00D-06.
 No special actions if energy rises.
 SCF Done:  E(RPM3) = -0.162041281754     A.U. after   12 cycles
            NFock= 11  Conv=0.34D-08     -V/T= 0.9928
 Calling FoFJK, ICntrl=      2127 FMM=F ISym2X=0 I1Cent= 0 IOpClX= 0 NMat=1 NMatS=1 NMatT=0.
 ***** Axes restored to original set *****
 -------------------------------------------------------------------
 Center     Atomic                   Forces (Hartrees/Bohr)
 Number     Number              X              Y              Z
 -------------------------------------------------------------------
      1        6           0.000103222   -0.007580974    0.002240035
      2        8           0.008847118   -0.002384409   -0.004027602
      3        6           0.000077493   -0.000066861    0.000914815
      4        6          -0.002714592   -0.004849610    0.002053896
      5        8           0.003651647    0.000791589   -0.001457407
      6        1           0.000893141   -0.001199332    0.001109692
      7        1           0.000432486   -0.001790042   -0.001331088
      8        1          -0.004786099    0.011119327    0.000908289
      9        1          -0.000740541    0.000989975    0.003054817
     10        1           0.000861084    0.001541924   -0.000623304
     11        1          -0.001773422    0.000453478    0.000033354
     12        1          -0.000782756   -0.000975335   -0.001280049
     13        1          -0.004068780    0.003950271   -0.001595448
 -------------------------------------------------------------------
 Cartesian Forces:  Max     0.011119327 RMS     0.003306349

 GradGradGradGradGradGradGradGradGradGradGradGradGradGradGradGradGradGrad
 Berny optimization.
 Using GEDIIS/GDIIS optimizer.
 FormGI is forming the generalized inverse of G from B-inverse, IUseBI=4.
 GSVD:  received Info=                   1 from GESDD.
 Internal  Forces:  Max     0.011602556 RMS     0.003048091
 Search for a local minimum.
 Step number   4 out of a maximum of   66 on scan point     1 out of    37
 All quantities printed in internal units (Hartrees-Bohrs-Radians)
 Mixed Optimization -- RFO/linear search
 Update second derivatives using D2CorX and points    2    1    4    3
 DE=  3.36D-04 DEPred=-1.41D-03 R=-2.39D-01
 Trust test=-2.39D-01 RLast= 2.17D-01 DXMaxT set to 7.50D-02
 ITU= -1  0 -1  0
 Use linear search instead of GDIIS.
 Energy rises -- skip Quadratic/GDIIS search.
 Quartic linear search produced a step of -0.60031.
 Iteration  1 RMS(Cart)=  0.03330815 RMS(Int)=  0.00052797
 Iteration  2 RMS(Cart)=  0.00065423 RMS(Int)=  0.00005154
 Iteration  3 RMS(Cart)=  0.00000038 RMS(Int)=  0.00005154
 Iteration  1 RMS(Cart)=  0.00000214 RMS(Int)=  0.00000171
 Iteration  2 RMS(Cart)=  0.00000138 RMS(Int)=  0.00000189
 Iteration  3 RMS(Cart)=  0.00000088 RMS(Int)=  0.00000217
 Variable       Old X    -DE/DX   Delta X   Delta X   Delta X     New X
                                 (Linear)    (Quad)   (Total)
    R1        2.65216   0.01007   0.02273   0.00000   0.02273   2.67488
    R2        2.89523  -0.00500  -0.00988   0.00000  -0.00988   2.88536
    R3        2.09541  -0.00109  -0.00626   0.00000  -0.00626   2.08915
    R4        2.09897  -0.00169  -0.00661   0.00000  -0.00661   2.09236
    R5        1.77098   0.01160   0.02332   0.00000   0.02332   1.79430
    R6        2.90143  -0.00606  -0.00558   0.00000  -0.00558   2.89585
    R7        2.10367  -0.00328  -0.01205   0.00000  -0.01205   2.09163
    R8        2.09566  -0.00187  -0.00743   0.00000  -0.00743   2.08823
    R9        2.63751   0.00429   0.01283   0.00000   0.01283   2.65034
   R10        2.09037  -0.00139  -0.00732   0.00000  -0.00732   2.08304
   R11        2.09841  -0.00134  -0.00296   0.00000  -0.00296   2.09546
   R12        1.79806   0.00584   0.01662   0.00000   0.01662   1.81468
    A1        1.87913  -0.00185  -0.00384   0.00000  -0.00384   1.87529
    A2        1.90601   0.00169   0.00875   0.00000   0.00875   1.91476
    A3        1.91324   0.00150   0.00643   0.00000   0.00646   1.91970
    A4        1.94134  -0.00051  -0.00381   0.00000  -0.00381   1.93753
    A5        1.94579  -0.00082  -0.01085   0.00000  -0.01085   1.93494
    A6        1.87820   0.00010   0.00366   0.00000   0.00371   1.88191
    A7        1.83855   0.00632   0.01910   0.00000   0.01910   1.85765
    A8        1.95475  -0.00468  -0.00312   0.00000  -0.00309   1.95166
    A9        1.92797   0.00047  -0.00826   0.00000  -0.00822   1.91976
   A10        1.89703   0.00223   0.00031   0.00000   0.00030   1.89733
   A11        1.92108   0.00151  -0.00740   0.00000  -0.00735   1.91373
   A12        1.91059   0.00138   0.00558   0.00000   0.00557   1.91616
   A13        1.84921  -0.00064   0.01384   0.00000   0.01382   1.86303
   A14        1.98460  -0.00551  -0.01655   0.00000  -0.01655   1.96805
   A15        1.95001   0.00056  -0.00836   0.00000  -0.00838   1.94163
   A16        1.93903   0.00010  -0.01473   0.00000  -0.01469   1.92434
   A17        1.79896   0.00341   0.03061   0.00000   0.03064   1.82960
   A18        1.90615   0.00207   0.01416   0.00000   0.01431   1.92046
   A19        1.87756  -0.00015  -0.00212   0.00000  -0.00191   1.87565
   A20        1.86006  -0.00134  -0.01490   0.00000  -0.01490   1.84516
    D1       -3.00213   0.00024   0.00028   0.00000   0.00027  -3.00186
    D2        1.17113   0.00098   0.00213   0.00000   0.00211   1.17324
    D3       -0.88258  -0.00100  -0.01149   0.00000  -0.01145  -0.89403
    D4        1.04765  -0.00063  -0.00000   0.00000  -0.00001   1.04764
    D5       -1.10050   0.00039   0.01740   0.00000   0.01742  -1.08309
    D6       -3.12237  -0.00038   0.00520   0.00000   0.00520  -3.11717
    D7        3.13526  -0.00003   0.00605   0.00000   0.00605   3.14131
    D8        0.98711   0.00100   0.02346   0.00000   0.02347   1.01058
    D9       -1.03476   0.00022   0.01125   0.00000   0.01126  -1.02350
   D10       -1.05148  -0.00081   0.00093   0.00000   0.00092  -1.05055
   D11        3.08356   0.00022   0.01834   0.00000   0.01835   3.10191
   D12        1.06169  -0.00055   0.00613   0.00000   0.00613   1.06782
   D13       -1.26937   0.00217   0.04669   0.00000   0.04673  -1.22264
   D14        2.98638   0.00108   0.02436   0.00000   0.02435   3.01072
   D15        0.88945   0.00083   0.04209   0.00000   0.04208   0.93153
   D16        0.88268   0.00058   0.02884   0.00000   0.02886   0.91154
   D17       -1.14477  -0.00051   0.00651   0.00000   0.00648  -1.13828
   D18        3.04149  -0.00077   0.02424   0.00000   0.02422   3.06571
   D19        2.90851   0.00147   0.04455   0.00000   0.04458   2.95309
   D20        0.88106   0.00037   0.02222   0.00000   0.02220   0.90327
   D21       -1.21586   0.00012   0.03995   0.00000   0.03994  -1.17593
   D22        0.78213  -0.00089   0.00074   0.00000   0.00074   0.78287
   D23        2.89633  -0.00094   0.00122   0.00000   0.00140   2.89772
   D24       -1.39445   0.00139   0.02117   0.00000   0.02100  -1.37345
         Item               Value     Threshold  Converged?
 Maximum Force            0.011603     0.000450     NO 
 RMS     Force            0.003072     0.000300     NO 
 Maximum Displacement     0.145539     0.001800     NO 
 RMS     Displacement     0.033495     0.001200     NO 
 Predicted change in Energy=-2.486473D-04
 GradGradGradGradGradGradGradGradGradGradGradGradGradGradGradGradGradGrad

                          Input orientation:                          
 ---------------------------------------------------------------------
 Center     Atomic      Atomic             Coordinates (Angstroms)
 Number     Number       Type             X           Y           Z
 ---------------------------------------------------------------------
      1          6           0        1.008458    2.056075    1.233117
      2          8           0        1.648494    3.187957    0.673831
      3          6           0        1.979587    0.882542    1.128015
      4          6           0        3.284227    1.153225    1.884949
      5          8           0        4.075537    2.133725    1.268949
      6          1           0        0.072842    1.846889    0.682605
      7          1           0        0.742948    2.254819    2.289507
      8          1           0        1.088268    3.931985    0.858566
      9          1           0        2.203217    0.670413    0.064958
     10          1           0        1.490346   -0.020099    1.536681
     11          1           0        3.921863    0.254604    1.915997
     12          1           0        3.066962    1.443540    2.932852
     13          1           0        3.473451    2.843724    1.033274
 ---------------------------------------------------------------------
                    Distance matrix (angstroms):
                    1          2          3          4          5
     1  C    0.000000
     2  O    1.415487   0.000000
     3  C    1.526865   2.372940   0.000000
     4  C    2.533604   2.877944   1.532418   0.000000
     5  O    3.068270   2.712214   2.445062   1.402501   0.000000
     6  H    1.105532   2.069111   2.182666   3.498542   4.055569
     7  H    1.107229   2.073926   2.182083   2.799156   3.487456
     8  H    1.914601   0.949504   3.188441   3.687439   3.510830
     9  H    2.170738   2.648862   1.106842   2.171188   2.663917
    10  H    2.152873   3.325830   1.105045   2.171633   3.375478
    11  H    3.492786   3.913533   2.188072   1.102299   1.993335
    12  H    2.738930   3.187196   2.180491   1.108868   2.064499
    13  H    2.595480   1.891603   2.467153   1.902352   0.960285
                    6          7          8          9         10
     6  H    0.000000
     7  H    1.788179   0.000000
     8  H    2.325872   2.231530   0.000000
     9  H    2.510793   3.096990   3.537058   0.000000
    10  H    2.494876   2.510100   4.029947   1.775094   0.000000
    11  H    4.344145   3.774370   4.761360   2.559880   2.476211
    12  H    3.767102   2.544230   3.796084   3.093315   2.564615
    13  H    3.561010   3.062773   2.627534   2.697111   3.519603
                   11         12         13
    11  H    0.000000
    12  H    1.782813   0.000000
    13  H    2.771969   2.394608   0.000000
 Stoichiometry    C3H8O2
 Framework group  C1[X(C3H8O2)]
 Deg. of freedom    33
 Full point group                 C1      NOp   1
 Largest Abelian subgroup         C1      NOp   1
 Largest concise Abelian subgroup C1      NOp   1
                         Standard orientation:                         
 ---------------------------------------------------------------------
 Center     Atomic      Atomic             Coordinates (Angstroms)
 Number     Number       Type             X           Y           Z
 ---------------------------------------------------------------------
      1          6           0        1.274187    0.458112    0.193568
      2          8           0        1.266931   -0.923944   -0.112162
      3          6           0       -0.025235    1.052743   -0.344234
      4          6           0       -1.256834    0.399026    0.291473
      5          8           0       -1.445236   -0.925939   -0.128028
      6          1           0        2.153309    0.938701   -0.273742
      7          1           0        1.350727    0.603165    1.288583
      8          1           0        2.014597   -1.301877    0.334739
      9          1           0       -0.068031    0.936245   -1.444096
     10          1           0       -0.029961    2.138492   -0.138678
     11          1           0       -2.182222    0.921778   -0.000846
     12          1           0       -1.185998    0.440949    1.397282
     13          1           0       -0.578693   -1.337682   -0.086565
 ---------------------------------------------------------------------
 Rotational constants (GHZ):      7.7137601      4.0759512      2.9564710
 Standard basis: VSTO-6G (5D, 7F)
 There are    28 symmetry adapted cartesian basis functions of A   symmetry.
 There are    28 symmetry adapted basis functions of A   symmetry.
    28 basis functions,   168 primitive gaussians,    28 cartesian basis functions
    16 alpha electrons       16 beta electrons
       nuclear repulsion energy       138.5765442719 Hartrees.
 Integral buffers will be    131072 words long.
 Regular integral format.
 Two-electron integral symmetry is turned off.
 Do NDO integrals.
 One-electron integrals computed using PRISM.
 NBasis=    28 RedAO= F EigKep=  0.00D+00  NBF=    28
 NBsUse=    28 1.00D-04 EigRej=  0.00D+00 NBFU=    28
 Lowest energy guess from the checkpoint file:  "1-3-propanediol-opt.chk"
 B after Tr=     0.000000   -0.000000    0.000000
         Rot=    0.999982   -0.001033   -0.001337    0.005767 Ang=  -0.69 deg.
 B after Tr=     0.000000    0.000000   -0.000000
         Rot=    0.999968    0.001791    0.001980   -0.007560 Ang=   0.92 deg.
 Overlap will be assumed to be unity.
 Keep J ints in memory in canonical form, NReq=891302.
 Requested convergence on RMS density matrix=1.00D-08 within 128 cycles.
 Requested convergence on MAX density matrix=1.00D-06.
 Requested convergence on             energy=1.00D-06.
 No special actions if energy rises.
 SCF Done:  E(RPM3) = -0.162883258089     A.U. after    9 cycles
            NFock=  8  Conv=0.30D-08     -V/T= 0.9928
 Calling FoFJK, ICntrl=      2127 FMM=F ISym2X=0 I1Cent= 0 IOpClX= 0 NMat=1 NMatS=1 NMatT=0.
 ***** Axes restored to original set *****
 -------------------------------------------------------------------
 Center     Atomic                   Forces (Hartrees/Bohr)
 Number     Number              X              Y              Z
 -------------------------------------------------------------------
      1        6           0.002699479    0.001220289   -0.000288270
      2        8          -0.001746587    0.001095281    0.001064998
      3        6           0.000595041    0.000679373    0.000866369
      4        6          -0.002599402   -0.000567505   -0.000211910
      5        8          -0.001980174    0.001182281    0.001153622
      6        1          -0.000665953   -0.000180707   -0.000178699
      7        1          -0.000588091    0.000005276    0.000357370
      8        1           0.001870178   -0.001223690   -0.000689036
      9        1          -0.000374276   -0.001178460   -0.000713373
     10        1           0.000073932   -0.000727928   -0.000231339
     11        1           0.001309115    0.000169219   -0.000633400
     12        1           0.000683199    0.000309663   -0.000001087
     13        1           0.000723540   -0.000783094   -0.000495246
 -------------------------------------------------------------------
 Cartesian Forces:  Max     0.002699479 RMS     0.001046973

 GradGradGradGradGradGradGradGradGradGradGradGradGradGradGradGradGradGrad
 Berny optimization.
 Using GEDIIS/GDIIS optimizer.
 FormGI is forming the generalized inverse of G from B-inverse, IUseBI=4.
 Internal  Forces:  Max     0.003895214 RMS     0.000924971
 Search for a local minimum.
 Step number   5 out of a maximum of   66 on scan point     1 out of    37
 All quantities printed in internal units (Hartrees-Bohrs-Radians)
 Mixed Optimization -- En-DIIS/RFO-DIIS
 Update second derivatives using D2CorX and points    2    1    4    3    5
 ITU=  0 -1  0 -1  0
 Use linear search instead of GDIIS.
     Eigenvalues ---    0.00414   0.01223   0.01484   0.01796   0.04443
     Eigenvalues ---    0.04775   0.05202   0.05628   0.06036   0.08198
     Eigenvalues ---    0.11022   0.11304   0.11577   0.13452   0.14008
     Eigenvalues ---    0.16098   0.16827   0.21150   0.22009   0.28173
     Eigenvalues ---    0.29522   0.33000   0.33221   0.33538   0.33781
     Eigenvalues ---    0.33908   0.34093   0.40787   0.43039   0.50253
     Eigenvalues ---    0.53112   0.867571000.000001000.000001000.00000
     Eigenvalues --- 1000.000001000.000001000.000001000.000001000.00000
     Eigenvalues --- 1000.000001000.000001000.000001000.000001000.00000
     Eigenvalues --- 1000.000001000.000001000.000001000.000001000.00000
     Eigenvalues --- 1000.000001000.000001000.000001000.000001000.00000
     Eigenvalues --- 1000.00000
 RFO step:  Lambda=-3.89113953D-04 EMin= 4.14232401D-03
 Quartic linear search produced a step of -0.00430.
 Iteration  1 RMS(Cart)=  0.03431518 RMS(Int)=  0.00062121
 Iteration  2 RMS(Cart)=  0.00075073 RMS(Int)=  0.00002420
 Iteration  3 RMS(Cart)=  0.00000030 RMS(Int)=  0.00002420
 Iteration  1 RMS(Cart)=  0.00000041 RMS(Int)=  0.00000033
 Variable       Old X    -DE/DX   Delta X   Delta X   Delta X     New X
                                 (Linear)    (Quad)   (Total)
    R1        2.67488  -0.00020   0.00007  -0.00365  -0.00358   2.67130
    R2        2.88536  -0.00028  -0.00003   0.00517   0.00514   2.89050
    R3        2.08915   0.00069  -0.00002   0.00321   0.00319   2.09234
    R4        2.09236   0.00048  -0.00002   0.00259   0.00257   2.09493
    R5        1.79430  -0.00220   0.00007  -0.00802  -0.00795   1.78635
    R6        2.89585  -0.00162  -0.00002   0.00031   0.00029   2.89614
    R7        2.09163   0.00084  -0.00003   0.00460   0.00456   2.09619
    R8        2.08823   0.00048  -0.00002   0.00254   0.00252   2.09075
    R9        2.65034  -0.00072   0.00004  -0.00177  -0.00173   2.64861
   R10        2.08304   0.00060  -0.00002   0.00289   0.00287   2.08591
   R11        2.09546  -0.00005  -0.00001   0.00030   0.00029   2.09575
   R12        1.81468  -0.00091   0.00005  -0.00505  -0.00501   1.80967
    A1        1.87529  -0.00120  -0.00001   0.00523   0.00521   1.88050
    A2        1.91476   0.00056   0.00003  -0.00205  -0.00202   1.91274
    A3        1.91970   0.00031   0.00002   0.00048   0.00047   1.92018
    A4        1.93753   0.00026  -0.00001  -0.00108  -0.00109   1.93644
    A5        1.93494   0.00044  -0.00003   0.00294   0.00290   1.93784
    A6        1.88191  -0.00036   0.00001  -0.00552  -0.00551   1.87640
    A7        1.85765   0.00142   0.00005   0.00859   0.00864   1.86629
    A8        1.95166  -0.00390  -0.00001  -0.00416  -0.00416   1.94750
    A9        1.91976   0.00082  -0.00002   0.00306   0.00304   1.92280
   A10        1.89733   0.00185   0.00000   0.00654   0.00654   1.90388
   A11        1.91373   0.00140  -0.00002   0.00672   0.00670   1.92043
   A12        1.91616   0.00104   0.00002  -0.00099  -0.00097   1.91519
   A13        1.86303  -0.00107   0.00004  -0.01154  -0.01149   1.85154
   A14        1.96805  -0.00132  -0.00005   0.00826   0.00822   1.97628
   A15        1.94163   0.00122  -0.00002   0.00724   0.00722   1.94885
   A16        1.92434   0.00075  -0.00004   0.00706   0.00700   1.93134
[...]
           A7         106.43373 107.52397 107.58194 107.64448 107.66660
           A8         114.55297 114.55259 115.00901 115.55103 115.97622
           A9         108.17477 108.34428 108.34903 108.43997 108.60386
           A10        109.64099 109.68825 109.63351 109.44876 109.20126
           A11        110.27174 110.26463 110.16433 109.93283 109.61310
           A12        107.86404 107.87766 107.67913 107.55194 107.59139
           A13        105.99990 105.75434 105.59653 105.44452 105.33085
           A14        113.52671 113.58811 113.61615 113.67882 113.77468
           A15        110.60124 110.81056 110.77223 110.70237 110.65877
           A16        111.34730 111.09148 111.23098 111.37819 111.46768
           A17        102.67875 102.84705 102.89513 102.83524 102.73926
           A18        110.55489 110.45545 110.41472 110.44111 110.46741
           A19        107.65981 107.60826 107.44997 107.31257 107.21287
           A20        107.12827 107.17157 107.16393 107.27042 107.42108
           D1        -164.16543 -57.35158 -59.81536 -61.91002 -63.03766
           D2          74.51851-178.43443 179.49780 177.52914 176.28437
           D3         -42.76899  67.66718  65.70435  63.90965  62.82036
           D4         -49.97456 -39.97472 -29.97465 -19.97475  -9.97476
           D5        -173.40321-163.52369-153.71817-143.87361-133.89087
           D6          71.43367  81.48662  91.50601 101.57910 111.73884
           D7          69.97895  75.72355  85.33358  95.23811 105.43332
           D8         -53.44969 -47.82542 -38.40994 -28.66075 -18.48279
           D9        -168.61282-162.81512-153.18576-143.20805-132.85307
           D10       -171.86205-165.04670-155.53916-145.76777-135.67939
           D11         64.70930  71.40432  80.71733  90.33337 100.40450
           D12        -50.45382 -43.58537 -34.05850 -24.21393 -13.96578
           D13        -66.72520 -66.31520 -65.19376 -67.11594 -70.32243
           D14        178.47862 178.50176 179.57056 177.73081 174.61418
           D15         58.81693  58.93408  60.13567  58.41851  55.39762
           D16         55.57148  56.19915  57.58280  55.99825  53.06847
           D17        -59.22470 -58.98390 -57.65288 -59.15501 -61.99491
           D18       -178.88639-178.55157-177.08777-178.46730 178.78852
           D19        170.89704 171.23624 172.26986 170.31683 167.11170
           D20         56.10086  56.05320  57.03418  55.16358  52.04832
           D21        -63.56083 -63.51448 -62.40071 -64.14872 -67.16825
           D22         64.67211  62.57537  61.33512  60.45786  59.68680
           D23       -175.90193-177.60941-178.85098-179.81837 179.34605
           D24        -61.29143 -63.01317 -64.42878 -65.57331 -66.56117
                          31        32        33        34        35
     Eigenvalues --    -0.16193  -0.16193  -0.16220  -0.16263  -0.16325
           R1           1.40161   1.40131   1.40137   1.40164   1.40169
           R2           1.53693   1.53712   1.53631   1.53473   1.53248
           R3           1.10434   1.10396   1.10371   1.10354   1.10398
           R4           1.10730   1.10752   1.10777   1.10795   1.10786
           R5           0.95332   0.95346   0.95355   0.95348   0.94984
           R6           1.52856   1.52894   1.52959   1.53056   1.52887
           R7           1.10786   1.10827   1.10866   1.10897   1.10922
           R8           1.10739   1.10715   1.10693   1.10678   1.10702
           R9           1.40099   1.40135   1.40162   1.40181   1.40208
           R10          1.10367   1.10359   1.10344   1.10328   1.10447
           R11          1.11287   1.11272   1.11263   1.11247   1.10903
           R12          0.94990   0.94989   0.94989   0.94990   0.94969
           A1         115.82084 115.67376 115.36557 114.90936 114.83672
           A2         102.38007 102.53022 102.76061 102.97668 102.88267
           A3         108.86548 108.88623 108.95135 109.10875 109.69437
           A4         111.65487 111.60082 111.53718 111.48460 110.96662
           A5         110.33255 110.34508 110.38086 110.43930 110.43547
           A6         107.22700 107.26445 107.34008 107.46141 107.57822
           A7         107.27343 107.13432 106.96954 106.79933 107.46838
           A8         114.98157 114.89374 114.55791 114.02187 114.78086
           A9         109.30699 109.51268 109.71714 109.89351 109.74073
           A10        108.99261 108.76407 108.55959 108.40651 108.07661
           A11        109.71374 109.51805 109.49826 109.66900 109.33464
           A12        108.13380 108.50487 108.91987 109.31099 109.14029
           A13        105.25635 105.19347 105.15944 105.15221 105.33646
           A14        113.69795 113.68749 113.68855 113.69523 114.11638
           A15        111.32116 111.42636 111.58435 111.76317 111.20010
           A16        110.57370 110.69131 110.74749 110.76443 111.36551
           A17        102.86306 102.80373 102.75277 102.71089 102.41812
           A18        110.29925 110.12899 109.93662 109.75366 110.02256
           A19        107.69897 107.70278 107.72289 107.73981 107.17218
           A20        107.44862 107.52639 107.58642 107.62161 107.96323
           D1         -47.56881 -51.41774 -54.74687 -57.43621 -70.60168
           D2        -169.29843-173.10382-176.34317-178.86318 168.71239
           D3          77.40906  73.48321  70.02427  67.20055  54.44976
           D4           0.02537  10.02532  20.02555  30.02550  40.02556
           D5        -123.86034-113.70005-103.58845 -93.55898 -83.55451
           D6         121.59201 131.84081 141.99530 152.02354 162.06967
           D7         116.66478 126.71985 136.76285 146.69575 156.15866
           D8          -7.22093   2.99449  13.14885  23.11127  32.57859
           D9        -121.76858-111.46465-101.26740 -91.30621 -81.79723
           D10       -124.19522-114.11976-103.99939 -93.90965 -84.63723
           D11        111.91907 122.15488 132.38662 142.50587 151.78270
           D12         -2.62858   7.69574  17.97036  28.08839  37.40688
           D13        -80.18039 -85.01018 -90.31788 -96.12399 -90.32815
           D14        164.20585 159.38711 154.03669 148.15825 154.43571
           D15         44.53029  39.55927  34.04093  28.01010  34.97785
           D16         43.48985  38.71233  33.41315  27.58182  33.46809
           D17        -72.12390 -76.89038 -82.23228 -88.13594 -81.76806
           D18        168.20054 163.28178 157.77196 151.71591 158.77409
           D19        157.78780 153.03382 147.90895 142.37726 148.20640
           D20         42.17404  37.43112  32.26352  26.65949  32.97025
           D21        -77.50152 -82.39673 -87.73224 -93.48865 -86.48760
           D22         57.76949  56.69885  55.62206  54.88379  51.00975
           D23        178.26888 177.28196 176.36422 175.81909 171.29291
           D24        -67.08843 -68.17254 -69.17292 -69.79504 -75.00331
                          36        37
     Eigenvalues --    -0.16395  -0.16442
           R1           1.40200   1.40222
           R2           1.53070   1.52945
           R3           1.10401   1.10413
           R4           1.10794   1.10805
           R5           0.94969   0.94961
           R6           1.52942   1.53019
           R7           1.10922   1.10918
           R8           1.10701   1.10698
           R9           1.40234   1.40248
           R10          1.10434   1.10414
           R11          1.10895   1.10900
           R12          0.94963   0.94957
           A1         114.34408 113.86751
           A2         102.93093 102.83386
           A3         110.00422 110.35157
           A4         110.91520 110.90845
           A5         110.51624 110.69234
           A6         107.71624 107.78116
           A7         107.44425 107.38367
           A8         114.13115 113.52226
           A9         109.94791 110.12194
           A10        107.96341 107.92333
           A11        109.73797 110.22254
           A12        109.25925 109.22969
           A13        105.42003 105.47685
           A14        114.16215 114.12607
           A15        111.35787 111.51988
           A16        111.27657 111.23119
           A17        102.38808 102.34267
           A18        109.89537 109.78816
           A19        107.22317 107.30435
           A20        107.99937 107.97926
           D1         -71.75523 -71.04000
           D2         167.85367 168.89072
           D3          53.28058  54.14671
           D4          50.02541  60.02550
           D5         -73.77250 -64.09789
           D6         171.70631-178.75547
           D7         165.86473 175.43292
           D8          42.06683  51.30953
           D9         -72.45437 -63.34805
           D10        -74.73948 -64.97968
           D11        161.46261 170.89693
           D12         46.94142  56.23935
           D13        -93.87288 -97.79814
           D14        150.79250 146.83788
           D15         31.22409  27.08844
           D16         30.03796  26.27065
           D17        -85.29665 -89.09333
           D18        155.13493 151.15723
           D19        145.16333 141.71784
           D20         29.82872  26.35386
           D21        -89.73970 -93.39558
           D22         49.75754  49.91232
           D23        170.23612 170.53910
           D24        -76.06780 -75.73758
                          Input orientation:                          
 ---------------------------------------------------------------------
 Center     Atomic      Atomic             Coordinates (Angstroms)
 Number     Number       Type             X           Y           Z
 ---------------------------------------------------------------------
      1          6           0        1.400178    2.537763    0.574368
      2          8           0        1.196020    3.329163    1.713764
      3          6           0        2.638836    1.644230    0.655338
      4          6           0        2.602389    0.654025    1.821378
      5          8           0        3.312272    1.076609    2.954715
      6          1           0        1.507013    3.287527   -0.229086
      7          1           0        0.496189    1.935071    0.356759
      8          1           0        0.923590    2.750731    2.415874
      9          1           0        3.555392    2.266552    0.709322
     10          1           0        2.717675    1.084171   -0.296254
     11          1           0        3.109337   -0.292699    1.564777
     12          1           0        1.559419    0.403834    2.103340
     13          1           0        3.037888    1.962424    3.159003
 ---------------------------------------------------------------------
                    Distance matrix (angstroms):
                    1          2          3          4          5
     1  C    0.000000
     2  O    1.402218   0.000000
     3  C    1.529455   2.457841   0.000000
     4  C    2.559065   3.024206   1.530191   0.000000
     5  O    3.384837   3.330538   2.462284   1.402485   0.000000
     6  H    1.104128   1.968023   2.182579   3.512774   4.275944
     7  H    1.108055   2.067539   2.182814   2.867450   3.926405
     8  H    1.914062   0.949611   2.695533   2.750994   2.966283
     9  H    2.176400   2.775731   1.109177   2.178332   2.552814
    10  H    2.146325   3.375736   1.106982   2.163951   3.304905
    11  H    3.451615   4.098886   2.190923   1.104140   1.961661
    12  H    2.629974   2.973446   2.190989   1.109001   2.061543
    13  H    3.113430   2.710935   2.555157   1.921148   0.949573
                    6          7          8          9         10
     6  H    0.000000
     7  H    1.787208   0.000000
     8  H    2.761222   2.255644   0.000000
     9  H    2.473632   3.097241   3.173820   0.000000
    10  H    2.514953   2.466872   3.654012   1.763796   0.000000
    11  H    4.313166   3.640166   3.842437   2.735056   2.347894
    12  H    3.709264   2.554544   2.451506   3.065439   2.749994
    13  H    3.946976   3.783326   2.375694   2.522150   3.579478
                   11         12         13
    11  H    0.000000
    12  H    1.782542   0.000000
    13  H    2.762651   2.393637   0.000000
 Stoichiometry    C3H8O2
 Framework group  C1[X(C3H8O2)]
 Deg. of freedom    33
 Full point group                 C1      NOp   1
 Largest Abelian subgroup         C1      NOp   1
 Largest concise Abelian subgroup C1      NOp   1
                         Standard orientation:                         
 ---------------------------------------------------------------------
 Center     Atomic      Atomic             Coordinates (Angstroms)
 Number     Number       Type             X           Y           Z
 ---------------------------------------------------------------------
      1          6           0        1.384374    0.415106    0.094954
      2          8           0        1.514009   -0.974208   -0.043679
      3          6           0        0.025684    0.957449   -0.351202
      4          6           0       -1.152217    0.371942    0.430602
      5          8           0       -1.799764   -0.689623   -0.218031
      6          1           0        2.193792    0.802366   -0.548452
      7          1           0        1.604905    0.720644    1.136970
      8          1           0        0.962517   -1.377808    0.615657
      9          1           0       -0.114112    0.788823   -1.438536
     10          1           0        0.038601    2.056792   -0.222020
     11          1           0       -1.966354    1.108454    0.548312
     12          1           0       -0.842351    0.057356    1.447904
     13          1           0       -1.138004   -1.312960   -0.492281
 ---------------------------------------------------------------------
 Rotational constants (GHZ):      8.4609166      3.3013102      2.6585510

 **********************************************************************

            Population analysis using the SCF density.

 **********************************************************************

 Orbital symmetries:
       Occupied  (A) (A) (A) (A) (A) (A) (A) (A) (A) (A) (A) (A)
                 (A) (A) (A) (A)
       Virtual   (A) (A) (A) (A) (A) (A) (A) (A) (A) (A) (A) (A)
 The electronic state is 1-A.
 Alpha  occ. eigenvalues --   -1.48903  -1.36312  -1.16783  -0.93149  -0.79110
 Alpha  occ. eigenvalues --   -0.68793  -0.64276  -0.60995  -0.58583  -0.56810
 Alpha  occ. eigenvalues --   -0.51934  -0.50580  -0.47069  -0.43827  -0.42160
 Alpha  occ. eigenvalues --   -0.41139
 Alpha virt. eigenvalues --    0.10869   0.11517   0.11935   0.13044   0.13530
 Alpha virt. eigenvalues --    0.13827   0.14838   0.15900   0.16274   0.16734
 Alpha virt. eigenvalues --    0.19969   0.20590
          Condensed to atoms (all electrons):
               1          2          3          4          5          6
     1  C    3.932821   0.000000   0.000000   0.000000   0.000000   0.000000
     2  O    0.000000   6.309288   0.000000   0.000000   0.000000   0.000000
     3  C    0.000000   0.000000   4.189331   0.000000   0.000000   0.000000
     4  C    0.000000   0.000000   0.000000   3.930472   0.000000   0.000000
     5  O    0.000000   0.000000   0.000000   0.000000   6.312713   0.000000
     6  H    0.000000   0.000000   0.000000   0.000000   0.000000   0.942593
     7  H    0.000000   0.000000   0.000000   0.000000   0.000000   0.000000
     8  H    0.000000   0.000000   0.000000   0.000000   0.000000   0.000000
     9  H    0.000000   0.000000   0.000000   0.000000   0.000000   0.000000
    10  H    0.000000   0.000000   0.000000   0.000000   0.000000   0.000000
    11  H    0.000000   0.000000   0.000000   0.000000   0.000000   0.000000
    12  H    0.000000   0.000000   0.000000   0.000000   0.000000   0.000000
    13  H    0.000000   0.000000   0.000000   0.000000   0.000000   0.000000
               7          8          9         10         11         12
     1  C    0.000000   0.000000   0.000000   0.000000   0.000000   0.000000
     2  O    0.000000   0.000000   0.000000   0.000000   0.000000   0.000000
     3  C    0.000000   0.000000   0.000000   0.000000   0.000000   0.000000
     4  C    0.000000   0.000000   0.000000   0.000000   0.000000   0.000000
     5  O    0.000000   0.000000   0.000000   0.000000   0.000000   0.000000
     6  H    0.000000   0.000000   0.000000   0.000000   0.000000   0.000000
     7  H    0.972900   0.000000   0.000000   0.000000   0.000000   0.000000
     8  H    0.000000   0.819092   0.000000   0.000000   0.000000   0.000000
     9  H    0.000000   0.000000   0.922713   0.000000   0.000000   0.000000
    10  H    0.000000   0.000000   0.000000   0.934324   0.000000   0.000000
    11  H    0.000000   0.000000   0.000000   0.000000   0.944465   0.000000
    12  H    0.000000   0.000000   0.000000   0.000000   0.000000   0.977585
    13  H    0.000000   0.000000   0.000000   0.000000   0.000000   0.000000
              13
     1  C    0.000000
     2  O    0.000000
     3  C    0.000000
     4  C    0.000000
     5  O    0.000000
     6  H    0.000000
     7  H    0.000000
     8  H    0.000000
     9  H    0.000000
    10  H    0.000000
    11  H    0.000000
    12  H    0.000000
    13  H    0.811703
 Mulliken charges:
               1
     1  C    0.067179
     2  O   -0.309288
     3  C   -0.189331
     4  C    0.069528
     5  O   -0.312713
     6  H    0.057407
     7  H    0.027100
     8  H    0.180908
     9  H    0.077287
    10  H    0.065676
    11  H    0.055535
    12  H    0.022415
    13  H    0.188297
 Sum of Mulliken charges =   0.00000
 Mulliken charges with hydrogens summed into heavy atoms:
               1
     1  C    0.151686
     2  O   -0.128381
     3  C   -0.046367
     4  C    0.147478
     5  O   -0.124416
 Charge=              0.0000 electrons
 Dipole moment (field-independent basis, Debye):
    X=              0.6589    Y=              0.9650    Z=              1.0765  Tot=              1.5888
 N-N= 1.367344211813D+02 E-N=-2.280490639238D+02  KE=-2.254014230735D+01
 1\1\GINC-GTX1080DELTA\Scan\RPM3\ZDO\C3H8O2\MVEROT\18-Apr-2022\0\\#n PM
 3 Opt=modredundant\\Optimisation de geometrie\\0,1\C,1.4001775247,2.53
 77626026,0.5743684112\O,1.1960198523,3.3291627767,1.7137636446\C,2.638
 8363971,1.6442301857,0.6553383686\C,2.6023891535,0.6540245453,1.821378
 4933\O,3.3122722193,1.0766091467,2.9547148513\H,1.5070133647,3.2875266
 084,-0.2290856277\H,0.4961892575,1.9350713575,0.3567586826\H,0.9235901
 922,2.7507308952,2.4158742584\H,3.5553923441,2.2665518503,0.7093223524
 \H,2.7176751685,1.0841709897,-0.2962537416\H,3.1093374834,-0.292698754
 3,1.5647768082\H,1.5594191706,0.4038337888,2.1033402037\H,3.0378878722
 ,1.9624240074,3.1590032949\\Version=AM64L-G09RevD.01\State=1-A\HF=-0.1
 631032,-0.1626829,-0.1631581,-0.1628105,-0.1622593,-0.1617319,-0.16141
 21,-0.1613643,-0.1615735,-0.1619607,-0.1623977,-0.1627377,-0.1628763,-
 0.1627834,-0.1624946,-0.1620856,-0.1616456,-0.1613099,-0.1611925,-0.16
 13219,-0.1620183,-0.1625143,-0.1627575,-0.1625684,-0.1622558,-0.161746
 ,-0.1649159,-0.1640663,-0.1631069,-0.1622716,-0.161926,-0.1619329,-0.1
 621965,-0.1626326,-0.1632493,-0.1639534,-0.1644154\RMSD=7.947e-09,5.45
 8e-09,1.504e-09,4.402e-09,5.182e-09,3.167e-09,6.787e-09,4.174e-09,2.39
 5e-09,3.695e-09,5.069e-09,3.248e-09,3.980e-09,3.950e-09,3.682e-09,3.10
 9e-09,5.653e-09,9.251e-09,2.855e-09,2.499e-09,3.519e-09,5.198e-09,5.35
 3e-09,2.588e-09,2.930e-09,2.998e-09,4.480e-09,3.743e-09,9.743e-09,5.37
 1e-09,4.926e-09,6.276e-09,5.127e-09,7.643e-09,8.495e-09,7.188e-09,5.36
 6e-09\PG=C01 [X(C3H8O2)]\\@


 THE THINKER DIES, BUT HIS THOUGHTS ARE BEYOND THE 
 REACH OF DESTRUCTION.  MEN ARE MORTAL; BUT IDEAS 
 ARE IMMORTAL.
                              -- WALTER LIPPMANN
 Job cpu time:       0 days  0 hours  2 minutes 29.7 seconds.
 File lengths (MBytes):  RWF=     72 Int=      0 D2E=      0 Chk=      5 Scr=      2
 Normal termination of Gaussian 09 at Mon Apr 18 00:15:21 2022.
