 Entering Gaussian System, Link 0=g09
 Input=/scratch/mverot/1-4-butanediol-opt/1-4-butanediol-opt.com
 Output=/scratch/mverot/1-4-butanediol-opt/1-4-butanediol-opt.log
 Initial command:
 /opt/g09/l1.exe "/scratch/mverot/1-4-butanediol-opt/Gau-1473646.inp" -scrdir="/scratch/mverot/1-4-butanediol-opt/"
 Entering Link 1 = /opt/g09/l1.exe PID=   1473648.
  
 Copyright (c) 1988,1990,1992,1993,1995,1998,2003,2009,2013,
            Gaussian, Inc.  All Rights Reserved.
  
 This is part of the Gaussian(R) 09 program.  It is based on
 the Gaussian(R) 03 system (copyright 2003, Gaussian, Inc.),
 the Gaussian(R) 98 system (copyright 1998, Gaussian, Inc.),
 the Gaussian(R) 94 system (copyright 1995, Gaussian, Inc.),
 the Gaussian 92(TM) system (copyright 1992, Gaussian, Inc.),
 the Gaussian 90(TM) system (copyright 1990, Gaussian, Inc.),
 the Gaussian 88(TM) system (copyright 1988, Gaussian, Inc.),
 the Gaussian 86(TM) system (copyright 1986, Carnegie Mellon
 University), and the Gaussian 82(TM) system (copyright 1983,
 Carnegie Mellon University). Gaussian is a federally registered
 trademark of Gaussian, Inc.
  
 This software contains proprietary and confidential information,
 including trade secrets, belonging to Gaussian, Inc.
  
 This software is provided under written license and may be
 used, copied, transmitted, or stored only in accord with that
 written license.
  
 The following legend is applicable only to US Government
 contracts under FAR:
  
                    RESTRICTED RIGHTS LEGEND
  
 Use, reproduction and disclosure by the US Government is
 subject to restrictions as set forth in subparagraphs (a)
 and (c) of the Commercial Computer Software - Restricted
 Rights clause in FAR 52.227-19.
  
 Gaussian, Inc.
 340 Quinnipiac St., Bldg. 40, Wallingford CT 06492
  
  
 ---------------------------------------------------------------
 Warning -- This program may not be used in any manner that
 competes with the business of Gaussian, Inc. or will provide
 assistance to any competitor of Gaussian, Inc.  The licensee
 of this program is prohibited from giving any competitor of
 Gaussian, Inc. access to this program.  By using this program,
 the user acknowledges that Gaussian, Inc. is engaged in the
 business of creating and licensing software in the field of
 computational chemistry and represents and warrants to the
 licensee that it is not a competitor of Gaussian, Inc. and that
 it will not use this program in any manner prohibited above.
 ---------------------------------------------------------------
  

 Cite this work as:
 Gaussian 09, Revision D.01,
 M. J. Frisch, G. W. Trucks, H. B. Schlegel, G. E. Scuseria, 
 M. A. Robb, J. R. Cheeseman, G. Scalmani, V. Barone, B. Mennucci, 
 G. A. Petersson, H. Nakatsuji, M. Caricato, X. Li, H. P. Hratchian, 
 A. F. Izmaylov, J. Bloino, G. Zheng, J. L. Sonnenberg, M. Hada, 
 M. Ehara, K. Toyota, R. Fukuda, J. Hasegawa, M. Ishida, T. Nakajima, 
 Y. Honda, O. Kitao, H. Nakai, T. Vreven, J. A. Montgomery, Jr., 
 J. E. Peralta, F. Ogliaro, M. Bearpark, J. J. Heyd, E. Brothers, 
 K. N. Kudin, V. N. Staroverov, T. Keith, R. Kobayashi, J. Normand, 
 K. Raghavachari, A. Rendell, J. C. Burant, S. S. Iyengar, J. Tomasi, 
 M. Cossi, N. Rega, J. M. Millam, M. Klene, J. E. Knox, J. B. Cross, 
 V. Bakken, C. Adamo, J. Jaramillo, R. Gomperts, R. E. Stratmann, 
 O. Yazyev, A. J. Austin, R. Cammi, C. Pomelli, J. W. Ochterski, 
 R. L. Martin, K. Morokuma, V. G. Zakrzewski, G. A. Voth, 
 P. Salvador, J. J. Dannenberg, S. Dapprich, A. D. Daniels, 
 O. Farkas, J. B. Foresman, J. V. Ortiz, J. Cioslowski, 
 and D. J. Fox, Gaussian, Inc., Wallingford CT, 2013.
 
 ******************************************
 Gaussian 09:  AM64L-G09RevD.01 24-Apr-2013
                17-Apr-2022 
 ******************************************
 %chk=1-4-butanediol-opt
 ----------
 #n PM3 Opt
 ----------
 1/14=-1,18=20,19=15,26=1,38=1/1,3;
 2/9=110,12=2,17=6,18=5,40=1/2;
 3/5=2,16=1,25=1,41=800000,71=1/1,2,3;
 4/35=1/1;
 5/5=2,35=1,38=5/2;
 6/7=2,8=2,9=2,10=2,28=1/1;
 7//1,2,3,16;
 1/14=-1,18=20,19=15,26=1/3(2);
 2/9=110/2;
 99//99;
 2/9=110/2;
 3/5=2,16=1,25=1,41=800000,71=1,135=20/1,2,3;
 4/5=5,16=3,35=1/1;
 5/5=2,35=1,38=5/2;
 7//1,2,3,16;
 1/14=-1,18=20,19=15,26=1/3(-5);
 2/9=110/2;
 6/7=2,8=2,9=2,10=2,19=2,28=1/1;
 99/9=1/99;
 -------------------------
 Optimisation de geometrie
 -------------------------
 Symbolic Z-matrix:
 Charge =  0 Multiplicity = 1
 C                     1.6107    1.2545    1.9562 
 C                     1.1287    2.3802    1.0303 
 O                     1.4973    3.6767    1.461 
 C                     3.1202    0.9463    1.9456 
 C                     4.0514    2.0104    2.5215 
 O                     4.1945    3.0862    1.5783 
 H                     1.0825    0.3332    1.6712 
 H                     1.2915    1.4946    2.98 
 H                     0.0328    2.3688    1.0055 
 H                     1.4756    2.182     0.0004 
 H                     2.4724    3.7128    1.402 
 H                     3.4548    0.7229    0.923 
 H                     3.2871    0.0321    2.5311 
 H                     5.0392    1.5667    2.7112 
 H                     3.6576    2.3857    3.4778 
 H                     4.7634    3.7635    1.976 
 

 GradGradGradGradGradGradGradGradGradGradGradGradGradGradGradGradGradGrad
 Berny optimization.
 Initialization pass.
                           ----------------------------
                           !    Initial Parameters    !
                           ! (Angstroms and Degrees)  !
 --------------------------                            --------------------------
 ! Name  Definition              Value          Derivative Info.                !
 --------------------------------------------------------------------------------
 ! R1    R(1,2)                  1.5352         estimate D2E/DX2                !
 ! R2    R(1,4)                  1.5407         estimate D2E/DX2                !
 ! R3    R(1,7)                  1.0996         estimate D2E/DX2                !
 ! R4    R(1,8)                  1.099          estimate D2E/DX2                !
 ! R5    R(2,3)                  1.415          estimate D2E/DX2                !
 ! R6    R(2,9)                  1.0962         estimate D2E/DX2                !
 ! R7    R(2,10)                 1.1047         estimate D2E/DX2                !
 ! R8    R(3,11)                 0.9776         estimate D2E/DX2                !
 ! R9    R(4,5)                  1.5268         estimate D2E/DX2                !
 ! R10   R(4,12)                 1.0989         estimate D2E/DX2                !
 ! R11   R(4,13)                 1.0984         estimate D2E/DX2                !
 ! R12   R(5,6)                  1.4379         estimate D2E/DX2                !
 ! R13   R(5,14)                 1.0994         estimate D2E/DX2                !
 ! R14   R(5,15)                 1.1002         estimate D2E/DX2                !
 ! R15   R(6,16)                 0.9698         estimate D2E/DX2                !
 ! A1    A(2,1,4)              116.7531         estimate D2E/DX2                !
 ! A2    A(2,1,7)              107.8932         estimate D2E/DX2                !
 ! A3    A(2,1,8)              108.0877         estimate D2E/DX2                !
 ! A4    A(4,1,7)              107.5333         estimate D2E/DX2                !
 ! A5    A(4,1,8)              109.554          estimate D2E/DX2                !
 ! A6    A(7,1,8)              106.559          estimate D2E/DX2                !
 ! A7    A(1,2,3)              113.9843         estimate D2E/DX2                !
 ! A8    A(1,2,9)              108.6562         estimate D2E/DX2                !
 ! A9    A(1,2,10)             109.3984         estimate D2E/DX2                !
 ! A10   A(3,2,9)              106.0708         estimate D2E/DX2                !
 ! A11   A(3,2,10)             111.4914         estimate D2E/DX2                !
 ! A12   A(9,2,10)             106.9162         estimate D2E/DX2                !
 ! A13   A(2,3,11)             105.9801         estimate D2E/DX2                !
 ! A14   A(1,4,5)              117.1002         estimate D2E/DX2                !
 ! A15   A(1,4,12)             110.2059         estimate D2E/DX2                !
 ! A16   A(1,4,13)             108.1622         estimate D2E/DX2                !
 ! A17   A(5,4,12)             107.8776         estimate D2E/DX2                !
 ! A18   A(5,4,13)             106.6391         estimate D2E/DX2                !
 ! A19   A(12,4,13)            106.2946         estimate D2E/DX2                !
 ! A20   A(4,5,6)              109.5557         estimate D2E/DX2                !
 ! A21   A(4,5,14)             109.3787         estimate D2E/DX2                !
 ! A22   A(4,5,15)             110.3221         estimate D2E/DX2                !
 ! A23   A(6,5,14)             109.0102         estimate D2E/DX2                !
 ! A24   A(6,5,15)             110.5225         estimate D2E/DX2                !
 ! A25   A(14,5,15)            108.0171         estimate D2E/DX2                !
 ! A26   A(5,6,16)             108.174          estimate D2E/DX2                !
 ! D1    D(4,1,2,3)            -71.948          estimate D2E/DX2                !
 ! D2    D(4,1,2,9)            170.0178         estimate D2E/DX2                !
 ! D3    D(4,1,2,10)            53.6277         estimate D2E/DX2                !
 ! D4    D(7,1,2,3)            166.9021         estimate D2E/DX2                !
 ! D5    D(7,1,2,9)             48.8678         estimate D2E/DX2                !
 ! D6    D(7,1,2,10)           -67.5223         estimate D2E/DX2                !
 ! D7    D(8,1,2,3)             52.0354         estimate D2E/DX2                !
 ! D8    D(8,1,2,9)            -65.9989         estimate D2E/DX2                !
 ! D9    D(8,1,2,10)           177.611          estimate D2E/DX2                !
 ! D10   D(2,1,4,5)             68.0507         estimate D2E/DX2                !
 ! D11   D(2,1,4,12)           -55.715          estimate D2E/DX2                !
 ! D12   D(2,1,4,13)          -171.5252         estimate D2E/DX2                !
 ! D13   D(7,1,4,5)           -170.6099         estimate D2E/DX2                !
 ! D14   D(7,1,4,12)            65.6244         estimate D2E/DX2                !
 ! D15   D(7,1,4,13)           -50.1858         estimate D2E/DX2                !
 ! D16   D(8,1,4,5)            -55.1806         estimate D2E/DX2                !
 ! D17   D(8,1,4,12)          -178.9464         estimate D2E/DX2                !
 ! D18   D(8,1,4,13)            65.2435         estimate D2E/DX2                !
 ! D19   D(1,2,3,11)            65.689          estimate D2E/DX2                !
 ! D20   D(9,2,3,11)          -174.8043         estimate D2E/DX2                !
 ! D21   D(10,2,3,11)          -58.7729         estimate D2E/DX2                !
 ! D22   D(1,4,5,6)            -76.1976         estimate D2E/DX2                !
 ! D23   D(1,4,5,14)           164.3712         estimate D2E/DX2                !
 ! D24   D(1,4,5,15)            45.6919         estimate D2E/DX2                !
 ! D25   D(12,4,5,6)            48.744          estimate D2E/DX2                !
 ! D26   D(12,4,5,14)          -70.6872         estimate D2E/DX2                !
 ! D27   D(12,4,5,15)          170.6335         estimate D2E/DX2                !
 ! D28   D(13,4,5,6)           162.5783         estimate D2E/DX2                !
 ! D29   D(13,4,5,14)           43.1471         estimate D2E/DX2                !
 ! D30   D(13,4,5,15)          -75.5322         estimate D2E/DX2                !
 ! D31   D(4,5,6,16)           178.0428         estimate D2E/DX2                !
 ! D32   D(14,5,6,16)          -62.2996         estimate D2E/DX2                !
 ! D33   D(15,5,6,16)           56.2735         estimate D2E/DX2                !
 --------------------------------------------------------------------------------
 Trust Radius=3.00D-01 FncErr=1.00D-07 GrdErr=1.00D-07
 Number of steps in this run=     84 maximum allowed number of steps=    100.
 GradGradGradGradGradGradGradGradGradGradGradGradGradGradGradGradGradGrad

                          Input orientation:                          
 ---------------------------------------------------------------------
 Center     Atomic      Atomic             Coordinates (Angstroms)
 Number     Number       Type             X           Y           Z
 ---------------------------------------------------------------------
      1          6           0        1.610700    1.254500    1.956200
      2          6           0        1.128700    2.380200    1.030300
      3          8           0        1.497300    3.676700    1.461000
      4          6           0        3.120200    0.946300    1.945600
      5          6           0        4.051400    2.010400    2.521500
      6          8           0        4.194500    3.086200    1.578300
      7          1           0        1.082500    0.333200    1.671200
      8          1           0        1.291500    1.494600    2.980000
      9          1           0        0.032800    2.368800    1.005500
     10          1           0        1.475600    2.182000    0.000400
     11          1           0        2.472400    3.712800    1.402000
     12          1           0        3.454800    0.722900    0.923000
     13          1           0        3.287100    0.032100    2.531100
     14          1           0        5.039200    1.566700    2.711200
     15          1           0        3.657600    2.385700    3.477800
     16          1           0        4.763400    3.763500    1.976000
 ---------------------------------------------------------------------
                    Distance matrix (angstroms):
                    1          2          3          4          5
     1  C    0.000000
     2  C    1.535192   0.000000
     3  O    2.474901   1.415020   0.000000
     4  C    1.540678   2.619144   3.213056   0.000000
     5  C    2.616862   3.301909   3.228722   1.526795   0.000000
     6  O    3.189664   3.193410   2.763573   2.422437   1.437863
     7  H    1.099552   2.145483   3.375683   2.145555   3.514310
     8  H    1.098955   2.147585   2.666697   2.171350   2.844876
     9  H    2.152966   1.096240   2.015650   3.526944   4.309971
    10  H    2.168793   1.104680   2.089964   2.831160   3.608343
    11  H    2.663251   1.928604   0.977550   2.892865   2.577729
    12  H    2.179634   2.858128   3.584157   1.098897   2.137473
    13  H    2.152926   3.524864   4.199001   1.098375   2.120829
    14  H    3.524501   4.333499   4.308150   2.157221   1.099366
    15  H    2.790104   3.519321   3.225067   2.169864   1.100199
    16  H    4.029267   4.002363   3.307593   3.261540   1.969232
                    6          7          8          9         10
     6  O    0.000000
     7  H    4.155982   0.000000
     8  H    3.595186   1.762240   0.000000
     9  H    4.261750   2.385098   2.499440   0.000000
    10  H    3.271049   2.522729   3.063401   1.768274   0.000000
    11  H    1.841015   3.664149   2.967325   2.813396   2.302486
    12  H    2.561593   2.517832   3.083283   3.798141   2.626289
    13  H    3.325467   2.385446   2.514525   4.286968   3.782598
    14  H    2.075057   4.273008   3.758019   5.349469   4.519544
    15  H    2.094531   3.756022   2.576877   4.387679   4.110344
    16  H    0.969818   5.040723   4.267319   5.026493   4.148948
                   11         12         13         14         15
    11  H    0.000000
    12  H    3.183403   0.000000
    13  H    3.935245   1.758213   0.000000
    14  H    3.592800   2.533768   2.336084   0.000000
    15  H    2.734015   3.055002   2.563775   1.779678   0.000000
    16  H    2.362356   3.473686   4.051042   2.332920   2.318735
                   16
    16  H    0.000000
 Stoichiometry    C4H10O2
 Framework group  C1[X(C4H10O2)]
 Deg. of freedom    42
 Full point group                 C1      NOp   1
 Largest Abelian subgroup         C1      NOp   1
 Largest concise Abelian subgroup C1      NOp   1
                         Standard orientation:                         
 ---------------------------------------------------------------------
 Center     Atomic      Atomic             Coordinates (Angstroms)
 Number     Number       Type             X           Y           Z
 ---------------------------------------------------------------------
      1          6           0        0.830011    1.152271    0.212354
      2          6           0        1.646795   -0.045249   -0.293241
      3          8           0        1.303057   -1.274744    0.317060
      4          6           0       -0.644568    1.221794   -0.228637
      5          6           0       -1.588870    0.160941    0.331710
      6          8           0       -1.371828   -1.085645   -0.351200
      7          1           0        1.324059    2.070107   -0.137655
      8          1           0        0.886718    1.165023    1.309771
      9          1           0        2.703422    0.126014   -0.056702
     10          1           0        1.569165   -0.103974   -1.393623
     11          1           0        0.386969   -1.467934    0.035876
     12          1           0       -0.714763    1.190762   -1.324851
     13          1           0       -1.048228    2.196018    0.078564
     14          1           0       -2.629383    0.479027    0.174364
     15          1           0       -1.429669    0.040813    1.413682
     16          1           0       -1.958328   -1.751287    0.040574
 ---------------------------------------------------------------------
 Rotational constants (GHZ):      4.5593886      2.8857863      1.9677595
 Standard basis: VSTO-6G (5D, 7F)
 There are    34 symmetry adapted cartesian basis functions of A   symmetry.
 There are    34 symmetry adapted basis functions of A   symmetry.
    34 basis functions,   204 primitive gaussians,    34 cartesian basis functions
    19 alpha electrons       19 beta electrons
       nuclear repulsion energy       178.1708495139 Hartrees.
 Integral buffers will be    131072 words long.
 Regular integral format.
 Two-electron integral symmetry is turned off.
 Do NDO integrals.
 One-electron integrals computed using PRISM.
 NBasis=    34 RedAO= F EigKep=  0.00D+00  NBF=    34
 NBsUse=    34 1.00D-04 EigRej=  0.00D+00 NBFU=    34
 Simple Huckel Guess.
 Overlap will be assumed to be unity.
 Keep J ints in memory in canonical form, NReq=895124.
 Requested convergence on RMS density matrix=1.00D-08 within 128 cycles.
 Requested convergence on MAX density matrix=1.00D-06.
 Requested convergence on             energy=1.00D-06.
 No special actions if energy rises.
 SCF Done:  E(RPM3) = -0.168008282716     A.U. after   13 cycles
            NFock= 12  Conv=0.62D-08     -V/T= 0.9937

 **********************************************************************

            Population analysis using the SCF density.

 **********************************************************************

 Orbital symmetries:
       Occupied  (A) (A) (A) (A) (A) (A) (A) (A) (A) (A) (A) (A)
                 (A) (A) (A) (A) (A) (A) (A)
       Virtual   (A) (A) (A) (A) (A) (A) (A) (A) (A) (A) (A) (A)
                 (A) (A) (A)
 The electronic state is 1-A.
 Alpha  occ. eigenvalues --   -1.47801  -1.34769  -1.23269  -1.02473  -0.85088
 Alpha  occ. eigenvalues --   -0.74997  -0.67634  -0.63911  -0.61074  -0.57758
 Alpha  occ. eigenvalues --   -0.56737  -0.53629  -0.50734  -0.49093  -0.46992
 Alpha  occ. eigenvalues --   -0.44650  -0.42645  -0.41609  -0.39447
 Alpha virt. eigenvalues --    0.10085   0.11988   0.12557   0.13485   0.13808
 Alpha virt. eigenvalues --    0.14042   0.14592   0.15655   0.15983   0.16702
 Alpha virt. eigenvalues --    0.17253   0.18103   0.18626   0.19096   0.22580
          Condensed to atoms (all electrons):
               1          2          3          4          5          6
     1  C    4.136671   0.000000   0.000000   0.000000   0.000000   0.000000
     2  C    0.000000   3.919421   0.000000   0.000000   0.000000   0.000000
     3  O    0.000000   0.000000   6.345758   0.000000   0.000000   0.000000
     4  C    0.000000   0.000000   0.000000   4.109162   0.000000   0.000000
     5  C    0.000000   0.000000   0.000000   0.000000   3.927568   0.000000
     6  O    0.000000   0.000000   0.000000   0.000000   0.000000   6.324157
     7  H    0.000000   0.000000   0.000000   0.000000   0.000000   0.000000
     8  H    0.000000   0.000000   0.000000   0.000000   0.000000   0.000000
     9  H    0.000000   0.000000   0.000000   0.000000   0.000000   0.000000
    10  H    0.000000   0.000000   0.000000   0.000000   0.000000   0.000000
    11  H    0.000000   0.000000   0.000000   0.000000   0.000000   0.000000
    12  H    0.000000   0.000000   0.000000   0.000000   0.000000   0.000000
    13  H    0.000000   0.000000   0.000000   0.000000   0.000000   0.000000
    14  H    0.000000   0.000000   0.000000   0.000000   0.000000   0.000000
    15  H    0.000000   0.000000   0.000000   0.000000   0.000000   0.000000
    16  H    0.000000   0.000000   0.000000   0.000000   0.000000   0.000000
               7          8          9         10         11         12
     1  C    0.000000   0.000000   0.000000   0.000000   0.000000   0.000000
     2  C    0.000000   0.000000   0.000000   0.000000   0.000000   0.000000
     3  O    0.000000   0.000000   0.000000   0.000000   0.000000   0.000000
     4  C    0.000000   0.000000   0.000000   0.000000   0.000000   0.000000
     5  C    0.000000   0.000000   0.000000   0.000000   0.000000   0.000000
     6  O    0.000000   0.000000   0.000000   0.000000   0.000000   0.000000
     7  H    0.947423   0.000000   0.000000   0.000000   0.000000   0.000000
     8  H    0.000000   0.942351   0.000000   0.000000   0.000000   0.000000
     9  H    0.000000   0.000000   0.955346   0.000000   0.000000   0.000000
    10  H    0.000000   0.000000   0.000000   0.976566   0.000000   0.000000
    11  H    0.000000   0.000000   0.000000   0.000000   0.785281   0.000000
    12  H    0.000000   0.000000   0.000000   0.000000   0.000000   0.937870
    13  H    0.000000   0.000000   0.000000   0.000000   0.000000   0.000000
    14  H    0.000000   0.000000   0.000000   0.000000   0.000000   0.000000
    15  H    0.000000   0.000000   0.000000   0.000000   0.000000   0.000000
    16  H    0.000000   0.000000   0.000000   0.000000   0.000000   0.000000
              13         14         15         16
     1  C    0.000000   0.000000   0.000000   0.000000
     2  C    0.000000   0.000000   0.000000   0.000000
     3  O    0.000000   0.000000   0.000000   0.000000
     4  C    0.000000   0.000000   0.000000   0.000000
     5  C    0.000000   0.000000   0.000000   0.000000
     6  O    0.000000   0.000000   0.000000   0.000000
     7  H    0.000000   0.000000   0.000000   0.000000
     8  H    0.000000   0.000000   0.000000   0.000000
     9  H    0.000000   0.000000   0.000000   0.000000
    10  H    0.000000   0.000000   0.000000   0.000000
    11  H    0.000000   0.000000   0.000000   0.000000
    12  H    0.000000   0.000000   0.000000   0.000000
    13  H    0.947785   0.000000   0.000000   0.000000
    14  H    0.000000   0.973069   0.000000   0.000000
    15  H    0.000000   0.000000   0.966639   0.000000
    16  H    0.000000   0.000000   0.000000   0.804933
 Mulliken charges:
               1
     1  C   -0.136671
     2  C    0.080579
     3  O   -0.345758
     4  C   -0.109162
     5  C    0.072432
     6  O   -0.324157
     7  H    0.052577
     8  H    0.057649
     9  H    0.044654
    10  H    0.023434
    11  H    0.214719
    12  H    0.062130
    13  H    0.052215
    14  H    0.026931
    15  H    0.033361
    16  H    0.195067
 Sum of Mulliken charges =  -0.00000
 Mulliken charges with hydrogens summed into heavy atoms:
               1
     1  C   -0.026445
     2  C    0.148667
     3  O   -0.131039
     4  C    0.005183
     5  C    0.132724
     6  O   -0.129091
 Charge=             -0.0000 electrons
 Dipole moment (field-independent basis, Debye):
    X=             -2.2617    Y=              1.1999    Z=              0.2281  Tot=              2.5705
 N-N= 1.781708495139D+02 E-N=-3.031322834673D+02  KE=-2.665920920123D+01
 Calling FoFJK, ICntrl=      2127 FMM=F ISym2X=0 I1Cent= 0 IOpClX= 0 NMat=1 NMatS=1 NMatT=0.
 ***** Axes restored to original set *****
 -------------------------------------------------------------------
 Center     Atomic                   Forces (Hartrees/Bohr)
 Number     Number              X              Y              Z
 -------------------------------------------------------------------
      1        6           0.014467935    0.006805303    0.000997193
      2        6           0.012530550    0.001096398    0.003887796
      3        8           0.012479907   -0.011669659   -0.006197715
      4        6          -0.009070082    0.010823564   -0.004664368
      5        6          -0.004067364    0.013054114   -0.009947257
      6        8           0.005599020    0.002660896    0.015633712
      7        1          -0.002493639   -0.004142942   -0.001025962
      8        1          -0.000351326   -0.000117072    0.006245277
      9        1          -0.005082865    0.005015042    0.000939913
     10        1           0.001799319    0.002185647   -0.002538599
     11        1          -0.016331823   -0.002770152    0.001862947
     12        1          -0.000948709   -0.002174455   -0.006743640
     13        1          -0.000072222   -0.005581701    0.002919040
     14        1           0.004849249   -0.000561945    0.000744092
     15        1          -0.000974550    0.003313019    0.003417971
     16        1          -0.012333400   -0.017936059   -0.005530399
 -------------------------------------------------------------------
 Cartesian Forces:  Max     0.017936059 RMS     0.007361460

 GradGradGradGradGradGradGradGradGradGradGradGradGradGradGradGradGradGrad
 Berny optimization.
 FormGI is forming the generalized inverse of G from B-inverse, IUseBI=4.
 Internal  Forces:  Max     0.022028869 RMS     0.006146093
 Search for a local minimum.
 Step number   1 out of a maximum of   84
 All quantities printed in internal units (Hartrees-Bohrs-Radians)
 Mixed Optimization -- RFO/linear search
 Second derivative matrix not updated -- first step.
 ITU=  0
     Eigenvalues ---    0.00230   0.00300   0.00412   0.01191   0.01493
     Eigenvalues ---    0.03094   0.03096   0.04594   0.04691   0.04711
     Eigenvalues ---    0.05131   0.05871   0.05894   0.08956   0.09056
     Eigenvalues ---    0.11250   0.11807   0.12656   0.12716   0.13729
     Eigenvalues ---    0.14096   0.16000   0.16000   0.21997   0.22001
     Eigenvalues ---    0.22010   0.22052   0.28459   0.28949   0.29721
     Eigenvalues ---    0.33170   0.33660   0.33732   0.33752   0.33798
     Eigenvalues ---    0.33804   0.33862   0.34101   0.39880   0.43219
     Eigenvalues ---    0.51864   0.53414
 RFO step:  Lambda=-1.00277652D-02 EMin= 2.30000000D-03
 Linear search not attempted -- first point.
 Iteration  1 RMS(Cart)=  0.13413626 RMS(Int)=  0.00481799
 Iteration  2 RMS(Cart)=  0.00644787 RMS(Int)=  0.00034215
 Iteration  3 RMS(Cart)=  0.00000864 RMS(Int)=  0.00034209
 Iteration  4 RMS(Cart)=  0.00000001 RMS(Int)=  0.00034209
 Variable       Old X    -DE/DX   Delta X   Delta X   Delta X     New X
                                 (Linear)    (Quad)   (Total)
    R1        2.90109  -0.00496   0.00000  -0.01657  -0.01657   2.88452
    R2        2.91146  -0.01736   0.00000  -0.05894  -0.05894   2.85252
    R3        2.07785   0.00494   0.00000   0.01421   0.01421   2.09206
    R4        2.07672   0.00589   0.00000   0.01694   0.01694   2.09366
    R5        2.67400  -0.01555   0.00000  -0.03517  -0.03517   2.63883
    R6        2.07159   0.00501   0.00000   0.01427   0.01427   2.08586
    R7        2.08754   0.00254   0.00000   0.00743   0.00743   2.09497
    R8        1.84730  -0.01651   0.00000  -0.03122  -0.03122   1.81608
    R9        2.88522  -0.00223   0.00000  -0.00725  -0.00725   2.87798
   R10        2.07662   0.00643   0.00000   0.01847   0.01847   2.09508
   R11        2.07563   0.00619   0.00000   0.01776   0.01776   2.09338
   R12        2.71717  -0.01873   0.00000  -0.04581  -0.04581   2.67136
   R13        2.07750   0.00471   0.00000   0.01356   0.01356   2.09106
   R14        2.07908   0.00445   0.00000   0.01284   0.01284   2.09191
   R15        1.83269  -0.02203   0.00000  -0.04048  -0.04048   1.79221
    A1        2.03773  -0.01545   0.00000  -0.07166  -0.07164   1.96608
    A2        1.88309   0.00370   0.00000   0.01353   0.01343   1.89652
    A3        1.88649   0.00705   0.00000   0.03515   0.03448   1.92097
    A4        1.87681   0.00543   0.00000   0.02313   0.02311   1.89992
    A5        1.91208   0.00247   0.00000  -0.00057  -0.00026   1.91182
    A6        1.85981  -0.00237   0.00000   0.00637   0.00583   1.86563
    A7        1.98940  -0.00493   0.00000  -0.02723  -0.02717   1.96223
    A8        1.89641   0.00532   0.00000   0.04110   0.04071   1.93711
    A9        1.90936   0.00242   0.00000   0.01364   0.01287   1.92223
   A10        1.85128  -0.00166   0.00000  -0.01930  -0.01889   1.83240
   A11        1.94589  -0.00051   0.00000  -0.02138  -0.02146   1.92443
   A12        1.86604  -0.00031   0.00000   0.01707   0.01610   1.88214
   A13        1.84970  -0.00323   0.00000  -0.01900  -0.01900   1.83070
   A14        2.04378  -0.01419   0.00000  -0.06588  -0.06587   1.97792
   A15        1.92346   0.00127   0.00000  -0.01043  -0.01002   1.91344
   A16        1.88779   0.00422   0.00000   0.01595   0.01628   1.90406
   A17        1.88282   0.00741   0.00000   0.03858   0.03757   1.92039
   A18        1.86120   0.00419   0.00000   0.02083   0.02056   1.88176
   A19        1.85519  -0.00197   0.00000   0.00785   0.00721   1.86240
   A20        1.91211  -0.00514   0.00000  -0.02495  -0.02495   1.88715
   A21        1.90902   0.00254   0.00000   0.02098   0.02090   1.92992
   A22        1.92548   0.00263   0.00000   0.01212   0.01173   1.93721
   A23        1.90259   0.00151   0.00000   0.00828   0.00848   1.91107
   A24        1.92898  -0.00049   0.00000  -0.01898  -0.01902   1.90996
   A25        1.88525  -0.00093   0.00000   0.00348   0.00322   1.88847
   A26        1.88799  -0.00800   0.00000  -0.04706  -0.04706   1.84093
    D1       -1.25573   0.00141   0.00000   0.05489   0.05503  -1.20070
    D2        2.96737   0.00291   0.00000   0.06793   0.06857   3.03594
    D3        0.93598  -0.00104   0.00000   0.01696   0.01692   0.95290
    D4        2.91299   0.00192   0.00000   0.06283   0.06283   2.97582
    D5        0.85290   0.00342   0.00000   0.07586   0.07637   0.92927
    D6       -1.17849  -0.00053   0.00000   0.02490   0.02472  -1.15376
    D7        0.90819  -0.00077   0.00000   0.03067   0.03020   0.93839
    D8       -1.15190   0.00073   0.00000   0.04370   0.04374  -1.10816
    D9        3.09990  -0.00322   0.00000  -0.00726  -0.00790   3.09199
   D10        1.18771   0.00120   0.00000   0.03701   0.03762   1.22533
   D11       -0.97241   0.00107   0.00000   0.04484   0.04476  -0.92765
   D12       -2.99368   0.00035   0.00000   0.03205   0.03240  -2.96128
   D13       -2.97770  -0.00016   0.00000   0.02431   0.02456  -2.95314
   D14        1.14536  -0.00029   0.00000   0.03214   0.03171   1.17707
   D15       -0.87591  -0.00101   0.00000   0.01935   0.01934  -0.85656
   D16       -0.96308   0.00127   0.00000   0.04411   0.04419  -0.91889
   D17       -3.12320   0.00115   0.00000   0.05193   0.05134  -3.07187
   D18        1.13871   0.00043   0.00000   0.03915   0.03897   1.17769
   D19        1.14649  -0.00212   0.00000  -0.05070  -0.05058   1.09591
   D20       -3.05091   0.00048   0.00000  -0.02861  -0.02848  -3.07939
   D21       -1.02578  -0.00110   0.00000  -0.03042  -0.03068  -1.05646
   D22       -1.32990   0.00210   0.00000   0.06140   0.06157  -1.26833
   D23        2.86882   0.00182   0.00000   0.05364   0.05397   2.92279
   D24        0.79747  -0.00019   0.00000   0.02917   0.02927   0.82674
   D25        0.85074  -0.00054   0.00000   0.03060   0.03008   0.88082
   D26       -1.23372  -0.00081   0.00000   0.02284   0.02247  -1.21125
   D27        2.97812  -0.00282   0.00000  -0.00163  -0.00223   2.97589
   D28        2.83753   0.00270   0.00000   0.06784   0.06811   2.90563
   D29        0.75306   0.00242   0.00000   0.06008   0.06051   0.81356
   D30       -1.31829   0.00041   0.00000   0.03561   0.03581  -1.28248
   D31        3.10743  -0.00030   0.00000  -0.00302  -0.00280   3.10463
   D32       -1.08733   0.00062   0.00000   0.01262   0.01266  -1.07467
   D33        0.98216   0.00012   0.00000   0.01064   0.01039   0.99255
         Item               Value     Threshold  Converged?
 Maximum Force            0.022029     0.000450     NO 
 RMS     Force            0.006146     0.000300     NO 
 Maximum Displacement     0.501716     0.001800     NO 
 RMS     Displacement     0.132904     0.001200     NO 
 Predicted change in Energy=-5.483951D-03
 GradGradGradGradGradGradGradGradGradGradGradGradGradGradGradGradGradGrad

                          Input orientation:                          
 ---------------------------------------------------------------------
 Center     Atomic      Atomic             Coordinates (Angstroms)
 Number     Number       Type             X           Y           Z
 ---------------------------------------------------------------------
      1          6           0        1.625313    1.250130    1.990996
      2          6           0        1.214320    2.372601    1.041729
      3          8           0        1.727825    3.612217    1.428537
      4          6           0        3.100145    0.937149    1.917037
      5          6           0        3.979457    2.033638    2.503493
      6          8           0        3.969450    3.129851    1.610997
      7          1           0        1.052692    0.338979    1.731165
      8          1           0        1.354410    1.514630    3.032214
      9          1           0        0.118631    2.506023    1.038153
     10          1           0        1.530533    2.132079    0.006750
     11          1           0        2.682117    3.511515    1.375985
     12          1           0        3.387302    0.742642    0.864013
     13          1           0        3.301277    0.004233    2.479505
     14          1           0        5.017288    1.672282    2.632950
     15          1           0        3.601037    2.359575    3.491418
     16          1           0        4.497903    3.799055    2.026159
 ---------------------------------------------------------------------
                    Distance matrix (angstroms):
                    1          2          3          4          5
     1  C    0.000000
     2  C    1.526421   0.000000
     3  O    2.430292   1.396408   0.000000
     4  C    1.509489   2.526464   3.045961   0.000000
     5  C    2.533481   3.146049   2.952504   1.522960   0.000000
     6  O    3.028651   2.913458   2.300185   2.378507   1.413624
     7  H    1.107070   2.153384   3.355812   2.141127   3.469051
     8  H    1.107919   2.172043   2.666662   2.150511   2.727597
     9  H    2.180658   1.103789   1.991375   3.481843   4.156482
    10  H    2.173487   1.108612   2.061846   2.746040   3.498662
    11  H    2.570784   1.887665   0.961028   2.663614   2.266822
    12  H    2.152264   2.722168   3.362590   1.108671   2.169150
    13  H    2.144704   3.468682   4.074043   1.107771   2.139857
    14  H    3.477903   4.181506   4.004313   2.174486   1.106540
    15  H    2.717649   3.420170   3.055079   2.180106   1.106993
    16  H    3.840576   3.712922   2.839963   3.186870   1.900876
                    6          7          8          9         10
     6  O    0.000000
     7  H    4.038674   0.000000
     8  H    3.386330   1.779303   0.000000
     9  H    3.942857   2.459434   2.546819   0.000000
    10  H    3.085040   2.533209   3.092845   1.788041   0.000000
    11  H    1.363130   3.584155   2.914352   2.774276   2.259158
    12  H    2.568200   2.522955   3.070784   3.718070   2.472454
    13  H    3.312137   2.393366   2.525288   4.297171   3.711843
    14  H    2.065638   4.278895   3.687946   5.218750   4.389282
    15  H    2.065197   3.698021   2.443795   4.262289   4.059759
    16  H    0.948396   4.891690   4.014012   4.671843   3.957538
                   11         12         13         14         15
    11  H    0.000000
    12  H    2.902767   0.000000
    13  H    3.728557   1.778331   0.000000
    14  H    3.227346   2.578803   2.398047   0.000000
    15  H    2.578068   3.092477   2.580980   1.793072   0.000000
    16  H    1.949996   3.453358   4.004761   2.271810   2.241307
                   16
    16  H    0.000000
 Stoichiometry    C4H10O2
 Framework group  C1[X(C4H10O2)]
 Deg. of freedom    42
 Full point group                 C1      NOp   1
 Largest Abelian subgroup         C1      NOp   1
 Largest concise Abelian subgroup C1      NOp   1
                         Standard orientation:                         
 ---------------------------------------------------------------------
 Center     Atomic      Atomic             Coordinates (Angstroms)
 Number     Number       Type             X           Y           Z
 ---------------------------------------------------------------------
      1          6           0        0.834277    1.134660    0.265371
      2          6           0        1.570280   -0.100643   -0.246770
      3          8           0        1.038358   -1.287046    0.262604
      4          6           0       -0.569213    1.242677   -0.279704
      5          6           0       -1.517096    0.191647    0.282666
      6          8           0       -1.181873   -1.055537   -0.292218
      7          1           0        1.404280    2.035648   -0.032828
      8          1           0        0.802048    1.125988    1.372787
      9          1           0        2.624435   -0.096768    0.080479
     10          1           0        1.558833   -0.119507   -1.355163
     11          1           0        0.137496   -1.316961   -0.070756
     12          1           0       -0.544973    1.178975   -1.386278
     13          1           0       -0.980356    2.239812   -0.027039
     14          1           0       -2.566224    0.442112    0.035624
     15          1           0       -1.427531    0.125495    1.384044
     16          1           0       -1.769375   -1.684176    0.106668
 ---------------------------------------------------------------------
 Rotational constants (GHZ):      4.6411009      3.4177318      2.2003745
 Standard basis: VSTO-6G (5D, 7F)
 There are    34 symmetry adapted cartesian basis functions of A   symmetry.
 There are    34 symmetry adapted basis functions of A   symmetry.
    34 basis functions,   204 primitive gaussians,    34 cartesian basis functions
    19 alpha electrons       19 beta electrons
       nuclear repulsion energy       182.5632330443 Hartrees.
 Integral buffers will be    131072 words long.
 Regular integral format.
 Two-electron integral symmetry is turned off.
 Do NDO integrals.
 One-electron integrals computed using PRISM.
 NBasis=    34 RedAO= F EigKep=  0.00D+00  NBF=    34
 NBsUse=    34 1.00D-04 EigRej=  0.00D+00 NBFU=    34
 Initial guess from the checkpoint file:  "1-4-butanediol-opt.chk"
 B after Tr=     0.000000   -0.000000    0.000000
         Rot=    0.999789    0.001260    0.013060    0.015816 Ang=   2.36 deg.
 Overlap will be assumed to be unity.
 Keep J ints in memory in canonical form, NReq=895124.
 Requested convergence on RMS density matrix=1.00D-08 within 128 cycles.
 Requested convergence on MAX density matrix=1.00D-06.
 Requested convergence on             energy=1.00D-06.
 No special actions if energy rises.
 SCF Done:  E(RPM3) = -0.137850970564     A.U. after   13 cycles
            NFock= 12  Conv=0.16D-08     -V/T= 0.9949
 Calling FoFJK, ICntrl=      2127 FMM=F ISym2X=0 I1Cent= 0 IOpClX= 0 NMat=1 NMatS=1 NMatT=0.
 ***** Axes restored to original set *****
 -------------------------------------------------------------------
 Center     Atomic                   Forces (Hartrees/Bohr)
 Number     Number              X              Y              Z
 -------------------------------------------------------------------
      1        6          -0.005241414   -0.002045909    0.002082158
      2        6          -0.005236308    0.001777701   -0.002080312
      3        8          -0.022902902    0.002382453   -0.003695948
      4        6           0.005080890   -0.004542159   -0.000532558
      5        6           0.002881477   -0.008185097    0.005778557
      6        8           0.060012171   -0.011226170    0.009513918
      7        1          -0.000871365    0.000194033    0.001198305
      8        1          -0.001641390   -0.000936352    0.000118308
      9        1           0.000241825    0.000479641    0.000193121
     10        1          -0.001213892    0.000032532   -0.000788113
     11        1          -0.034747551    0.020501083   -0.010233778
     12        1           0.000946725   -0.001446614    0.000018920
     13        1           0.000766626   -0.000413455   -0.000980276
     14        1           0.000533043    0.000677681   -0.000085551
     15        1           0.000845452   -0.000404277    0.001492868
     16        1           0.000546614    0.003154909   -0.001999619
 -------------------------------------------------------------------
 Cartesian Forces:  Max     0.060012171 RMS     0.011503329

 GradGradGradGradGradGradGradGradGradGradGradGradGradGradGradGradGradGrad
 Berny optimization.
 Using GEDIIS/GDIIS optimizer.
 FormGI is forming the generalized inverse of G from B-inverse, IUseBI=4.
 Internal  Forces:  Max     0.189773533 RMS     0.042569691
 Search for a local minimum.
 Step number   2 out of a maximum of   84
 All quantities printed in internal units (Hartrees-Bohrs-Radians)
 Mixed Optimization -- RFO/linear search
 Update second derivatives using D2CorX and points    2    1
 DE=  3.02D-02 DEPred=-5.48D-03 R=-5.50D+00
 Trust test=-5.50D+00 RLast= 3.00D-01 DXMaxT set to 1.50D-01
 ITU= -1  0
 Use linear search instead of GDIIS.
 Energy rises -- skip Quadratic/GDIIS search.
 Quartic linear search produced a step of -0.90436.
 Iteration  1 RMS(Cart)=  0.11594625 RMS(Int)=  0.00372600
 Iteration  2 RMS(Cart)=  0.00662601 RMS(Int)=  0.00003155
 Iteration  3 RMS(Cart)=  0.00002173 RMS(Int)=  0.00002956
 Iteration  4 RMS(Cart)=  0.00000000 RMS(Int)=  0.00002956
 Variable       Old X    -DE/DX   Delta X   Delta X   Delta X     New X
                                 (Linear)    (Quad)   (Total)
    R1        2.88452   0.04603   0.01499   0.00000   0.01499   2.89951
    R2        2.85252   0.07396   0.05330   0.00000   0.05330   2.90582
    R3        2.09206   0.00001  -0.01285   0.00000  -0.01285   2.07921
    R4        2.09366   0.00029  -0.01532   0.00000  -0.01532   2.07834
    R5        2.63883  -0.00474   0.03181   0.00000   0.03181   2.67064
    R6        2.08586  -0.00018  -0.01290   0.00000  -0.01290   2.07296
    R7        2.09497   0.00038  -0.00672   0.00000  -0.00672   2.08825
    R8        1.81608  -0.03609   0.02824   0.00000   0.02824   1.84432
    R9        2.87798   0.03158   0.00655   0.00000   0.00655   2.88453
   R10        2.09508   0.00048  -0.01670   0.00000  -0.01670   2.07838
   R11        2.09338  -0.00001  -0.01606   0.00000  -0.01606   2.07733
   R12        2.67136  -0.01143   0.04142   0.00000   0.04142   2.71279
   R13        2.09106   0.00027  -0.01226   0.00000  -0.01226   2.07880
   R14        2.09191   0.00092  -0.01161   0.00000  -0.01161   2.08030
   R15        1.79221   0.00166   0.03661   0.00000   0.03661   1.82882
    A1        1.96608   0.18977   0.06479   0.00000   0.06479   2.03088
    A2        1.89652  -0.06440  -0.01215   0.00000  -0.01214   1.88438
    A3        1.92097  -0.04904  -0.03118   0.00000  -0.03113   1.88984
    A4        1.89992  -0.06944  -0.02090   0.00000  -0.02090   1.87902
    A5        1.91182  -0.04357   0.00024   0.00000   0.00021   1.91203
    A6        1.86563   0.02822  -0.00527   0.00000  -0.00522   1.86041
    A7        1.96223   0.09842   0.02457   0.00000   0.02457   1.98680
    A8        1.93711  -0.03148  -0.03681   0.00000  -0.03678   1.90033
    A9        1.92223  -0.01419  -0.01164   0.00000  -0.01157   1.91066
   A10        1.83240  -0.04713   0.01708   0.00000   0.01704   1.84944
   A11        1.92443  -0.01896   0.01941   0.00000   0.01942   1.94385
   A12        1.88214   0.00882  -0.01456   0.00000  -0.01448   1.86766
   A13        1.83070   0.02229   0.01718   0.00000   0.01718   1.84788
   A14        1.97792   0.16043   0.05957   0.00000   0.05957   2.03749
   A15        1.91344  -0.03354   0.00906   0.00000   0.00903   1.92246
   A16        1.90406  -0.06133  -0.01472   0.00000  -0.01475   1.88932
   A17        1.92039  -0.04103  -0.03398   0.00000  -0.03390   1.88650
   A18        1.88176  -0.05628  -0.01859   0.00000  -0.01857   1.86319
   A19        1.86240   0.02362  -0.00652   0.00000  -0.00646   1.85594
   A20        1.88715   0.06633   0.02257   0.00000   0.02257   1.90972
   A21        1.92992  -0.01867  -0.01890   0.00000  -0.01890   1.91102
   A22        1.93721  -0.01117  -0.01061   0.00000  -0.01057   1.92664
   A23        1.91107  -0.03923  -0.00767   0.00000  -0.00769   1.90338
   A24        1.90996  -0.00403   0.01720   0.00000   0.01720   1.92717
   A25        1.88847   0.00573  -0.00291   0.00000  -0.00289   1.88558
   A26        1.84093   0.00607   0.04256   0.00000   0.04256   1.88349
    D1       -1.20070  -0.04602  -0.04977   0.00000  -0.04978  -1.25048
    D2        3.03594  -0.02923  -0.06201   0.00000  -0.06207   2.97387
    D3        0.95290  -0.01102  -0.01531   0.00000  -0.01530   0.93760
    D4        2.97582  -0.03602  -0.05682   0.00000  -0.05682   2.91900
    D5        0.92927  -0.01923  -0.06906   0.00000  -0.06911   0.86016
    D6       -1.15376  -0.00102  -0.02236   0.00000  -0.02234  -1.17611
    D7        0.93839  -0.00513  -0.02732   0.00000  -0.02727   0.91112
    D8       -1.10816   0.01165  -0.03956   0.00000  -0.03956  -1.14772
    D9        3.09199   0.02986   0.00715   0.00000   0.00721   3.09920
   D10        1.22533   0.03727  -0.03402   0.00000  -0.03407   1.19125
   D11       -0.92765   0.00176  -0.04048   0.00000  -0.04048  -0.96812
   D12       -2.96128   0.02734  -0.02930   0.00000  -0.02933  -2.99061
   D13       -2.95314   0.03055  -0.02221   0.00000  -0.02223  -2.97538
   D14        1.17707  -0.00496  -0.02868   0.00000  -0.02864   1.14843
   D15       -0.85656   0.02062  -0.01749   0.00000  -0.01749  -0.87406
   D16       -0.91889   0.00064  -0.03996   0.00000  -0.03997  -0.95886
   D17       -3.07187  -0.03487  -0.04643   0.00000  -0.04638  -3.11824
   D18        1.17769  -0.00929  -0.03525   0.00000  -0.03523   1.14246
   D19        1.09591   0.02692   0.04574   0.00000   0.04573   1.14164
   D20       -3.07939   0.01331   0.02575   0.00000   0.02574  -3.05365
   D21       -1.05646  -0.01091   0.02774   0.00000   0.02777  -1.02869
   D22       -1.26833  -0.04750  -0.05568   0.00000  -0.05570  -1.32403
   D23        2.92279  -0.02967  -0.04881   0.00000  -0.04884   2.87395
   D24        0.82674  -0.01719  -0.02647   0.00000  -0.02648   0.80026
   D25        0.88082  -0.00710  -0.02720   0.00000  -0.02715   0.85367
   D26       -1.21125   0.01072  -0.02032   0.00000  -0.02029  -1.23154
   D27        2.97589   0.02320   0.00201   0.00000   0.00207   2.97796
   D28        2.90563  -0.03258  -0.06159   0.00000  -0.06162   2.84402
   D29        0.81356  -0.01476  -0.05472   0.00000  -0.05476   0.75881
   D30       -1.28248  -0.00228  -0.03238   0.00000  -0.03240  -1.31488
   D31        3.10463   0.01015   0.00253   0.00000   0.00251   3.10715
   D32       -1.07467   0.00446  -0.01145   0.00000  -0.01145  -1.08613
   D33        0.99255  -0.01424  -0.00939   0.00000  -0.00937   0.98317
         Item               Value     Threshold  Converged?
 Maximum Force            0.189774     0.000450     NO 
 RMS     Force            0.042570     0.000300     NO 
 Maximum Displacement     0.452863     0.001800     NO 
 RMS     Displacement     0.120102     0.001200     NO 
 Predicted change in Energy=-5.704353D-03
 GradGradGradGradGradGradGradGradGradGradGradGradGradGradGradGradGradGrad

                          Input orientation:                          
 ---------------------------------------------------------------------
 Center     Atomic      Atomic             Coordinates (Angstroms)
 Number     Number       Type             X           Y           Z
 ---------------------------------------------------------------------
      1          6           0        1.611956    1.253725    1.959500
      2          6           0        1.136967    2.379449    1.031398
      3          8           0        1.519764    3.671196    1.458134
      4          6           0        3.118268    0.945084    1.942992
      5          6           0        4.044416    2.012574    2.519793
      6          8           0        4.172800    3.090950    1.580958
      7          1           0        1.079526    0.333321    1.676710
      8          1           0        1.297161    1.496205    2.985022
      9          1           0        0.040243    2.381841    1.008725
     10          1           0        1.481157    2.177232    0.000967
     11          1           0        2.493714    3.693988    1.399651
     12          1           0        3.448558    0.724403    0.917400
     13          1           0        3.288403    0.029113    2.526476
     14          1           0        5.037426    1.576496    2.703860
     15          1           0        3.651792    2.383249    3.479123
     16          1           0        4.737548    3.767774    1.980391
 ---------------------------------------------------------------------
                    Distance matrix (angstroms):
                    1          2          3          4          5
     1  C    0.000000
     2  C    1.534353   0.000000
     3  O    2.470634   1.413240   0.000000
     4  C    1.537696   2.610356   3.197184   0.000000
     5  C    2.608954   3.286818   3.201877   1.526428   0.000000
     6  O    3.174367   3.166153   2.718523   2.418232   1.435545
     7  H    1.100271   2.146245   3.373869   2.145141   3.510164
     8  H    1.099813   2.149983   2.666744   2.169330   2.833811
     9  H    2.155667   1.096962   2.013303   3.522977   4.295706
    10  H    2.169292   1.105056   2.087284   2.823080   3.597484
    11  H    2.654394   1.924678   0.975970   2.870846   2.546870
    12  H    2.176984   2.845280   3.563176   1.099832   2.140583
    13  H    2.152117   3.519660   4.187386   1.099274   2.122667
    14  H    3.520241   4.319194   4.279433   2.158881   1.100052
    15  H    2.783165   3.509375   3.207608   2.170867   1.100849
    16  H    4.011260   3.973942   3.261321   3.254388   1.962681
                    6          7          8          9         10
     6  O    0.000000
     7  H    4.145121   0.000000
     8  H    3.575459   1.763900   0.000000
     9  H    4.231822   2.392227   2.503986   0.000000
    10  H    3.252106   2.523773   3.066307   1.770220   0.000000
    11  H    1.793281   3.656607   2.962328   2.809640   2.298290
    12  H    2.562300   2.518295   3.082085   3.791049   2.611747
    13  H    3.324305   2.386164   2.515485   4.288291   3.776075
    14  H    2.074141   4.273815   3.751677   5.337968   4.507057
    15  H    2.091727   3.750660   2.564229   4.375633   4.105079
    16  H    0.967770   5.026810   4.243297   4.992958   4.129410
                   11         12         13         14         15
    11  H    0.000000
    12  H    3.156379   0.000000
    13  H    3.915683   1.760172   0.000000
    14  H    3.557416   2.538111   2.341994   0.000000
    15  H    2.717239   3.058677   2.565452   1.780973   0.000000
    16  H    2.318943   3.471823   4.046704   2.327023   2.311272
                   16
    16  H    0.000000
 Stoichiometry    C4H10O2
 Framework group  C1[X(C4H10O2)]
 Deg. of freedom    42
 Full point group                 C1      NOp   1
 Largest Abelian subgroup         C1      NOp   1
 Largest concise Abelian subgroup C1      NOp   1
                         Standard orientation:                         
 ---------------------------------------------------------------------
 Center     Atomic      Atomic             Coordinates (Angstroms)
 Number     Number       Type             X           Y           Z
 ---------------------------------------------------------------------
      1          6           0        0.829918    1.151569    0.217278
      2          6           0        1.639520   -0.049517   -0.288862
      3          8           0        1.278020   -1.276218    0.312612
      4          6           0       -0.638443    1.223971   -0.233477
      5          6           0       -1.582054    0.163151    0.327098
      6          8           0       -1.352417   -1.083705   -0.346256
      7          1           0        1.330728    2.068313   -0.128215
      8          1           0        0.878593    1.162075    1.315963
      9          1           0        2.697253    0.106630   -0.043618
     10          1           0        1.567731   -0.104384   -1.390218
     11          1           0        0.362150   -1.454294    0.026276
     12          1           0       -0.699925    1.190012   -1.331064
     13          1           0       -1.043629    2.200093    0.068868
     14          1           0       -2.624096    0.474256    0.161339
     15          1           0       -1.429044    0.048065    1.411170
     16          1           0       -1.938230   -1.746425    0.046432
 ---------------------------------------------------------------------
 Rotational constants (GHZ):      4.5643758      2.9330384      1.9888963
 Standard basis: VSTO-6G (5D, 7F)
 There are    34 symmetry adapted cartesian basis functions of A   symmetry.
 There are    34 symmetry adapted basis functions of A   symmetry.
    34 basis functions,   204 primitive gaussians,    34 cartesian basis functions
    19 alpha electrons       19 beta electrons
       nuclear repulsion energy       178.5582652335 Hartrees.
 Integral buffers will be    131072 words long.
 Regular integral format.
 Two-electron integral symmetry is turned off.
 Do NDO integrals.
 One-electron integrals computed using PRISM.
 NBasis=    34 RedAO= F EigKep=  0.00D+00  NBF=    34
 NBsUse=    34 1.00D-04 EigRej=  0.00D+00 NBFU=    34
 Lowest energy guess from the checkpoint file:  "1-4-butanediol-opt.chk"
 B after Tr=     0.000000   -0.000000    0.000000
         Rot=    0.999999    0.000119    0.001217    0.001171 Ang=   0.19 deg.
 B after Tr=     0.000000    0.000000    0.000000
         Rot=    0.999822   -0.001138   -0.011854   -0.014647 Ang=  -2.16 deg.
 Overlap will be assumed to be unity.
 Keep J ints in memory in canonical form, NReq=895124.
 Requested convergence on RMS density matrix=1.00D-08 within 128 cycles.
 Requested convergence on MAX density matrix=1.00D-06.
 Requested convergence on             energy=1.00D-06.
 No special actions if energy rises.
 SCF Done:  E(RPM3) = -0.168715086255     A.U. after   10 cycles
            NFock=  9  Conv=0.29D-08     -V/T= 0.9937
 Calling FoFJK, ICntrl=      2127 FMM=F ISym2X=0 I1Cent= 0 IOpClX= 0 NMat=1 NMatS=1 NMatT=0.
 ***** Axes restored to original set *****
 -------------------------------------------------------------------
 Center     Atomic                   Forces (Hartrees/Bohr)
 Number     Number              X              Y              Z
 -------------------------------------------------------------------
      1        6           0.012859904    0.005999012    0.001007683
      2        6           0.011077735    0.000946145    0.003354282
      3        8           0.009752524   -0.010621373   -0.005878906
      4        6          -0.007954089    0.009537306   -0.004258659
      5        6          -0.003733145    0.011508649   -0.008716606
      6        8           0.009633227    0.001264461    0.014722200
      7        1          -0.002358811   -0.003712579   -0.000797704
      8        1          -0.000439068   -0.000188017    0.005637932
      9        1          -0.004499110    0.004674344    0.000875303
     10        1           0.001531621    0.001952902   -0.002348937
     11        1          -0.017787806   -0.000579775    0.001286371
     12        1          -0.000807921   -0.002072080   -0.006069699
     13        1           0.000026747   -0.005087382    0.002521265
     14        1           0.004431487   -0.000424809    0.000652630
     15        1          -0.000826666    0.002926848    0.003227855
     16        1          -0.010906628   -0.016123653   -0.005215011
 -------------------------------------------------------------------
 Cartesian Forces:  Max     0.017787806 RMS     0.006816940

 GradGradGradGradGradGradGradGradGradGradGradGradGradGradGradGradGradGrad
 Berny optimization.
 Using GEDIIS/GDIIS optimizer.
 FormGI is forming the generalized inverse of G from B-inverse, IUseBI=4.
 Internal  Forces:  Max     0.019793371 RMS     0.004746628
 Search for a local minimum.
 Step number   3 out of a maximum of   84
 All quantities printed in internal units (Hartrees-Bohrs-Radians)
 Mixed Optimization -- RFO/linear search
 Update second derivatives using D2CorX and points    2    1    3
 ITU=  0 -1  0
 Use linear search instead of GDIIS.
     Eigenvalues ---    0.00220   0.00326   0.00484   0.01190   0.01520
     Eigenvalues ---    0.03057   0.03135   0.04587   0.04710   0.04910
     Eigenvalues ---    0.05268   0.05874   0.06161   0.08761   0.08917
     Eigenvalues ---    0.10834   0.11438   0.12583   0.12661   0.13728
     Eigenvalues ---    0.13996   0.15212   0.16075   0.21603   0.21995
     Eigenvalues ---    0.22006   0.24668   0.28853   0.29654   0.30827
     Eigenvalues ---    0.33191   0.33673   0.33740   0.33766   0.33801
     Eigenvalues ---    0.33845   0.34065   0.36674   0.42193   0.48530
     Eigenvalues ---    0.52481   1.89984
 RFO step:  Lambda=-1.26586790D-02 EMin= 2.19703647D-03
 Quartic linear search produced a step of  0.60850.
 Maximum step size (   0.150) exceeded in Quadratic search.
    -- Step size scaled by   0.506
 Iteration  1 RMS(Cart)=  0.03880060 RMS(Int)=  0.00071453
 Iteration  2 RMS(Cart)=  0.00145890 RMS(Int)=  0.00016771
 Iteration  3 RMS(Cart)=  0.00000112 RMS(Int)=  0.00016771
 Iteration  4 RMS(Cart)=  0.00000000 RMS(Int)=  0.00016771
 Variable       Old X    -DE/DX   Delta X   Delta X   Delta X     New X
                                 (Linear)    (Quad)   (Total)
    R1        2.89951  -0.00104  -0.00096  -0.00848  -0.00945   2.89006
    R2        2.90582  -0.01020  -0.00343  -0.04828  -0.05171   2.85412
    R3        2.07921   0.00445   0.00083   0.01540   0.01623   2.09544
    R4        2.07834   0.00534   0.00099   0.01842   0.01940   2.09775
    R5        2.67064  -0.01380  -0.00205  -0.03804  -0.04008   2.63055
    R6        2.07296   0.00449   0.00083   0.01541   0.01624   2.08919
    R7        2.08825   0.00231   0.00043   0.00810   0.00853   2.09678
    R8        1.84432  -0.01784  -0.00182  -0.03890  -0.04072   1.80360
    R9        2.88453   0.00032  -0.00042  -0.00162  -0.00204   2.88249
   R10        2.07838   0.00583   0.00107   0.02010   0.02118   2.09956
   R11        2.07733   0.00558   0.00103   0.01924   0.02028   2.09760
   R12        2.71279  -0.01749  -0.00267  -0.05116  -0.05383   2.65896
   R13        2.07880   0.00428   0.00079   0.01476   0.01555   2.09435
   R14        2.08030   0.00409   0.00075   0.01410   0.01485   2.09515
   R15        1.82882  -0.01979  -0.00236  -0.04442  -0.04677   1.78205
    A1        2.03088   0.00049  -0.00417  -0.01955  -0.02387   2.00701
    A2        1.88438  -0.00123   0.00079  -0.01065  -0.01020   1.87419
    A3        1.88984   0.00214   0.00204   0.03534   0.03750   1.92734
    A4        1.87902  -0.00049   0.00135  -0.00547  -0.00452   1.87451
    A5        1.91203  -0.00085  -0.00003   0.00587   0.00600   1.91803
    A6        1.86041  -0.00015   0.00037  -0.00550  -0.00506   1.85535
    A7        1.98680   0.00297  -0.00158   0.00087  -0.00063   1.98617
    A8        1.90033   0.00238   0.00239   0.02277   0.02486   1.92519
    A9        1.91066   0.00096   0.00079   0.01919   0.01973   1.93038
   A10        1.84944  -0.00515  -0.00112  -0.04372  -0.04478   1.80466
   A11        1.94385  -0.00171  -0.00124  -0.00807  -0.00936   1.93449
   A12        1.86766   0.00035   0.00099   0.00839   0.00859   1.87625
   A13        1.84788  -0.00015  -0.00111  -0.00652  -0.00763   1.84025
   A14        2.03749  -0.00034  -0.00383  -0.02095  -0.02488   2.01261
   A15        1.92246  -0.00132  -0.00060  -0.00202  -0.00240   1.92007
   A16        1.88932  -0.00090   0.00093  -0.01157  -0.01092   1.87840
   A17        1.88650   0.00295   0.00224   0.04077   0.04304   1.92953
   A18        1.86319  -0.00028   0.00121  -0.00252  -0.00178   1.86141
   A19        1.85594  -0.00008   0.00045  -0.00283  -0.00255   1.85339
   A20        1.90972   0.00018  -0.00145  -0.00737  -0.00879   1.90094
   A21        1.91102   0.00084   0.00122   0.00876   0.00986   1.92089
   A22        1.92664   0.00156   0.00070   0.01706   0.01769   1.94433
   A23        1.90338  -0.00161   0.00048  -0.01271  -0.01220   1.89118
   A24        1.92717  -0.00057  -0.00110  -0.00434  -0.00540   1.92176
   A25        1.88558  -0.00044   0.00020  -0.00152  -0.00153   1.88406
   A26        1.88349  -0.00690  -0.00274  -0.04730  -0.05004   1.83346
    D1       -1.25048  -0.00255   0.00319  -0.08203  -0.07877  -1.32925
    D2        2.97387   0.00046   0.00396  -0.04311  -0.03882   2.93505
    D3        0.93760  -0.00184   0.00099  -0.07685  -0.07590   0.86170
    D4        2.91900  -0.00129   0.00366  -0.05339  -0.04988   2.86912
    D5        0.86016   0.00172   0.00442  -0.01447  -0.00993   0.85023
    D6       -1.17611  -0.00058   0.00145  -0.04821  -0.04702  -1.22312
    D7        0.91112  -0.00158   0.00178  -0.05955  -0.05785   0.85327
    D8       -1.14772   0.00143   0.00254  -0.02064  -0.01790  -1.16562
    D9        3.09920  -0.00087  -0.00042  -0.05438  -0.05498   3.04421
   D10        1.19125   0.00343   0.00216   0.06445   0.06649   1.25774
   D11       -0.96812   0.00080   0.00261   0.02689   0.02944  -0.93869
   D12       -2.99061   0.00212   0.00187   0.03796   0.03987  -2.95074
   D13       -2.97538   0.00178   0.00142   0.03318   0.03457  -2.94080
   D14        1.14843  -0.00085   0.00187  -0.00438  -0.00248   1.14595
   D15       -0.87406   0.00047   0.00113   0.00668   0.00795  -0.86610
   D16       -0.95886   0.00089   0.00257   0.02675   0.02924  -0.92963
   D17       -3.11824  -0.00174   0.00302  -0.01081  -0.00781  -3.12605
   D18        1.14246  -0.00042   0.00228   0.00026   0.00262   1.14507
   D19        1.14164   0.00018  -0.00295   0.00649   0.00342   1.14506
   D20       -3.05365   0.00139  -0.00166   0.00584   0.00410  -3.04955
   D21       -1.02869  -0.00203  -0.00177  -0.01344  -0.01501  -1.04370
   D22       -1.32403  -0.00185   0.00357  -0.06643  -0.06277  -1.38679
   D23        2.87395  -0.00051   0.00312  -0.05174  -0.04847   2.82548
   D24        0.80026  -0.00143   0.00170  -0.06567  -0.06395   0.73631
   D25        0.85367  -0.00140   0.00178  -0.05056  -0.04890   0.80477
   D26       -1.23154  -0.00006   0.00133  -0.03588  -0.03460  -1.26614
   D27        2.97796  -0.00099  -0.00010  -0.04981  -0.05008   2.92788
   D28        2.84402  -0.00023   0.00395  -0.03570  -0.03172   2.81230
   D29        0.75881   0.00111   0.00350  -0.02101  -0.01742   0.74138
   D30       -1.31488   0.00018   0.00207  -0.03494  -0.03291  -1.34778
   D31        3.10715   0.00072  -0.00017   0.01075   0.01054   3.11769
   D32       -1.08613   0.00088   0.00073   0.00933   0.01008  -1.07605
   D33        0.98317  -0.00098   0.00062  -0.00289  -0.00225   0.98092
         Item               Value     Threshold  Converged?
 Maximum Force            0.019793     0.000450     NO 
 RMS     Force            0.004747     0.000300     NO 
 Maximum Displacement     0.131050     0.001800     NO 
 RMS     Displacement     0.038946     0.001200     NO 
 Predicted change in Energy=-5.382955D-03
 GradGradGradGradGradGradGradGradGradGradGradGradGradGradGradGradGradGrad

                          Input orientation:                          
 ---------------------------------------------------------------------
 Center     Atomic      Atomic             Coordinates (Angstroms)
 Number     Number       Type             X           Y           Z
 ---------------------------------------------------------------------
      1          6           0        1.635237    1.268493    1.982514
      2          6           0        1.161928    2.367058    1.029594
      3          8           0        1.490157    3.653481    1.448076
      4          6           0        3.111996    0.958837    1.916177
      5          6           0        4.028832    2.022563    2.511651
      6          8           0        4.180339    3.067005    1.581056
      7          1           0        1.089570    0.340789    1.715721
      8          1           0        1.346545    1.510486    3.026725
      9          1           0        0.057457    2.386267    0.984597
     10          1           0        1.534557    2.179333    0.001465
     11          1           0        2.443134    3.695512    1.416571
     12          1           0        3.406254    0.732009    0.869102
     13          1           0        3.286567    0.028104    2.495288
     14          1           0        5.028554    1.590744    2.717496
     15          1           0        3.624282    2.417496    3.465378
     16          1           0        4.734290    3.698425    2.009690
 ---------------------------------------------------------------------
                    Distance matrix (angstroms):
                    1          2          3          4          5
     1  C    0.000000
     2  C    1.529354   0.000000
     3  O    2.448436   1.392029   0.000000
     4  C    1.510333   2.563569   3.179715   0.000000
     5  C    2.564742   3.245659   3.199367   1.525349   0.000000
     6  O    3.142189   3.147195   2.756576   2.387055   1.407061
     7  H    1.108858   2.140508   3.347541   2.124235   3.478668
     8  H    1.110080   2.180901   2.665555   2.157417   2.778882
     9  H    2.175925   1.105554   1.968063   3.497943   4.270362
    10  H    2.182733   1.109569   2.065857   2.764788   3.542177
    11  H    2.619811   1.885744   0.954423   2.861185   2.551940
    12  H    2.159630   2.781392   3.541417   1.111038   2.179701
    13  H    2.128002   3.483253   4.179365   1.110003   2.128166
    14  H    3.486925   4.289811   4.287956   2.171316   1.108280
    15  H    2.734116   3.463924   3.186166   2.188640   1.108706
    16  H    3.938203   3.936356   3.292693   3.185267   1.886306
                    6          7          8          9         10
     6  O    0.000000
     7  H    4.123499   0.000000
     8  H    3.541623   1.775657   0.000000
     9  H    4.221056   2.404949   2.568857   0.000000
    10  H    3.206748   2.552829   3.104014   1.786391   0.000000
    11  H    1.854712   3.629848   2.927361   2.755390   2.264252
    12  H    2.560916   2.497367   3.082817   3.736890   2.520078
    13  H    3.296902   2.352083   2.498713   4.274374   3.730480
    14  H    2.047025   4.252239   3.695843   5.324247   4.464446
    15  H    2.069235   3.714670   2.490616   4.344823   4.052452
    16  H    0.943018   4.964285   4.159117   4.964408   4.071720
                   11         12         13         14         15
    11  H    0.000000
    12  H    3.163807   0.000000
    13  H    3.914702   1.776031   0.000000
    14  H    3.578667   2.604965   2.350689   0.000000
    15  H    2.688131   3.103071   2.600830   1.792994   0.000000
    16  H    2.366685   3.444452   3.975294   2.242744   2.234262
                   16
    16  H    0.000000
 Stoichiometry    C4H10O2
 Framework group  C1[X(C4H10O2)]
 Deg. of freedom    42
 Full point group                 C1      NOp   1
 Largest Abelian subgroup         C1      NOp   1
 Largest concise Abelian subgroup C1      NOp   1
                         Standard orientation:                         
 ---------------------------------------------------------------------
 Center     Atomic      Atomic             Coordinates (Angstroms)
 Number     Number       Type             X           Y           Z
 ---------------------------------------------------------------------
      1          6           0        0.792320    1.142619    0.238447
      2          6           0        1.613750   -0.029860   -0.299576
      3          8           0        1.318331   -1.247676    0.306556
      4          6           0       -0.635983    1.198174   -0.249376
      5          6           0       -1.565461    0.137621    0.331989
      6          8           0       -1.354026   -1.076208   -0.347522
      7          1           0        1.291902    2.076036   -0.091275
      8          1           0        0.813131    1.153316    1.348281
      9          1           0        2.685701    0.116258   -0.071936
     10          1           0        1.513764   -0.103231   -1.402192
     11          1           0        0.418285   -1.443995    0.056958
     12          1           0       -0.659807    1.171362   -1.359834
     13          1           0       -1.053747    2.183385    0.045480
     14          1           0       -2.622406    0.438499    0.188378
     15          1           0       -1.393761    0.001002    1.418766
     16          1           0       -1.935258   -1.692886    0.066194
 ---------------------------------------------------------------------
 Rotational constants (GHZ):      4.6638979      2.9453501      2.0213469
 Standard basis: VSTO-6G (5D, 7F)
 There are    34 symmetry adapted cartesian basis functions of A   symmetry.
 There are    34 symmetry adapted basis functions of A   symmetry.
    34 basis functions,   204 primitive gaussians,    34 cartesian basis functions
    19 alpha electrons       19 beta electrons
       nuclear repulsion energy       179.2810225528 Hartrees.
 Integral buffers will be    131072 words long.
 Regular integral format.
 Two-electron integral symmetry is turned off.
 Do NDO integrals.
 One-electron integrals computed using PRISM.
 NBasis=    34 RedAO= F EigKep=  0.00D+00  NBF=    34
 NBsUse=    34 1.00D-04 EigRej=  0.00D+00 NBFU=    34
 Initial guess from the checkpoint file:  "1-4-butanediol-opt.chk"
 B after Tr=    -0.000000   -0.000000   -0.000000
         Rot=    0.999983   -0.001044   -0.001157   -0.005583 Ang=  -0.66 deg.
 Overlap will be assumed to be unity.
 Keep J ints in memory in canonical form, NReq=895124.
 Requested convergence on RMS density matrix=1.00D-08 within 128 cycles.
 Requested convergence on MAX density matrix=1.00D-06.
 Requested convergence on             energy=1.00D-06.
 No special actions if energy rises.
 SCF Done:  E(RPM3) = -0.170999723218     A.U. after   12 cycles
            NFock= 11  Conv=0.19D-08     -V/T= 0.9936
 Calling FoFJK, ICntrl=      2127 FMM=F ISym2X=0 I1Cent= 0 IOpClX= 0 NMat=1 NMatS=1 NMatT=0.
 ***** Axes restored to original set *****
 -------------------------------------------------------------------
 Center     Atomic                   Forces (Hartrees/Bohr)
 Number     Number              X              Y              Z
 -------------------------------------------------------------------
      1        6          -0.004957460   -0.000491921    0.001400661
      2        6          -0.004653752   -0.005859394   -0.003057423
      3        8          -0.000676976    0.004299239    0.000107116
      4        6           0.005182861   -0.003881839   -0.000161741
      5        6           0.000097602   -0.004380293    0.002265230
      6        8          -0.004320875    0.001911218   -0.003123363
      7        1          -0.001263787    0.000469731    0.001459797
      8        1          -0.000225404    0.000288121   -0.001275246
      9        1           0.000391506    0.000288554   -0.000034437
     10        1          -0.000023974    0.000165009    0.000559597
     11        1           0.006065439    0.001659377    0.001204238
     12        1           0.000135738    0.000781650    0.001227638
     13        1           0.000848977   -0.000391659   -0.001742446
     14        1          -0.000671368   -0.000284199    0.001096041
     15        1           0.000082054   -0.000680565   -0.000118311
     16        1           0.003989420    0.006106969    0.000192650
 -------------------------------------------------------------------
 Cartesian Forces:  Max     0.006106969 RMS     0.002574822

 GradGradGradGradGradGradGradGradGradGradGradGradGradGradGradGradGradGrad
 Berny optimization.
 Using GEDIIS/GDIIS optimizer.
 FormGI is forming the generalized inverse of G from B-inverse, IUseBI=4.
 Internal  Forces:  Max     0.007854401 RMS     0.002498396
 Search for a local minimum.
 Step number   4 out of a maximum of   84
 All quantities printed in internal units (Hartrees-Bohrs-Radians)
 Mixed Optimization -- RFO/linear search
 Update second derivatives using D2CorX and points    2    1    3    4
 DE= -2.28D-03 DEPred=-5.38D-03 R= 4.24D-01
 Trust test= 4.24D-01 RLast= 2.79D-01 DXMaxT set to 1.50D-01
 ITU=  0  0 -1  0
 Use linear search instead of GDIIS.
     Eigenvalues ---    0.00216   0.00338   0.00606   0.01190   0.01523
     Eigenvalues ---    0.03208   0.03733   0.04725   0.04774   0.04956
     Eigenvalues ---    0.05660   0.05863   0.06222   0.08692   0.08838
     Eigenvalues ---    0.11267   0.11706   0.12405   0.12523   0.13702
     Eigenvalues ---    0.14068   0.15903   0.16888   0.21578   0.21958
     Eigenvalues ---    0.22023   0.28821   0.29352   0.29585   0.33126
     Eigenvalues ---    0.33229   0.33677   0.33744   0.33799   0.33812
     Eigenvalues ---    0.33854   0.34070   0.40833   0.44862   0.51561
     Eigenvalues ---    0.53787   2.44926
 RFO step:  Lambda=-1.76258043D-03 EMin= 2.15909551D-03
 Quartic linear search produced a step of -0.24032.
 Iteration  1 RMS(Cart)=  0.12983280 RMS(Int)=  0.00565958
 Iteration  2 RMS(Cart)=  0.00860923 RMS(Int)=  0.00005176
 Iteration  3 RMS(Cart)=  0.00003731 RMS(Int)=  0.00004912
 Iteration  4 RMS(Cart)=  0.00000000 RMS(Int)=  0.00004912
 Variable       Old X    -DE/DX   Delta X   Delta X   Delta X     New X
                                 (Linear)    (Quad)   (Total)
    R1        2.89006   0.00082   0.00227   0.00153   0.00380   2.89386
    R2        2.85412   0.00541   0.01243   0.00217   0.01460   2.86871
    R3        2.09544  -0.00012  -0.00390   0.00458   0.00068   2.09612
    R4        2.09775  -0.00108  -0.00466   0.00345  -0.00122   2.09653
    R5        2.63055   0.00717   0.00963   0.00027   0.00990   2.64045
    R6        2.08919  -0.00038  -0.00390   0.00401   0.00011   2.08930
    R7        2.09678  -0.00055  -0.00205   0.00133  -0.00072   2.09606
    R8        1.80360   0.00609   0.00979  -0.00412   0.00567   1.80927
    R9        2.88249   0.00149   0.00049   0.00465   0.00514   2.88763
   R10        2.09956  -0.00128  -0.00509   0.00354  -0.00155   2.09801
   R11        2.09760  -0.00045  -0.00487   0.00508   0.00021   2.09781
   R12        2.65896   0.00785   0.01294  -0.00176   0.01117   2.67013
   R13        2.09435  -0.00029  -0.00374   0.00402   0.00028   2.09463
   R14        2.09515  -0.00037  -0.00357   0.00365   0.00008   2.09523
   R15        1.78205   0.00652   0.01124  -0.00447   0.00677   1.78882
    A1        2.00701  -0.00734   0.00574  -0.01957  -0.01378   1.99323
    A2        1.87419   0.00144   0.00245  -0.00452  -0.00193   1.87226
    A3        1.92734   0.00226  -0.00901   0.01390   0.00485   1.93219
    A4        1.87451   0.00380   0.00109   0.01344   0.01461   1.88911
    A5        1.91803   0.00182  -0.00144   0.00312   0.00162   1.91965
    A6        1.85535  -0.00156   0.00122  -0.00575  -0.00458   1.85077
    A7        1.98617  -0.00169   0.00015  -0.00081  -0.00071   1.98547
    A8        1.92519   0.00120  -0.00597   0.01553   0.00962   1.93481
    A9        1.93038  -0.00011  -0.00474   0.00197  -0.00274   1.92764
   A10        1.80466   0.00107   0.01076  -0.01058   0.00016   1.80482
   A11        1.93449  -0.00013   0.00225  -0.01179  -0.00956   1.92493
   A12        1.87625  -0.00016  -0.00206   0.00583   0.00395   1.88020
   A13        1.84025   0.00319   0.00183   0.01360   0.01544   1.85569
   A14        2.01261  -0.00657   0.00598  -0.01964  -0.01364   1.99897
   A15        1.92007   0.00144   0.00058  -0.00228  -0.00178   1.91829
   A16        1.87840   0.00334   0.00262   0.01004   0.01276   1.89115
   A17        1.92953   0.00204  -0.01034   0.01500   0.00460   1.93414
   A18        1.86141   0.00156   0.00043   0.00190   0.00250   1.86390
   A19        1.85339  -0.00140   0.00061  -0.00392  -0.00328   1.85011
   A20        1.90094  -0.00034   0.00211   0.00163   0.00370   1.90464
   A21        1.92089   0.00008  -0.00237   0.00510   0.00271   1.92360
   A22        1.94433  -0.00052  -0.00425  -0.00184  -0.00608   1.93824
   A23        1.89118   0.00164   0.00293   0.00833   0.01122   1.90239
   A24        1.92176  -0.00046   0.00130  -0.00794  -0.00665   1.91512
   A25        1.88406  -0.00033   0.00037  -0.00501  -0.00458   1.87947
   A26        1.83346   0.00580   0.01202   0.01105   0.02307   1.85653
    D1       -1.32925   0.00237   0.01893   0.01229   0.03122  -1.29803
    D2        2.93505   0.00128   0.00933   0.01574   0.02500   2.96005
    D3        0.86170   0.00078   0.01824  -0.00255   0.01572   0.87741
    D4        2.86912   0.00111   0.01199   0.01067   0.02267   2.89180
    D5        0.85023   0.00002   0.00239   0.01411   0.01646   0.86669
    D6       -1.22312  -0.00048   0.01130  -0.00418   0.00717  -1.21595
    D7        0.85327   0.00097   0.01390   0.01275   0.02667   0.87994
    D8       -1.16562  -0.00012   0.00430   0.01620   0.02046  -1.14517
    D9        3.04421  -0.00062   0.01321  -0.00209   0.01117   3.05538
   D10        1.25774  -0.00028  -0.01598   0.20324   0.18735   1.44509
   D11       -0.93869   0.00093  -0.00707   0.20031   0.19326  -0.74543
   D12       -2.95074  -0.00001  -0.00958   0.20060   0.19102  -2.75973
   D13       -2.94080  -0.00033  -0.00831   0.19490   0.18660  -2.75420
   D14        1.14595   0.00088   0.00060   0.19196   0.19251   1.33846
   D15       -0.86610  -0.00006  -0.00191   0.19226   0.19026  -0.67584
   D16       -0.92963   0.00085  -0.00703   0.19707   0.19010  -0.73953
   D17       -3.12605   0.00206   0.00188   0.19414   0.19601  -2.93005
   D18        1.14507   0.00112  -0.00063   0.19443   0.19377   1.33884
   D19        1.14506  -0.00146  -0.00082  -0.02702  -0.02779   1.11727
   D20       -3.04955  -0.00020  -0.00098  -0.01541  -0.01638  -3.06593
   D21       -1.04370   0.00012   0.00361  -0.01946  -0.01592  -1.05962
   D22       -1.38679   0.00255   0.01508   0.01781   0.03289  -1.35390
   D23        2.82548   0.00072   0.01165   0.00368   0.01529   2.84078
   D24        0.73631   0.00141   0.01537   0.00778   0.02315   0.75946
   D25        0.80477   0.00100   0.01175   0.01175   0.02353   0.82830
   D26       -1.26614  -0.00084   0.00832  -0.00238   0.00594  -1.26021
   D27        2.92788  -0.00014   0.01204   0.00172   0.01379   2.94167
   D28        2.81230   0.00124   0.00762   0.01575   0.02338   2.83567
   D29        0.74138  -0.00060   0.00419   0.00162   0.00578   0.74716
[...]
   D25        0.79617  -0.00000  -0.00018  -0.00011  -0.00030   0.79587
   D26       -1.28373   0.00000  -0.00020  -0.00010  -0.00030  -1.28403
   D27        2.92054   0.00000  -0.00018  -0.00010  -0.00028   2.92026
   D28        2.79738  -0.00001  -0.00023  -0.00013  -0.00036   2.79703
   D29        0.71748  -0.00000  -0.00025  -0.00011  -0.00036   0.71713
   D30       -1.36143  -0.00000  -0.00023  -0.00011  -0.00034  -1.36177
   D31        3.01998   0.00000   0.00057  -0.00032   0.00025   3.02023
   D32       -1.16613  -0.00000   0.00058  -0.00033   0.00026  -1.16587
   D33        0.88698  -0.00001   0.00054  -0.00034   0.00020   0.88719
         Item               Value     Threshold  Converged?
 Maximum Force            0.000045     0.000450     YES
 RMS     Force            0.000010     0.000300     YES
 Maximum Displacement     0.001474     0.001800     YES
 RMS     Displacement     0.000419     0.001200     YES
 Predicted change in Energy=-1.288670D-08
 Optimization completed.
    -- Stationary point found.
                           ----------------------------
                           !   Optimized Parameters   !
                           ! (Angstroms and Degrees)  !
 --------------------------                            --------------------------
 ! Name  Definition              Value          Derivative Info.                !
 --------------------------------------------------------------------------------
 ! R1    R(1,2)                  1.5313         -DE/DX =    0.0                 !
 ! R2    R(1,4)                  1.5221         -DE/DX =    0.0                 !
 ! R3    R(1,7)                  1.1077         -DE/DX =    0.0                 !
 ! R4    R(1,8)                  1.1084         -DE/DX =    0.0                 !
 ! R5    R(2,3)                  1.3993         -DE/DX =    0.0                 !
 ! R6    R(2,9)                  1.1042         -DE/DX =    0.0                 !
 ! R7    R(2,10)                 1.1085         -DE/DX =    0.0                 !
 ! R8    R(3,11)                 0.9589         -DE/DX =    0.0                 !
 ! R9    R(4,5)                  1.528          -DE/DX =    0.0                 !
 ! R10   R(4,12)                 1.1093         -DE/DX =    0.0                 !
 ! R11   R(4,13)                 1.1081         -DE/DX =    0.0                 !
 ! R12   R(5,6)                  1.4136         -DE/DX =    0.0                 !
 ! R13   R(5,14)                 1.1076         -DE/DX =    0.0                 !
 ! R14   R(5,15)                 1.1081         -DE/DX =    0.0                 !
 ! R15   R(6,16)                 0.9482         -DE/DX =    0.0                 !
 ! A1    A(2,1,4)              113.6526         -DE/DX =    0.0                 !
 ! A2    A(2,1,7)              107.8784         -DE/DX =    0.0                 !
 ! A3    A(2,1,8)              110.1594         -DE/DX =    0.0                 !
 ! A4    A(4,1,7)              108.8361         -DE/DX =    0.0                 !
 ! A5    A(4,1,8)              110.2998         -DE/DX =    0.0                 !
 ! A6    A(7,1,8)              105.6651         -DE/DX =    0.0                 !
 ! A7    A(1,2,3)              113.9865         -DE/DX =    0.0                 !
 ! A8    A(1,2,9)              110.9293         -DE/DX =    0.0                 !
 ! A9    A(1,2,10)             110.6495         -DE/DX =    0.0                 !
 ! A10   A(3,2,9)              103.1699         -DE/DX =    0.0                 !
 ! A11   A(3,2,10)             110.0744         -DE/DX =    0.0                 !
 ! A12   A(9,2,10)             107.6315         -DE/DX =    0.0                 !
 ! A13   A(2,3,11)             106.9058         -DE/DX =    0.0                 !
 ! A14   A(1,4,5)              114.069          -DE/DX =    0.0                 !
 ! A15   A(1,4,12)             110.1402         -DE/DX =    0.0                 !
 ! A16   A(1,4,13)             108.9005         -DE/DX =    0.0                 !
 ! A17   A(5,4,12)             110.2662         -DE/DX =    0.0                 !
 ! A18   A(5,4,13)             107.4306         -DE/DX =    0.0                 !
 ! A19   A(12,4,13)            105.6458         -DE/DX =    0.0                 !
 ! A20   A(4,5,6)              108.696          -DE/DX =    0.0                 !
 ! A21   A(4,5,14)             110.3337         -DE/DX =    0.0                 !
 ! A22   A(4,5,15)             111.1997         -DE/DX =    0.0                 !
 ! A23   A(6,5,14)             108.7549         -DE/DX =    0.0                 !
 ! A24   A(6,5,15)             110.3878         -DE/DX =    0.0                 !
 ! A25   A(14,5,15)            107.4386         -DE/DX =    0.0                 !
 ! A26   A(5,6,16)             106.7034         -DE/DX =    0.0                 !
 ! D1    D(4,1,2,3)            -74.3992         -DE/DX =    0.0                 !
 ! D2    D(4,1,2,9)            169.678          -DE/DX =    0.0                 !
 ! D3    D(4,1,2,10)            50.2924         -DE/DX =    0.0                 !
 ! D4    D(7,1,2,3)            164.8277         -DE/DX =    0.0                 !
 ! D5    D(7,1,2,9)             48.9049         -DE/DX =    0.0                 !
 ! D6    D(7,1,2,10)           -70.4807         -DE/DX =    0.0                 !
 ! D7    D(8,1,2,3)             49.9517         -DE/DX =    0.0                 !
 ! D8    D(8,1,2,9)            -65.9711         -DE/DX =    0.0                 !
 ! D9    D(8,1,2,10)           174.6434         -DE/DX =    0.0                 !
 ! D10   D(2,1,4,5)             84.9485         -DE/DX =    0.0                 !
 ! D11   D(2,1,4,12)           -39.6546         -DE/DX =    0.0                 !
 ! D12   D(2,1,4,13)          -155.071          -DE/DX =    0.0                 !
 ! D13   D(7,1,4,5)           -154.8179         -DE/DX =    0.0                 !
 ! D14   D(7,1,4,12)            80.579          -DE/DX =    0.0                 !
 ! D15   D(7,1,4,13)           -34.8374         -DE/DX =    0.0                 !
 ! D16   D(8,1,4,5)            -39.3267         -DE/DX =    0.0                 !
 ! D17   D(8,1,4,12)          -163.9298         -DE/DX =    0.0                 !
 ! D18   D(8,1,4,13)            80.6539         -DE/DX =    0.0                 !
 ! D19   D(1,2,3,11)            54.1315         -DE/DX =    0.0                 !
 ! D20   D(9,2,3,11)           174.5064         -DE/DX =    0.0                 !
 ! D21   D(10,2,3,11)          -70.8667         -DE/DX =    0.0                 !
 ! D22   D(1,4,5,6)            -78.9188         -DE/DX =    0.0                 !
 ! D23   D(1,4,5,14)           161.9117         -DE/DX =    0.0                 !
 ! D24   D(1,4,5,15)            42.7986         -DE/DX =    0.0                 !
 ! D25   D(12,4,5,6)            45.617          -DE/DX =    0.0                 !
 ! D26   D(12,4,5,14)          -73.5524         -DE/DX =    0.0                 !
 ! D27   D(12,4,5,15)          167.3344         -DE/DX =    0.0                 !
 ! D28   D(13,4,5,6)           160.2782         -DE/DX =    0.0                 !
 ! D29   D(13,4,5,14)           41.1088         -DE/DX =    0.0                 !
 ! D30   D(13,4,5,15)          -78.0043         -DE/DX =    0.0                 !
 ! D31   D(4,5,6,16)           173.032          -DE/DX =    0.0                 !
 ! D32   D(14,5,6,16)          -66.8144         -DE/DX =    0.0                 !
 ! D33   D(15,5,6,16)           50.8205         -DE/DX =    0.0                 !
 --------------------------------------------------------------------------------
 GradGradGradGradGradGradGradGradGradGradGradGradGradGradGradGradGradGrad

                          Input orientation:                          
 ---------------------------------------------------------------------
 Center     Atomic      Atomic             Coordinates (Angstroms)
 Number     Number       Type             X           Y           Z
 ---------------------------------------------------------------------
      1          6           0        1.642413    1.319615    2.021918
      2          6           0        1.122832    2.317415    0.982989
      3          8           0        1.530724    3.636887    1.207812
      4          6           0        3.120090    0.989439    1.865894
      5          6           0        4.056427    1.982042    2.553579
      6          8           0        4.175569    3.131412    1.739237
      7          1           0        1.054748    0.386163    1.920541
      8          1           0        1.437683    1.692501    3.045488
      9          1           0        0.021250    2.385245    1.017665
     10          1           0        1.407654    2.000227   -0.040273
     11          1           0        2.487197    3.625426    1.275302
     12          1           0        3.379562    0.897668    0.791276
     13          1           0        3.313262   -0.008858    2.306273
     14          1           0        5.060777    1.534572    2.687154
     15          1           0        3.679612    2.258225    3.558394
     16          1           0        4.669898    3.768622    2.237850
 ---------------------------------------------------------------------
                    Distance matrix (angstroms):
                    1          2          3          4          5
     1  C    0.000000
     2  C    1.531320   0.000000
     3  O    2.458657   1.399260   0.000000
     4  C    1.522132   2.555793   3.157235   0.000000
     5  C    2.559089   3.344429   3.305870   1.528037   0.000000
     6  O    3.127203   3.248647   2.744653   2.391260   1.413647
     7  H    1.107682   2.147876   3.361806   2.152339   3.457983
     8  H    1.108447   2.177969   2.677003   2.171688   2.680229
     9  H    2.184551   1.104213   1.970095   3.502937   4.336388
    10  H    2.184257   1.108511   2.061921   2.754560   3.707344
    11  H    2.566682   1.912546   0.958919   2.774486   2.607141
    12  H    2.170301   2.673063   3.330919   1.109303   2.177091
    13  H    2.153470   3.458411   4.204225   1.108083   2.139424
    14  H    3.489120   4.361700   4.366858   2.176673   1.107605
    15  H    2.718810   3.629510   3.470398   2.188023   1.108117
    16  H    3.899991   4.032661   3.306470   3.203766   1.915176
                    6          7          8          9         10
     6  O    0.000000
     7  H    4.160383   0.000000
     8  H    3.357495   1.765974   0.000000
     9  H    4.282032   2.424795   2.568704   0.000000
    10  H    3.479597   2.564086   3.101212   1.785942   0.000000
    11  H    1.819309   3.600148   2.823337   2.772241   2.353173
    12  H    2.553795   2.634699   3.079631   3.680000   2.407391
    13  H    3.305510   2.325019   2.637964   4.269611   3.629607
    14  H    2.057192   4.237311   3.644194   5.376585   4.582685
    15  H    2.077922   3.616226   2.368409   4.455901   4.263657
    16  H    0.948163   4.960950   3.925528   5.001251   4.354229
                   11         12         13         14         15
    11  H    0.000000
    12  H    2.910543   0.000000
    13  H    3.866950   1.766749   0.000000
    14  H    3.603930   2.612754   2.362426   0.000000
    15  H    2.916093   3.098079   2.615662   1.786155   0.000000
    16  H    2.389810   3.464090   4.014287   2.312064   2.237365
                   16
    16  H    0.000000
 Stoichiometry    C4H10O2
 Framework group  C1[X(C4H10O2)]
 Deg. of freedom    42
 Full point group                 C1      NOp   1
 Largest Abelian subgroup         C1      NOp   1
 Largest concise Abelian subgroup C1      NOp   1
                         Standard orientation:                         
 ---------------------------------------------------------------------
 Center     Atomic      Atomic             Coordinates (Angstroms)
 Number     Number       Type             X           Y           Z
 ---------------------------------------------------------------------
      1          6           0        0.756747    1.117746    0.324987
      2          6           0        1.676970    0.027133   -0.230616
      3          8           0        1.341178   -1.266296    0.184370
      4          6           0       -0.612390    1.158145   -0.338879
      5          6           0       -1.626635    0.187789    0.264954
      6          8           0       -1.366654   -1.108666   -0.235057
      7          1           0        1.256756    2.094431    0.173203
      8          1           0        0.648858    1.004071    1.422298
      9          1           0        2.707935    0.152038    0.144612
     10          1           0        1.714554    0.073857   -1.337504
     11          1           0        0.418466   -1.400285   -0.039627
     12          1           0       -0.513435    0.981125   -1.429486
     13          1           0       -1.029916    2.179645   -0.238605
     14          1           0       -2.656094    0.479885   -0.020850
     15          1           0       -1.575436    0.192074    1.371879
     16          1           0       -1.936035   -1.702022    0.236904
 ---------------------------------------------------------------------
 Rotational constants (GHZ):      4.7474120      2.8656604      1.9752858

 **********************************************************************

            Population analysis using the SCF density.

 **********************************************************************

 Orbital symmetries:
       Occupied  (A) (A) (A) (A) (A) (A) (A) (A) (A) (A) (A) (A)
                 (A) (A) (A) (A) (A) (A) (A)
       Virtual   (A) (A) (A) (A) (A) (A) (A) (A) (A) (A) (A) (A)
                 (A) (A) (A)
 The electronic state is 1-A.
 Alpha  occ. eigenvalues --   -1.49519  -1.36371  -1.23622  -1.01549  -0.84879
 Alpha  occ. eigenvalues --   -0.76001  -0.68396  -0.63679  -0.61283  -0.58445
 Alpha  occ. eigenvalues --   -0.57167  -0.53926  -0.51022  -0.48805  -0.46719
 Alpha  occ. eigenvalues --   -0.44896  -0.42861  -0.41364  -0.39097
 Alpha virt. eigenvalues --    0.10515   0.12162   0.12339   0.13195   0.13626
 Alpha virt. eigenvalues --    0.13884   0.14415   0.15559   0.16074   0.16682
 Alpha virt. eigenvalues --    0.17335   0.18087   0.18705   0.19376   0.23297
          Condensed to atoms (all electrons):
               1          2          3          4          5          6
     1  C    4.141896   0.000000   0.000000   0.000000   0.000000   0.000000
     2  C    0.000000   3.921782   0.000000   0.000000   0.000000   0.000000
     3  O    0.000000   0.000000   6.348614   0.000000   0.000000   0.000000
     4  C    0.000000   0.000000   0.000000   4.114926   0.000000   0.000000
     5  C    0.000000   0.000000   0.000000   0.000000   3.928232   0.000000
     6  O    0.000000   0.000000   0.000000   0.000000   0.000000   6.318139
     7  H    0.000000   0.000000   0.000000   0.000000   0.000000   0.000000
     8  H    0.000000   0.000000   0.000000   0.000000   0.000000   0.000000
     9  H    0.000000   0.000000   0.000000   0.000000   0.000000   0.000000
    10  H    0.000000   0.000000   0.000000   0.000000   0.000000   0.000000
    11  H    0.000000   0.000000   0.000000   0.000000   0.000000   0.000000
    12  H    0.000000   0.000000   0.000000   0.000000   0.000000   0.000000
    13  H    0.000000   0.000000   0.000000   0.000000   0.000000   0.000000
    14  H    0.000000   0.000000   0.000000   0.000000   0.000000   0.000000
    15  H    0.000000   0.000000   0.000000   0.000000   0.000000   0.000000
    16  H    0.000000   0.000000   0.000000   0.000000   0.000000   0.000000
               7          8          9         10         11         12
     1  C    0.000000   0.000000   0.000000   0.000000   0.000000   0.000000
     2  C    0.000000   0.000000   0.000000   0.000000   0.000000   0.000000
     3  O    0.000000   0.000000   0.000000   0.000000   0.000000   0.000000
     4  C    0.000000   0.000000   0.000000   0.000000   0.000000   0.000000
     5  C    0.000000   0.000000   0.000000   0.000000   0.000000   0.000000
     6  O    0.000000   0.000000   0.000000   0.000000   0.000000   0.000000
     7  H    0.946619   0.000000   0.000000   0.000000   0.000000   0.000000
     8  H    0.000000   0.937737   0.000000   0.000000   0.000000   0.000000
     9  H    0.000000   0.000000   0.954656   0.000000   0.000000   0.000000
    10  H    0.000000   0.000000   0.000000   0.976379   0.000000   0.000000
    11  H    0.000000   0.000000   0.000000   0.000000   0.784259   0.000000
    12  H    0.000000   0.000000   0.000000   0.000000   0.000000   0.930671
    13  H    0.000000   0.000000   0.000000   0.000000   0.000000   0.000000
    14  H    0.000000   0.000000   0.000000   0.000000   0.000000   0.000000
    15  H    0.000000   0.000000   0.000000   0.000000   0.000000   0.000000
    16  H    0.000000   0.000000   0.000000   0.000000   0.000000   0.000000
              13         14         15         16
     1  C    0.000000   0.000000   0.000000   0.000000
     2  C    0.000000   0.000000   0.000000   0.000000
     3  O    0.000000   0.000000   0.000000   0.000000
     4  C    0.000000   0.000000   0.000000   0.000000
     5  C    0.000000   0.000000   0.000000   0.000000
     6  O    0.000000   0.000000   0.000000   0.000000
     7  H    0.000000   0.000000   0.000000   0.000000
     8  H    0.000000   0.000000   0.000000   0.000000
     9  H    0.000000   0.000000   0.000000   0.000000
    10  H    0.000000   0.000000   0.000000   0.000000
    11  H    0.000000   0.000000   0.000000   0.000000
    12  H    0.000000   0.000000   0.000000   0.000000
    13  H    0.946772   0.000000   0.000000   0.000000
    14  H    0.000000   0.974636   0.000000   0.000000
    15  H    0.000000   0.000000   0.969628   0.000000
    16  H    0.000000   0.000000   0.000000   0.805053
 Mulliken charges:
               1
     1  C   -0.141896
     2  C    0.078218
     3  O   -0.348614
     4  C   -0.114926
     5  C    0.071768
     6  O   -0.318139
     7  H    0.053381
     8  H    0.062263
     9  H    0.045344
    10  H    0.023621
    11  H    0.215741
    12  H    0.069329
    13  H    0.053228
    14  H    0.025364
    15  H    0.030372
    16  H    0.194947
 Sum of Mulliken charges =  -0.00000
 Mulliken charges with hydrogens summed into heavy atoms:
               1
     1  C   -0.026252
     2  C    0.147183
     3  O   -0.132873
     4  C    0.007630
     5  C    0.127504
     6  O   -0.123192
 Charge=              0.0000 electrons
 Dipole moment (field-independent basis, Debye):
    X=             -2.3182    Y=              1.4340    Z=              0.4270  Tot=              2.7592
 N-N= 1.788170974994D+02 E-N=-3.042714090253D+02  KE=-2.671542546930D+01
 1\1\GINC-GTX1080DELTA\FOpt\RPM3\ZDO\C4H10O2\MVEROT\17-Apr-2022\0\\#n P
 M3 Opt\\Optimisation de geometrie\\0,1\C,1.642413271,1.3196147312,2.02
 19179961\C,1.1228322031,2.3174145524,0.9829891716\O,1.5307242313,3.636
 886752,1.2078124727\C,3.1200895851,0.9894393686,1.8658936923\C,4.05642
 74874,1.9820416173,2.5535785619\O,4.1755692226,3.1314117922,1.73923727
 84\H,1.0547481744,0.386163115,1.9205407509\H,1.4376834036,1.6925010629
 ,3.0454878432\H,0.0212500792,2.3852447891,1.0176651269\H,1.4076537303,
 2.0002270079,-0.0402731615\H,2.4871968802,3.6254256565,1.2753024766\H,
 3.3795622283,0.8976681447,0.7912755939\H,3.3132618303,-0.0088579188,2.
 3062730052\H,5.0607770514,1.5345718964,2.687154235\H,3.6796122828,2.25
 82254793,3.5583944811\H,4.6698983392,3.7686219532,2.2378504758\\Versio
 n=AM64L-G09RevD.01\State=1-A\HF=-0.1723459\RMSD=5.127e-09\RMSF=7.956e-
 06\Dipole=0.7142614,-0.5860237,0.5699077\PG=C01 [X(C4H10O2)]\\@


 IT'S WHAT A FELLER THINKS HE KNOWS THAT HURTS HIM...
                    ------
           KIN HUBBARD
 Job cpu time:       0 days  0 hours  0 minutes  7.9 seconds.
 File lengths (MBytes):  RWF=     72 Int=      0 D2E=      0 Chk=      3 Scr=      2
 Normal termination of Gaussian 09 at Sun Apr 17 23:23:23 2022.
