 Entering Gaussian System, Link 0=g09
 Input=/scratch/mverot/anthracene-2-6-opt/anthracene-2-6-opt.com
 Output=/scratch/mverot/anthracene-2-6-opt/anthracene-2-6-opt.log
 Initial command:
 /opt/g09/l1.exe "/scratch/mverot/anthracene-2-6-opt/Gau-2835595.inp" -scrdir="/scratch/mverot/anthracene-2-6-opt/"
 Entering Link 1 = /opt/g09/l1.exe PID=   2835599.
  
 Copyright (c) 1988,1990,1992,1993,1995,1998,2003,2009,2013,
            Gaussian, Inc.  All Rights Reserved.
  
 This is part of the Gaussian(R) 09 program.  It is based on
 the Gaussian(R) 03 system (copyright 2003, Gaussian, Inc.),
 the Gaussian(R) 98 system (copyright 1998, Gaussian, Inc.),
 the Gaussian(R) 94 system (copyright 1995, Gaussian, Inc.),
 the Gaussian 92(TM) system (copyright 1992, Gaussian, Inc.),
 the Gaussian 90(TM) system (copyright 1990, Gaussian, Inc.),
 the Gaussian 88(TM) system (copyright 1988, Gaussian, Inc.),
 the Gaussian 86(TM) system (copyright 1986, Carnegie Mellon
 University), and the Gaussian 82(TM) system (copyright 1983,
 Carnegie Mellon University). Gaussian is a federally registered
 trademark of Gaussian, Inc.
  
 This software contains proprietary and confidential information,
 including trade secrets, belonging to Gaussian, Inc.
  
 This software is provided under written license and may be
 used, copied, transmitted, or stored only in accord with that
 written license.
  
 The following legend is applicable only to US Government
 contracts under FAR:
  
                    RESTRICTED RIGHTS LEGEND
  
 Use, reproduction and disclosure by the US Government is
 subject to restrictions as set forth in subparagraphs (a)
 and (c) of the Commercial Computer Software - Restricted
 Rights clause in FAR 52.227-19.
  
 Gaussian, Inc.
 340 Quinnipiac St., Bldg. 40, Wallingford CT 06492
  
  
 ---------------------------------------------------------------
 Warning -- This program may not be used in any manner that
 competes with the business of Gaussian, Inc. or will provide
 assistance to any competitor of Gaussian, Inc.  The licensee
 of this program is prohibited from giving any competitor of
 Gaussian, Inc. access to this program.  By using this program,
 the user acknowledges that Gaussian, Inc. is engaged in the
 business of creating and licensing software in the field of
 computational chemistry and represents and warrants to the
 licensee that it is not a competitor of Gaussian, Inc. and that
 it will not use this program in any manner prohibited above.
 ---------------------------------------------------------------
  

 Cite this work as:
 Gaussian 09, Revision D.01,
 M. J. Frisch, G. W. Trucks, H. B. Schlegel, G. E. Scuseria, 
 M. A. Robb, J. R. Cheeseman, G. Scalmani, V. Barone, B. Mennucci, 
 G. A. Petersson, H. Nakatsuji, M. Caricato, X. Li, H. P. Hratchian, 
 A. F. Izmaylov, J. Bloino, G. Zheng, J. L. Sonnenberg, M. Hada, 
 M. Ehara, K. Toyota, R. Fukuda, J. Hasegawa, M. Ishida, T. Nakajima, 
 Y. Honda, O. Kitao, H. Nakai, T. Vreven, J. A. Montgomery, Jr., 
 J. E. Peralta, F. Ogliaro, M. Bearpark, J. J. Heyd, E. Brothers, 
 K. N. Kudin, V. N. Staroverov, T. Keith, R. Kobayashi, J. Normand, 
 K. Raghavachari, A. Rendell, J. C. Burant, S. S. Iyengar, J. Tomasi, 
 M. Cossi, N. Rega, J. M. Millam, M. Klene, J. E. Knox, J. B. Cross, 
 V. Bakken, C. Adamo, J. Jaramillo, R. Gomperts, R. E. Stratmann, 
 O. Yazyev, A. J. Austin, R. Cammi, C. Pomelli, J. W. Ochterski, 
 R. L. Martin, K. Morokuma, V. G. Zakrzewski, G. A. Voth, 
 P. Salvador, J. J. Dannenberg, S. Dapprich, A. D. Daniels, 
 O. Farkas, J. B. Foresman, J. V. Ortiz, J. Cioslowski, 
 and D. J. Fox, Gaussian, Inc., Wallingford CT, 2013.
 
 ******************************************
 Gaussian 09:  AM64L-G09RevD.01 24-Apr-2013
                12-Apr-2022 
 ******************************************
 %chk=anthracene-2-6-opt
 ----------
 #n AM1 Opt
 ----------
 1/14=-1,18=20,19=15,26=1,38=1/1,3;
 2/9=110,12=2,17=6,18=5,40=1/2;
 3/5=2,16=1,25=1,41=700000,71=1/1,2,3;
 4/35=1/1;
 5/5=2,35=1,38=5/2;
 6/7=2,8=2,9=2,10=2,28=1/1;
 7//1,2,3,16;
 1/14=-1,18=20,19=15,26=1/3(2);
 2/9=110/2;
 99//99;
 2/9=110/2;
 3/5=2,16=1,25=1,41=700000,71=1,135=20/1,2,3;
 4/5=5,16=3,35=1/1;
 5/5=2,35=1,38=5/2;
 7//1,2,3,16;
 1/14=-1,18=20,19=15,26=1/3(-5);
 2/9=110/2;
 6/7=2,8=2,9=2,10=2,19=2,28=1/1;
 99/9=1/99;
 ---------------------
 Geometry optimization
 ---------------------
 Symbolic Z-matrix:
 Charge =  0 Multiplicity = 1
 C                     0.00694   1.44703   0.00028 
 C                     1.27658   0.69295   0.00015 
 C                    -1.27037   0.7052    0.0001 
 O                     0.01047   2.67209   0.00052 
 C                    -0.00828  -1.44242  -0.00035 
 C                    -1.27787  -0.68987  -0.00019 
 O                    -0.01574  -2.66803  -0.00064 
 C                     1.26887  -0.70168  -0.00016 
 C                     2.49361   1.3841    0.00036 
 C                    -2.49258  -1.38938  -0.00034 
 C                     2.47914  -1.4094   -0.00028 
 C                    -2.48139   1.4091    0.00025 
 C                     3.68858   0.67168   0.00024 
 C                     3.69348  -0.7199   -0.00008 
 C                    -3.69115   0.71298   0.0001 
 C                    -3.68762  -0.67784  -0.00019 
 H                     2.51433   2.47197   0.0006 
 H                    -2.49081  -2.47631  -0.00057 
 H                     2.47881  -2.49829  -0.00052 
 H                    -2.48783   2.49774   0.00048 
 H                     4.62341  -1.28116  -0.00017 
 H                    -4.63377   1.2549    0.00021 
 N                     4.85008   1.38377   0.00045 
 N                    -4.89255  -1.31388  -0.00032 
 H                     5.71537   0.91418   0.00037 
 H                     4.82411   2.36793   0.00068 
 H                    -4.92986  -2.29767  -0.00053 
 H                    -5.72588  -0.78967  -0.00021 
 

 GradGradGradGradGradGradGradGradGradGradGradGradGradGradGradGradGradGrad
 Berny optimization.
 Initialization pass.
                           ----------------------------
                           !    Initial Parameters    !
                           ! (Angstroms and Degrees)  !
 --------------------------                            --------------------------
 ! Name  Definition              Value          Derivative Info.                !
 --------------------------------------------------------------------------------
 ! R1    R(1,2)                  1.4767         estimate D2E/DX2                !
 ! R2    R(1,3)                  1.4771         estimate D2E/DX2                !
 ! R3    R(1,4)                  1.2251         estimate D2E/DX2                !
 ! R4    R(2,8)                  1.3947         estimate D2E/DX2                !
 ! R5    R(2,9)                  1.3996         estimate D2E/DX2                !
 ! R6    R(3,6)                  1.3951         estimate D2E/DX2                !
 ! R7    R(3,12)                 1.4007         estimate D2E/DX2                !
 ! R8    R(5,6)                  1.4759         estimate D2E/DX2                !
 ! R9    R(5,7)                  1.2256         estimate D2E/DX2                !
 ! R10   R(5,8)                  1.4764         estimate D2E/DX2                !
 ! R11   R(6,10)                 1.4017         estimate D2E/DX2                !
 ! R12   R(8,11)                 1.402          estimate D2E/DX2                !
 ! R13   R(9,13)                 1.3912         estimate D2E/DX2                !
 ! R14   R(9,17)                 1.0881         estimate D2E/DX2                !
 ! R15   R(10,16)                1.3908         estimate D2E/DX2                !
 ! R16   R(10,18)                1.0869         estimate D2E/DX2                !
 ! R17   R(11,14)                1.3964         estimate D2E/DX2                !
 ! R18   R(11,19)                1.0889         estimate D2E/DX2                !
 ! R19   R(12,15)                1.3957         estimate D2E/DX2                !
 ! R20   R(12,20)                1.0887         estimate D2E/DX2                !
 ! R21   R(13,14)                1.3916         estimate D2E/DX2                !
 ! R22   R(13,23)                1.3624         estimate D2E/DX2                !
 ! R23   R(14,21)                1.0862         estimate D2E/DX2                !
 ! R24   R(15,16)                1.3908         estimate D2E/DX2                !
 ! R25   R(15,22)                1.0873         estimate D2E/DX2                !
 ! R26   R(16,24)                1.3625         estimate D2E/DX2                !
 ! R27   R(23,25)                0.9845         estimate D2E/DX2                !
 ! R28   R(23,26)                0.9845         estimate D2E/DX2                !
 ! R29   R(24,27)                0.9845         estimate D2E/DX2                !
 ! R30   R(24,28)                0.9845         estimate D2E/DX2                !
 ! A1    A(2,1,3)              119.1456         estimate D2E/DX2                !
 ! A2    A(2,1,4)              120.5423         estimate D2E/DX2                !
 ! A3    A(3,1,4)              120.3121         estimate D2E/DX2                !
 ! A4    A(1,2,8)              120.3907         estimate D2E/DX2                !
 ! A5    A(1,2,9)              119.7004         estimate D2E/DX2                !
 ! A6    A(8,2,9)              119.9089         estimate D2E/DX2                !
 ! A7    A(1,3,6)              120.455          estimate D2E/DX2                !
 ! A8    A(1,3,12)             119.6859         estimate D2E/DX2                !
 ! A9    A(6,3,12)             119.8591         estimate D2E/DX2                !
 ! A10   A(6,5,7)              120.3086         estimate D2E/DX2                !
 ! A11   A(6,5,8)              119.2291         estimate D2E/DX2                !
 ! A12   A(7,5,8)              120.4622         estimate D2E/DX2                !
 ! A13   A(3,6,5)              120.3493         estimate D2E/DX2                !
 ! A14   A(3,6,10)             120.2442         estimate D2E/DX2                !
 ! A15   A(5,6,10)             119.4065         estimate D2E/DX2                !
 ! A16   A(2,8,5)              120.4302         estimate D2E/DX2                !
 ! A17   A(2,8,11)             120.0007         estimate D2E/DX2                !
 ! A18   A(5,8,11)             119.569          estimate D2E/DX2                !
 ! A19   A(2,9,13)             119.6052         estimate D2E/DX2                !
 ! A20   A(2,9,17)             120.6833         estimate D2E/DX2                !
 ! A21   A(13,9,17)            119.7115         estimate D2E/DX2                !
 ! A22   A(6,10,16)            119.2938         estimate D2E/DX2                !
 ! A23   A(6,10,18)            119.8429         estimate D2E/DX2                !
 ! A24   A(16,10,18)           120.8633         estimate D2E/DX2                !
 ! A25   A(8,11,14)            120.0947         estimate D2E/DX2                !
 ! A26   A(8,11,19)            120.3001         estimate D2E/DX2                !
 ! A27   A(14,11,19)           119.6052         estimate D2E/DX2                !
 ! A28   A(3,12,15)            119.9159         estimate D2E/DX2                !
 ! A29   A(3,12,20)            120.506          estimate D2E/DX2                !
 ! A30   A(15,12,20)           119.578          estimate D2E/DX2                !
 ! A31   A(9,13,14)            121.0044         estimate D2E/DX2                !
 ! A32   A(9,13,23)            117.6858         estimate D2E/DX2                !
 ! A33   A(14,13,23)           121.3098         estimate D2E/DX2                !
 ! A34   A(11,14,13)           119.3861         estimate D2E/DX2                !
 ! A35   A(11,14,21)           119.2991         estimate D2E/DX2                !
 ! A36   A(13,14,21)           121.3149         estimate D2E/DX2                !
 ! A37   A(12,15,16)           119.7716         estimate D2E/DX2                !
 ! A38   A(12,15,22)           120.1881         estimate D2E/DX2                !
 ! A39   A(16,15,22)           120.0404         estimate D2E/DX2                !
 ! A40   A(10,16,15)           120.9155         estimate D2E/DX2                !
 ! A41   A(10,16,24)           121.402          estimate D2E/DX2                !
 ! A42   A(15,16,24)           117.6826         estimate D2E/DX2                !
 ! A43   A(13,23,25)           119.9999         estimate D2E/DX2                !
 ! A44   A(13,23,26)           120.0            estimate D2E/DX2                !
 ! A45   A(25,23,26)           120.0001         estimate D2E/DX2                !
 ! A46   A(16,24,27)           119.9999         estimate D2E/DX2                !
 ! A47   A(16,24,28)           119.9999         estimate D2E/DX2                !
 ! A48   A(27,24,28)           120.0002         estimate D2E/DX2                !
 ! D1    D(3,1,2,8)              0.001          estimate D2E/DX2                !
 ! D2    D(3,1,2,9)           -179.998          estimate D2E/DX2                !
 ! D3    D(4,1,2,8)           -179.9983         estimate D2E/DX2                !
 ! D4    D(4,1,2,9)              0.0027         estimate D2E/DX2                !
 ! D5    D(2,1,3,6)              0.0            estimate D2E/DX2                !
 ! D6    D(2,1,3,12)           179.9986         estimate D2E/DX2                !
 ! D7    D(4,1,3,6)            179.9992         estimate D2E/DX2                !
 ! D8    D(4,1,3,12)            -0.0021         estimate D2E/DX2                !
 ! D9    D(1,2,8,5)             -0.0006         estimate D2E/DX2                !
 ! D10   D(1,2,8,11)          -179.9999         estimate D2E/DX2                !
 ! D11   D(9,2,8,5)            179.9985         estimate D2E/DX2                !
 ! D12   D(9,2,8,11)            -0.0009         estimate D2E/DX2                !
 ! D13   D(1,2,9,13)           179.9999         estimate D2E/DX2                !
 ! D14   D(1,2,9,17)            -0.0011         estimate D2E/DX2                !
 ! D15   D(8,2,9,13)             0.0008         estimate D2E/DX2                !
 ! D16   D(8,2,9,17)           179.9998         estimate D2E/DX2                !
 ! D17   D(1,3,6,5)             -0.0013         estimate D2E/DX2                !
 ! D18   D(1,3,6,10)           179.9991         estimate D2E/DX2                !
 ! D19   D(12,3,6,5)          -180.0            estimate D2E/DX2                !
 ! D20   D(12,3,6,10)            0.0004         estimate D2E/DX2                !
 ! D21   D(1,3,12,15)         -179.9991         estimate D2E/DX2                !
 ! D22   D(1,3,12,20)            0.0011         estimate D2E/DX2                !
 ! D23   D(6,3,12,15)           -0.0004         estimate D2E/DX2                !
 ! D24   D(6,3,12,20)          179.9998         estimate D2E/DX2                !
 ! D25   D(7,5,6,3)           -179.9981         estimate D2E/DX2                !
 ! D26   D(7,5,6,10)             0.0015         estimate D2E/DX2                !
 ! D27   D(8,5,6,3)              0.0018         estimate D2E/DX2                !
 ! D28   D(8,5,6,10)          -179.9986         estimate D2E/DX2                !
 ! D29   D(6,5,8,2)             -0.0008         estimate D2E/DX2                !
 ! D30   D(6,5,8,11)           179.9986         estimate D2E/DX2                !
 ! D31   D(7,5,8,2)            179.999          estimate D2E/DX2                !
 ! D32   D(7,5,8,11)            -0.0016         estimate D2E/DX2                !
 ! D33   D(3,6,10,16)           -0.0003         estimate D2E/DX2                !
 ! D34   D(3,6,10,18)          179.9998         estimate D2E/DX2                !
 ! D35   D(5,6,10,16)         -179.9999         estimate D2E/DX2                !
 ! D36   D(5,6,10,18)            0.0001         estimate D2E/DX2                !
 ! D37   D(2,8,11,14)            0.0005         estimate D2E/DX2                !
 ! D38   D(2,8,11,19)          179.9999         estimate D2E/DX2                !
 ! D39   D(5,8,11,14)         -179.9989         estimate D2E/DX2                !
 ! D40   D(5,8,11,19)            0.0005         estimate D2E/DX2                !
 ! D41   D(2,9,13,14)           -0.0003         estimate D2E/DX2                !
 ! D42   D(2,9,13,23)          179.9999         estimate D2E/DX2                !
 ! D43   D(17,9,13,14)        -179.9993         estimate D2E/DX2                !
 ! D44   D(17,9,13,23)           0.0008         estimate D2E/DX2                !
 ! D45   D(6,10,16,15)           0.0003         estimate D2E/DX2                !
 ! D46   D(6,10,16,24)        -179.9997         estimate D2E/DX2                !
 ! D47   D(18,10,16,15)       -179.9998         estimate D2E/DX2                !
 ! D48   D(18,10,16,24)          0.0003         estimate D2E/DX2                !
 ! D49   D(8,11,14,13)           0.0001         estimate D2E/DX2                !
 ! D50   D(8,11,14,21)         179.9996         estimate D2E/DX2                !
 ! D51   D(19,11,14,13)       -179.9994         estimate D2E/DX2                !
 ! D52   D(19,11,14,21)          0.0002         estimate D2E/DX2                !
 ! D53   D(3,12,15,16)           0.0004         estimate D2E/DX2                !
 ! D54   D(3,12,15,22)        -179.9997         estimate D2E/DX2                !
 ! D55   D(20,12,15,16)       -179.9998         estimate D2E/DX2                !
 ! D56   D(20,12,15,22)          0.0001         estimate D2E/DX2                !
 ! D57   D(9,13,14,11)          -0.0002         estimate D2E/DX2                !
 ! D58   D(9,13,14,21)        -179.9997         estimate D2E/DX2                !
 ! D59   D(23,13,14,11)        179.9997         estimate D2E/DX2                !
 ! D60   D(23,13,14,21)          0.0001         estimate D2E/DX2                !
 ! D61   D(9,13,23,25)        -179.9997         estimate D2E/DX2                !
 ! D62   D(9,13,23,26)           0.0001         estimate D2E/DX2                !
 ! D63   D(14,13,23,25)          0.0004         estimate D2E/DX2                !
 ! D64   D(14,13,23,26)       -179.9997         estimate D2E/DX2                !
 ! D65   D(12,15,16,10)         -0.0003         estimate D2E/DX2                !
 ! D66   D(12,15,16,24)        179.9996         estimate D2E/DX2                !
 ! D67   D(22,15,16,10)        179.9997         estimate D2E/DX2                !
 ! D68   D(22,15,16,24)         -0.0003         estimate D2E/DX2                !
 ! D69   D(10,16,24,27)         -0.0004         estimate D2E/DX2                !
 ! D70   D(10,16,24,28)       -180.0            estimate D2E/DX2                !
 ! D71   D(15,16,24,27)        179.9997         estimate D2E/DX2                !
 ! D72   D(15,16,24,28)          0.0001         estimate D2E/DX2                !
 --------------------------------------------------------------------------------
 Trust Radius=3.00D-01 FncErr=1.00D-07 GrdErr=1.00D-07
 Number of steps in this run=    160 maximum allowed number of steps=    168.
 GradGradGradGradGradGradGradGradGradGradGradGradGradGradGradGradGradGrad

                          Input orientation:                          
 ---------------------------------------------------------------------
 Center     Atomic      Atomic             Coordinates (Angstroms)
 Number     Number       Type             X           Y           Z
 ---------------------------------------------------------------------
      1          6           0        0.006940    1.447030    0.000280
      2          6           0        1.276580    0.692950    0.000150
      3          6           0       -1.270370    0.705200    0.000100
      4          8           0        0.010470    2.672090    0.000520
      5          6           0       -0.008280   -1.442420   -0.000350
      6          6           0       -1.277870   -0.689870   -0.000190
      7          8           0       -0.015740   -2.668030   -0.000640
      8          6           0        1.268870   -0.701680   -0.000160
      9          6           0        2.493610    1.384100    0.000360
     10          6           0       -2.492580   -1.389380   -0.000340
     11          6           0        2.479140   -1.409400   -0.000280
     12          6           0       -2.481390    1.409100    0.000250
     13          6           0        3.688580    0.671680    0.000240
     14          6           0        3.693480   -0.719900   -0.000080
     15          6           0       -3.691150    0.712980    0.000100
     16          6           0       -3.687620   -0.677840   -0.000190
     17          1           0        2.514330    2.471970    0.000600
     18          1           0       -2.490810   -2.476310   -0.000570
     19          1           0        2.478810   -2.498290   -0.000520
     20          1           0       -2.487830    2.497740    0.000480
     21          1           0        4.623410   -1.281160   -0.000170
     22          1           0       -4.633770    1.254900    0.000210
     23          7           0        4.850080    1.383770    0.000450
     24          7           0       -4.892550   -1.313880   -0.000320
     25          1           0        5.715370    0.914180    0.000370
     26          1           0        4.824110    2.367930    0.000680
     27          1           0       -4.929860   -2.297670   -0.000530
     28          1           0       -5.725880   -0.789670   -0.000210
 ---------------------------------------------------------------------
                    Distance matrix (angstroms):
                    1          2          3          4          5
     1  C    0.000000
     2  C    1.476693   0.000000
     3  C    1.477103   2.546979   0.000000
     4  O    1.225065   2.349474   2.347170   0.000000
     5  C    2.889490   2.492122   2.491012   4.114553   0.000000
     6  C    2.493407   2.904721   1.395090   3.600360   1.475869
     7  O    4.115123   3.600872   3.598997   5.340184   1.225633
     8  C    2.491871   1.394651   2.902938   3.600819   1.476417
     9  C    2.487466   1.399589   3.824716   2.797303   3.774741
    10  C    3.780585   4.306120   2.425090   4.770828   2.484866
    11  C    3.777693   2.421988   4.304690   4.769999   2.487639
    12  C    2.488619   3.825599   1.400730   2.793655   3.774578
    13  C    3.762398   2.412094   4.959063   4.186900   4.258661
    14  C    4.276232   2.799563   5.164370   5.007011   3.771613
    15  C    3.770239   4.967770   2.420793   4.188091   4.267233
    16  C    4.262024   5.149985   2.784941   4.989780   3.757942
    17  H    2.708783   2.167242   4.176773   2.511845   4.656824
    18  H    4.650952   4.923153   3.407562   5.723847   2.689216
    19  H    4.655716   3.410186   4.931399   5.729357   2.701940
    20  H    2.707004   4.174692   2.166889   2.504376   4.655430
    21  H    5.362352   3.885664   6.219507   6.075146   4.634496
    22  H    4.644685   5.937005   3.408024   4.855656   5.354502
    23  N    4.843553   3.639661   6.157951   5.008153   5.620588
    24  N    5.623844   6.487336   4.146911   6.318826   4.885961
    25  H    5.733245   4.444300   6.988865   5.969601   6.189809
    26  H    4.904405   3.923076   6.317227   4.823240   6.153922
    27  H    6.196352   6.889391   4.733825   7.007523   4.995338
    28  H    6.153702   7.157696   4.699596   6.699962   5.754740
                    6          7          8          9         10
     6  C    0.000000
     7  O    2.346506   0.000000
     8  C    2.546767   2.348777   0.000000
     9  C    4.304116   4.766193   2.418774   0.000000
    10  C    1.401726   2.787415   3.823799   5.705636   0.000000
    11  C    3.825291   2.794383   1.402006   2.793538   4.971760
    12  C    2.419532   4.764706   4.303469   4.975063   2.798502
    13  C    5.149703   4.987550   2.782286   1.391221   6.515728
    14  C    4.971441   4.189693   2.424678   2.422087   6.222181
    15  C    2.791399   4.993983   5.157816   6.221066   2.420018
    16  C    2.409780   4.176549   4.956547   6.516073   1.390831
    17  H    4.937410   5.728949   3.409285   1.088067   6.322909
    18  H    2.159303   2.482484   4.157464   6.304539   1.086931
    19  H    4.169296   2.500318   2.166048   3.882418   5.093565
    20  H    3.409525   5.726815   4.934479   5.104404   3.887123
    21  H    5.930829   4.842016   3.404223   3.411694   7.116813
    22  H    3.878685   6.059338   6.218470   7.128551   3.402486
    23  N    6.469293   6.331926   4.144173   2.356470   7.848886
    24  N    3.668147   5.061324   6.191759   7.863489   2.401157
    25  H    7.174844   6.758539   4.731001   3.255850   8.525071
    26  H    6.825269   6.984629   4.697046   2.529654   8.225043
    27  H    3.990245   4.928057   6.400894   8.286334   2.601024
    28  H    4.449129   6.011151   6.995303   8.502076   3.288447
                   11         12         13         14         15
    11  C    0.000000
    12  C    5.705331   0.000000
    13  C    2.406998   6.213881   0.000000
    14  C    1.396435   6.531589   1.391589   0.000000
    15  C    6.525104   1.395744   7.379846   7.522360   0.000000
    16  C    6.210001   2.410458   7.498635   7.381220   1.390825
    17  H    3.881530   5.107535   2.149397   3.402709   6.449963
    18  H    5.083178   3.885422   6.935034   6.428874   3.407695
    19  H    1.088890   6.314371   3.392971   2.153624   6.955621
    20  H    6.319536   1.088659   6.440694   6.968630   2.152521
    21  H    2.148101   7.597084   2.165062   1.086178   8.550351
    22  H    7.595524   2.157897   8.342761   8.558208   1.087295
    23  N    3.663763   7.331514   1.362408   2.400656   8.567530
    24  N    7.372309   3.637075   8.807851   8.606551   2.356167
    25  H    3.983994   8.211688   2.041246   2.599665   9.408672
    26  H    4.446021   7.368153   2.041248   3.288316   8.674590
    27  H    7.462058   4.442426   9.115621   8.766490   3.255521
    28  H    8.228391   3.919350   9.527203   9.419618   2.529443
                   16         17         18         19         20
    16  C    0.000000
    17  H    6.955968   0.000000
    18  H    2.160289   7.038246   0.000000
    19  H    6.429533   4.970387   4.969669   0.000000
    20  H    3.394673   5.002226   4.974051   7.044702   0.000000
    21  H    8.332900   4.305137   7.213911   2.465911   8.052939
    22  H    2.151902   7.250972   4.302814   8.042091   2.479861
    23  N    8.783084   2.576802   8.293906   4.548990   7.421984
    24  N    1.362499   8.318325   2.668258   7.465908   4.506787
    25  H    9.536810   3.559967   8.879010   4.703219   8.354649
    26  H    9.040258   2.312122   8.773524   5.401901   7.313092
    27  H    2.041325   8.841122   2.445583   7.411386   5.381400
    28  H    2.041325   8.862243   3.648347   8.380711   4.614329
                   21         22         23         24         25
    21  H    0.000000
    22  H    9.598280   0.000000
    23  N    2.674553   9.484726   0.000000
    24  N    9.516016   2.581782  10.109211   0.000000
    25  H    2.451917  10.354747   0.984501  10.839383   0.000000
    26  H    3.654605   9.523147   0.984503  10.390823   1.705208
    27  H    9.607198   3.564888  10.449891   0.984497  11.119213
    28  H   10.360954   2.317967  10.796980   0.984497  11.567424
                   26         27         28
    26  H    0.000000
    27  H   10.812389   0.000000
    28  H   11.012390   1.705201   0.000000
 Stoichiometry    C14H10N2O2
 Framework group  C1[X(C14H10N2O2)]
 Deg. of freedom    78
 Full point group                 C1      NOp   1
 Largest Abelian subgroup         C1      NOp   1
 Largest concise Abelian subgroup C1      NOp   1
                         Standard orientation:                         
 ---------------------------------------------------------------------
 Center     Atomic      Atomic             Coordinates (Angstroms)
 Number     Number       Type             X           Y           Z
 ---------------------------------------------------------------------
      1          6           0       -0.216718   -1.425524   -0.000032
      2          6           0       -1.365502   -0.497667   -0.000021
      3          6           0        1.153531   -0.873935   -0.000027
      4          8           0       -0.395362   -2.637494   -0.000059
      5          6           0        0.211457    1.432066   -0.000031
      6          6           0        1.360410    0.505731   -0.000012
      7          8           0        0.394068    2.644018   -0.000053
      8          6           0       -1.158478    0.881533   -0.000026
      9          6           0       -2.668845   -1.007715    0.000016
     10          6           0        2.662652    1.024385    0.000013
     11          6           0       -2.255130    1.755017   -0.000014
     12          6           0        2.251471   -1.743746   -0.000008
     13          6           0       -3.749682   -0.131767    0.000030
     14          6           0       -3.555574    1.246218    0.000014
     15          6           0        3.548329   -1.227739    0.000016
     16          6           0        3.743684    0.149297    0.000030
     17          1           0       -2.844887   -2.081447    0.000018
     18          1           0        2.816301    2.100401    0.000020
     19          1           0       -2.099122    2.832674   -0.000016
     20          1           0        2.102200   -2.822123   -0.000016
     21          1           0       -4.395706    1.934666    0.000029
     22          1           0        4.403786   -1.898861    0.000025
     23          7           0       -5.001059   -0.670479    0.000063
     24          7           0        5.027171    0.606531    0.000060
     25          1           0       -5.790321   -0.082000    0.000070
     26          1           0       -5.116063   -1.648241    0.000079
     27          1           0        5.204753    1.574880    0.000066
     28          1           0        5.776993   -0.031437    0.000071
 ---------------------------------------------------------------------
 Rotational constants (GHZ):      1.0505469      0.2654122      0.2118819
 Standard basis: VSTO-6G (5D, 7F)
 There are    82 symmetry adapted cartesian basis functions of A   symmetry.
 There are    82 symmetry adapted basis functions of A   symmetry.
    82 basis functions,   492 primitive gaussians,    82 cartesian basis functions
    44 alpha electrons       44 beta electrons
       nuclear repulsion energy       652.7041208288 Hartrees.
 Integral buffers will be    131072 words long.
 Regular integral format.
 Two-electron integral symmetry is turned off.
 Do NDO integrals.
 One-electron integrals computed using PRISM.
 NBasis=    82 RedAO= F EigKep=  0.00D+00  NBF=    82
 NBsUse=    82 1.00D-04 EigRej=  0.00D+00 NBFU=    82
 Simple Huckel Guess.
 Overlap will be assumed to be unity.
 Keep J ints in memory in canonical form, NReq=936458.
 Requested convergence on RMS density matrix=1.00D-08 within 128 cycles.
 Requested convergence on MAX density matrix=1.00D-06.
 Requested convergence on             energy=1.00D-06.
 No special actions if energy rises.
 SCF Done:  E(RAM1) = -0.665312030537E-02 A.U. after   16 cycles
            NFock= 15  Conv=0.26D-08     -V/T= 0.9999

 **********************************************************************

            Population analysis using the SCF density.

 **********************************************************************

 Orbital symmetries:
       Occupied  (A) (A) (A) (A) (A) (A) (A) (A) (A) (A) (A) (A)
                 (A) (A) (A) (A) (A) (A) (A) (A) (A) (A) (A) (A)
                 (A) (A) (A) (A) (A) (A) (A) (A) (A) (A) (A) (A)
                 (A) (A) (A) (A) (A) (A) (A) (A)
       Virtual   (A) (A) (A) (A) (A) (A) (A) (A) (A) (A) (A) (A)
                 (A) (A) (A) (A) (A) (A) (A) (A) (A) (A) (A) (A)
                 (A) (A) (A) (A) (A) (A) (A) (A) (A) (A) (A) (A)
                 (A) (A)
 The electronic state is 1-A.
 Alpha  occ. eigenvalues --   -1.53340  -1.47531  -1.44743  -1.42568  -1.32169
 Alpha  occ. eigenvalues --   -1.30910  -1.20059  -1.16297  -1.13091  -1.07876
 Alpha  occ. eigenvalues --   -0.96584  -0.92910  -0.86721  -0.84928  -0.79696
 Alpha  occ. eigenvalues --   -0.74803  -0.69969  -0.67700  -0.66132  -0.65076
 Alpha  occ. eigenvalues --   -0.63027  -0.61137  -0.58968  -0.58347  -0.57887
 Alpha  occ. eigenvalues --   -0.54828  -0.54091  -0.53586  -0.53528  -0.53464
 Alpha  occ. eigenvalues --   -0.52908  -0.51237  -0.50925  -0.49295  -0.46240
 Alpha  occ. eigenvalues --   -0.44973  -0.43675  -0.42772  -0.39999  -0.38469
 Alpha  occ. eigenvalues --   -0.36580  -0.36531  -0.32119  -0.31905
 Alpha virt. eigenvalues --   -0.03336  -0.00152   0.01231   0.01365   0.06419
 Alpha virt. eigenvalues --    0.06824   0.09069   0.09299   0.09832   0.10899
 Alpha virt. eigenvalues --    0.11542   0.11936   0.13942   0.14063   0.14214
 Alpha virt. eigenvalues --    0.14463   0.15033   0.15385   0.15637   0.15959
 Alpha virt. eigenvalues --    0.16704   0.17075   0.17727   0.17819   0.18212
 Alpha virt. eigenvalues --    0.18554   0.18761   0.19011   0.19801   0.19812
 Alpha virt. eigenvalues --    0.20676   0.20770   0.22781   0.22834   0.22962
 Alpha virt. eigenvalues --    0.22980   0.24083   0.24844
          Condensed to atoms (all electrons):
               1          2          3          4          5          6
     1  C    3.688434   0.000000   0.000000   0.000000   0.000000   0.000000
     2  C    0.000000   4.049848   0.000000   0.000000   0.000000   0.000000
     3  C    0.000000   0.000000   4.177259   0.000000   0.000000   0.000000
     4  O    0.000000   0.000000   0.000000   6.296393   0.000000   0.000000
     5  C    0.000000   0.000000   0.000000   0.000000   3.688912   0.000000
     6  C    0.000000   0.000000   0.000000   0.000000   0.000000   4.051211
     7  O    0.000000   0.000000   0.000000   0.000000   0.000000   0.000000
     8  C    0.000000   0.000000   0.000000   0.000000   0.000000   0.000000
     9  C    0.000000   0.000000   0.000000   0.000000   0.000000   0.000000
    10  C    0.000000   0.000000   0.000000   0.000000   0.000000   0.000000
    11  C    0.000000   0.000000   0.000000   0.000000   0.000000   0.000000
    12  C    0.000000   0.000000   0.000000   0.000000   0.000000   0.000000
    13  C    0.000000   0.000000   0.000000   0.000000   0.000000   0.000000
    14  C    0.000000   0.000000   0.000000   0.000000   0.000000   0.000000
    15  C    0.000000   0.000000   0.000000   0.000000   0.000000   0.000000
    16  C    0.000000   0.000000   0.000000   0.000000   0.000000   0.000000
    17  H    0.000000   0.000000   0.000000   0.000000   0.000000   0.000000
    18  H    0.000000   0.000000   0.000000   0.000000   0.000000   0.000000
    19  H    0.000000   0.000000   0.000000   0.000000   0.000000   0.000000
    20  H    0.000000   0.000000   0.000000   0.000000   0.000000   0.000000
    21  H    0.000000   0.000000   0.000000   0.000000   0.000000   0.000000
    22  H    0.000000   0.000000   0.000000   0.000000   0.000000   0.000000
    23  N    0.000000   0.000000   0.000000   0.000000   0.000000   0.000000
    24  N    0.000000   0.000000   0.000000   0.000000   0.000000   0.000000
    25  H    0.000000   0.000000   0.000000   0.000000   0.000000   0.000000
    26  H    0.000000   0.000000   0.000000   0.000000   0.000000   0.000000
    27  H    0.000000   0.000000   0.000000   0.000000   0.000000   0.000000
    28  H    0.000000   0.000000   0.000000   0.000000   0.000000   0.000000
               7          8          9         10         11         12
     1  C    0.000000   0.000000   0.000000   0.000000   0.000000   0.000000
     2  C    0.000000   0.000000   0.000000   0.000000   0.000000   0.000000
     3  C    0.000000   0.000000   0.000000   0.000000   0.000000   0.000000
     4  O    0.000000   0.000000   0.000000   0.000000   0.000000   0.000000
     5  C    0.000000   0.000000   0.000000   0.000000   0.000000   0.000000
     6  C    0.000000   0.000000   0.000000   0.000000   0.000000   0.000000
     7  O    6.297306   0.000000   0.000000   0.000000   0.000000   0.000000
     8  C    0.000000   4.178008   0.000000   0.000000   0.000000   0.000000
     9  C    0.000000   0.000000   4.180811   0.000000   0.000000   0.000000
    10  C    0.000000   0.000000   0.000000   4.176204   0.000000   0.000000
    11  C    0.000000   0.000000   0.000000   0.000000   4.029503   0.000000
    12  C    0.000000   0.000000   0.000000   0.000000   0.000000   4.029428
    13  C    0.000000   0.000000   0.000000   0.000000   0.000000   0.000000
    14  C    0.000000   0.000000   0.000000   0.000000   0.000000   0.000000
    15  C    0.000000   0.000000   0.000000   0.000000   0.000000   0.000000
    16  C    0.000000   0.000000   0.000000   0.000000   0.000000   0.000000
    17  H    0.000000   0.000000   0.000000   0.000000   0.000000   0.000000
    18  H    0.000000   0.000000   0.000000   0.000000   0.000000   0.000000
    19  H    0.000000   0.000000   0.000000   0.000000   0.000000   0.000000
    20  H    0.000000   0.000000   0.000000   0.000000   0.000000   0.000000
    21  H    0.000000   0.000000   0.000000   0.000000   0.000000   0.000000
    22  H    0.000000   0.000000   0.000000   0.000000   0.000000   0.000000
    23  N    0.000000   0.000000   0.000000   0.000000   0.000000   0.000000
    24  N    0.000000   0.000000   0.000000   0.000000   0.000000   0.000000
    25  H    0.000000   0.000000   0.000000   0.000000   0.000000   0.000000
    26  H    0.000000   0.000000   0.000000   0.000000   0.000000   0.000000
    27  H    0.000000   0.000000   0.000000   0.000000   0.000000   0.000000
    28  H    0.000000   0.000000   0.000000   0.000000   0.000000   0.000000
              13         14         15         16         17         18
     1  C    0.000000   0.000000   0.000000   0.000000   0.000000   0.000000
     2  C    0.000000   0.000000   0.000000   0.000000   0.000000   0.000000
     3  C    0.000000   0.000000   0.000000   0.000000   0.000000   0.000000
     4  O    0.000000   0.000000   0.000000   0.000000   0.000000   0.000000
     5  C    0.000000   0.000000   0.000000   0.000000   0.000000   0.000000
     6  C    0.000000   0.000000   0.000000   0.000000   0.000000   0.000000
     7  O    0.000000   0.000000   0.000000   0.000000   0.000000   0.000000
     8  C    0.000000   0.000000   0.000000   0.000000   0.000000   0.000000
     9  C    0.000000   0.000000   0.000000   0.000000   0.000000   0.000000
    10  C    0.000000   0.000000   0.000000   0.000000   0.000000   0.000000
    11  C    0.000000   0.000000   0.000000   0.000000   0.000000   0.000000
    12  C    0.000000   0.000000   0.000000   0.000000   0.000000   0.000000
    13  C    3.860654   0.000000   0.000000   0.000000   0.000000   0.000000
    14  C    0.000000   4.216229   0.000000   0.000000   0.000000   0.000000
    15  C    0.000000   0.000000   4.220620   0.000000   0.000000   0.000000
    16  C    0.000000   0.000000   0.000000   3.861054   0.000000   0.000000
    17  H    0.000000   0.000000   0.000000   0.000000   0.844645   0.000000
    18  H    0.000000   0.000000   0.000000   0.000000   0.000000   0.842837
    19  H    0.000000   0.000000   0.000000   0.000000   0.000000   0.000000
    20  H    0.000000   0.000000   0.000000   0.000000   0.000000   0.000000
    21  H    0.000000   0.000000   0.000000   0.000000   0.000000   0.000000
    22  H    0.000000   0.000000   0.000000   0.000000   0.000000   0.000000
    23  N    0.000000   0.000000   0.000000   0.000000   0.000000   0.000000
    24  N    0.000000   0.000000   0.000000   0.000000   0.000000   0.000000
    25  H    0.000000   0.000000   0.000000   0.000000   0.000000   0.000000
    26  H    0.000000   0.000000   0.000000   0.000000   0.000000   0.000000
    27  H    0.000000   0.000000   0.000000   0.000000   0.000000   0.000000
    28  H    0.000000   0.000000   0.000000   0.000000   0.000000   0.000000
              19         20         21         22         23         24
     1  C    0.000000   0.000000   0.000000   0.000000   0.000000   0.000000
     2  C    0.000000   0.000000   0.000000   0.000000   0.000000   0.000000
     3  C    0.000000   0.000000   0.000000   0.000000   0.000000   0.000000
     4  O    0.000000   0.000000   0.000000   0.000000   0.000000   0.000000
     5  C    0.000000   0.000000   0.000000   0.000000   0.000000   0.000000
     6  C    0.000000   0.000000   0.000000   0.000000   0.000000   0.000000
     7  O    0.000000   0.000000   0.000000   0.000000   0.000000   0.000000
     8  C    0.000000   0.000000   0.000000   0.000000   0.000000   0.000000
     9  C    0.000000   0.000000   0.000000   0.000000   0.000000   0.000000
    10  C    0.000000   0.000000   0.000000   0.000000   0.000000   0.000000
    11  C    0.000000   0.000000   0.000000   0.000000   0.000000   0.000000
    12  C    0.000000   0.000000   0.000000   0.000000   0.000000   0.000000
    13  C    0.000000   0.000000   0.000000   0.000000   0.000000   0.000000
    14  C    0.000000   0.000000   0.000000   0.000000   0.000000   0.000000
    15  C    0.000000   0.000000   0.000000   0.000000   0.000000   0.000000
    16  C    0.000000   0.000000   0.000000   0.000000   0.000000   0.000000
    17  H    0.000000   0.000000   0.000000   0.000000   0.000000   0.000000
    18  H    0.000000   0.000000   0.000000   0.000000   0.000000   0.000000
    19  H    0.844932   0.000000   0.000000   0.000000   0.000000   0.000000
    20  H    0.000000   0.845460   0.000000   0.000000   0.000000   0.000000
    21  H    0.000000   0.000000   0.862045   0.000000   0.000000   0.000000
    22  H    0.000000   0.000000   0.000000   0.863527   0.000000   0.000000
    23  N    0.000000   0.000000   0.000000   0.000000   5.401278   0.000000
    24  N    0.000000   0.000000   0.000000   0.000000   0.000000   5.401501
    25  H    0.000000   0.000000   0.000000   0.000000   0.000000   0.000000
    26  H    0.000000   0.000000   0.000000   0.000000   0.000000   0.000000
    27  H    0.000000   0.000000   0.000000   0.000000   0.000000   0.000000
    28  H    0.000000   0.000000   0.000000   0.000000   0.000000   0.000000
              25         26         27         28
     1  C    0.000000   0.000000   0.000000   0.000000
     2  C    0.000000   0.000000   0.000000   0.000000
     3  C    0.000000   0.000000   0.000000   0.000000
     4  O    0.000000   0.000000   0.000000   0.000000
     5  C    0.000000   0.000000   0.000000   0.000000
     6  C    0.000000   0.000000   0.000000   0.000000
     7  O    0.000000   0.000000   0.000000   0.000000
     8  C    0.000000   0.000000   0.000000   0.000000
     9  C    0.000000   0.000000   0.000000   0.000000
    10  C    0.000000   0.000000   0.000000   0.000000
    11  C    0.000000   0.000000   0.000000   0.000000
    12  C    0.000000   0.000000   0.000000   0.000000
    13  C    0.000000   0.000000   0.000000   0.000000
    14  C    0.000000   0.000000   0.000000   0.000000
    15  C    0.000000   0.000000   0.000000   0.000000
    16  C    0.000000   0.000000   0.000000   0.000000
    17  H    0.000000   0.000000   0.000000   0.000000
    18  H    0.000000   0.000000   0.000000   0.000000
    19  H    0.000000   0.000000   0.000000   0.000000
    20  H    0.000000   0.000000   0.000000   0.000000
    21  H    0.000000   0.000000   0.000000   0.000000
    22  H    0.000000   0.000000   0.000000   0.000000
    23  N    0.000000   0.000000   0.000000   0.000000
    24  N    0.000000   0.000000   0.000000   0.000000
    25  H    0.775629   0.000000   0.000000   0.000000
    26  H    0.000000   0.770176   0.000000   0.000000
    27  H    0.000000   0.000000   0.773816   0.000000
    28  H    0.000000   0.000000   0.000000   0.772278
 Mulliken charges:
               1
     1  C    0.311566
     2  C   -0.049848
     3  C   -0.177259
     4  O   -0.296393
     5  C    0.311088
     6  C   -0.051211
     7  O   -0.297306
     8  C   -0.178008
     9  C   -0.180811
    10  C   -0.176204
    11  C   -0.029503
    12  C   -0.029428
    13  C    0.139346
    14  C   -0.216229
    15  C   -0.220620
    16  C    0.138946
    17  H    0.155355
    18  H    0.157163
    19  H    0.155068
    20  H    0.154540
    21  H    0.137955
    22  H    0.136473
    23  N   -0.401278
    24  N   -0.401501
    25  H    0.224371
    26  H    0.229824
    27  H    0.226184
    28  H    0.227722
 Sum of Mulliken charges =   0.00000
 Mulliken charges with hydrogens summed into heavy atoms:
               1
     1  C    0.311566
     2  C   -0.049848
     3  C   -0.177259
     4  O   -0.296393
     5  C    0.311088
     6  C   -0.051211
     7  O   -0.297306
     8  C   -0.178008
     9  C   -0.025456
    10  C   -0.019042
    11  C    0.125565
    12  C    0.125112
    13  C    0.139346
    14  C   -0.078275
    15  C   -0.084147
    16  C    0.138946
    23  N    0.052917
    24  N    0.052405
 Charge=              0.0000 electrons
 Dipole moment (field-independent basis, Debye):
    X=             -0.0015    Y=             -0.0609    Z=              0.0002  Tot=              0.0610
 N-N= 6.527041208288D+02 E-N=-1.178139904077D+03  KE=-6.208978173107D+01
 Calling FoFJK, ICntrl=      2127 FMM=F ISym2X=0 I1Cent= 0 IOpClX= 0 NMat=1 NMatS=1 NMatT=0.
 ***** Axes restored to original set *****
 -------------------------------------------------------------------
 Center     Atomic                   Forces (Hartrees/Bohr)
 Number     Number              X              Y              Z
 -------------------------------------------------------------------
      1        6          -0.006909268   -0.020456943   -0.000006858
      2        6           0.006616690    0.006610817    0.000004219
      3        6           0.007211490    0.006200272    0.000004175
      4        8           0.001065762    0.037925617    0.000008204
      5        6           0.006803846    0.018946271    0.000003718
      6        6          -0.007745626   -0.005438383   -0.000001813
      7        8          -0.000261981   -0.037260200   -0.000008536
      8        6          -0.006172206   -0.008393494   -0.000001637
      9        6          -0.040999021   -0.001061270   -0.000003672
     10        6           0.035190824    0.000604423    0.000000328
     11        6           0.006461643    0.013207748    0.000003682
     12        6          -0.008576779   -0.011929469   -0.000003397
     13        6           0.018848441    0.010888759    0.000003409
     14        6          -0.018541136   -0.030161772   -0.000007332
     15        6           0.022641103    0.036241822    0.000007697
     16        6          -0.021321380   -0.006774270   -0.000001567
     17        1          -0.005613809    0.010707199    0.000002631
     18        1           0.002660869   -0.010809645   -0.000002279
     19        1          -0.001904833   -0.009049312   -0.000002383
     20        1           0.002110618    0.009200883    0.000001973
     21        1           0.008490746   -0.005277785   -0.000001123
     22        1          -0.006840524    0.008035890    0.000001760
     23        7           0.025446913    0.006645133    0.000002509
     24        7          -0.018464665   -0.019032190   -0.000003889
     25        1           0.002270219    0.000582490    0.000000253
     26        1           0.001652091    0.002238959    0.000000515
     27        1          -0.001687257   -0.001951662   -0.000000430
     28        1          -0.002432770   -0.000439887   -0.000000157
 -------------------------------------------------------------------
 Cartesian Forces:  Max     0.040999021 RMS     0.012705036

 GradGradGradGradGradGradGradGradGradGradGradGradGradGradGradGradGradGrad
 Berny optimization.
 FormGI is forming the generalized inverse of G from B-inverse, IUseBI=4.
 Internal  Forces:  Max     0.041728971 RMS     0.009449332
 Search for a local minimum.
 Step number   1 out of a maximum of  160
 All quantities printed in internal units (Hartrees-Bohrs-Radians)
 Mixed Optimization -- RFO/linear search
 Second derivative matrix not updated -- first step.
 ITU=  0
     Eigenvalues ---    0.01072   0.01077   0.01082   0.01560   0.01646
     Eigenvalues ---    0.01773   0.01813   0.01889   0.01924   0.02098
     Eigenvalues ---    0.02111   0.02116   0.02117   0.02135   0.02145
     Eigenvalues ---    0.02168   0.02177   0.02183   0.02187   0.02188
     Eigenvalues ---    0.02188   0.02189   0.02189   0.02200   0.02206
     Eigenvalues ---    0.16000   0.16000   0.16000   0.16000   0.16000
     Eigenvalues ---    0.16000   0.16000   0.16000   0.16000   0.16000
     Eigenvalues ---    0.22429   0.22456   0.23513   0.23530   0.24611
     Eigenvalues ---    0.24636   0.25000   0.25000   0.25000   0.25000
     Eigenvalues ---    0.25000   0.25000   0.25000   0.33250   0.33977
     Eigenvalues ---    0.34941   0.34944   0.34968   0.35000   0.35037
     Eigenvalues ---    0.35127   0.35170   0.35258   0.40245   0.41830
     Eigenvalues ---    0.41847   0.42265   0.45121   0.45696   0.45964
     Eigenvalues ---    0.46031   0.46360   0.46724   0.46926   0.47018
     Eigenvalues ---    0.50520   0.50521   0.50521   0.50521   0.52446
     Eigenvalues ---    0.52464   0.92931   0.93174
 RFO step:  Lambda=-2.73326662D-02 EMin= 1.07154879D-02
 Linear search not attempted -- first point.
 Iteration  1 RMS(Cart)=  0.04530423 RMS(Int)=  0.00050961
 Iteration  2 RMS(Cart)=  0.00081325 RMS(Int)=  0.00008151
 Iteration  3 RMS(Cart)=  0.00000052 RMS(Int)=  0.00008151
 Variable       Old X    -DE/DX   Delta X   Delta X   Delta X     New X
                                 (Linear)    (Quad)   (Total)
    R1        2.79055   0.00608   0.00000   0.01618   0.01618   2.80672
    R2        2.79132  -0.00045   0.00000  -0.00127  -0.00127   2.79005
    R3        2.31504   0.03793   0.00000   0.03955   0.03955   2.35458
    R4        2.63551   0.01455   0.00000   0.02727   0.02710   2.66261
    R5        2.64484  -0.00551   0.00000  -0.01069  -0.01072   2.63412
    R6        2.63634   0.01402   0.00000   0.02571   0.02555   2.66189
    R7        2.64700   0.00226   0.00000   0.00188   0.00173   2.64873
    R8        2.78899   0.00749   0.00000   0.01978   0.01979   2.80878
    R9        2.31611   0.03726   0.00000   0.03895   0.03895   2.35506
   R10        2.79002  -0.00035   0.00000  -0.00086  -0.00085   2.78917
   R11        2.64888  -0.00619   0.00000  -0.01287  -0.01288   2.63600
   R12        2.64941   0.00058   0.00000  -0.00190  -0.00205   2.64736
   R13        2.62903   0.04173   0.00000   0.08672   0.08686   2.71589
   R14        2.05615   0.01060   0.00000   0.02806   0.02806   2.08421
   R15        2.62829   0.03429   0.00000   0.07142   0.07157   2.69986
   R16        2.05400   0.01081   0.00000   0.02853   0.02853   2.08253
   R17        2.63888  -0.00452   0.00000  -0.00991  -0.00989   2.62899
   R18        2.05770   0.00905   0.00000   0.02402   0.02402   2.08173
   R19        2.63757  -0.00519   0.00000  -0.01058  -0.01058   2.62700
   R20        2.05727   0.00919   0.00000   0.02437   0.02437   2.08164
   R21        2.62972   0.03217   0.00000   0.06698   0.06715   2.69687
   R22        2.57458   0.02999   0.00000   0.05433   0.05433   2.62890
   R23        2.05258   0.01000   0.00000   0.02631   0.02631   2.07889
   R24        2.62828   0.04104   0.00000   0.08492   0.08508   2.71335
   R25        2.05469   0.00994   0.00000   0.02624   0.02624   2.08093
   R26        2.57475   0.02997   0.00000   0.05432   0.05432   2.62907
   R27        1.86044   0.00172   0.00000   0.00323   0.00323   1.86366
   R28        1.86044   0.00219   0.00000   0.00412   0.00412   1.86456
   R29        1.86043   0.00201   0.00000   0.00378   0.00378   1.86421
   R30        1.86043   0.00182   0.00000   0.00343   0.00343   1.86386
    A1        2.07948  -0.00828   0.00000  -0.03257  -0.03267   2.04681
    A2        2.10386   0.00303   0.00000   0.01229   0.01234   2.11621
    A3        2.09984   0.00525   0.00000   0.02028   0.02033   2.12017
    A4        2.10121   0.00431   0.00000   0.01517   0.01518   2.11640
    A5        2.08917  -0.00717   0.00000  -0.02253  -0.02238   2.06679
    A6        2.09281   0.00286   0.00000   0.00736   0.00719   2.10000
    A7        2.10234   0.00423   0.00000   0.01789   0.01795   2.12029
    A8        2.08891  -0.00667   0.00000  -0.01701  -0.01680   2.07211
    A9        2.09194   0.00244   0.00000  -0.00088  -0.00115   2.09079
   A10        2.09978   0.00433   0.00000   0.01695   0.01698   2.11676
   A11        2.08094  -0.00874   0.00000  -0.03419  -0.03426   2.04668
   A12        2.10246   0.00441   0.00000   0.01724   0.01728   2.11974
   A13        2.10049   0.00425   0.00000   0.01548   0.01549   2.11598
   A14        2.09866   0.00251   0.00000   0.00437   0.00423   2.10289
   A15        2.08404  -0.00676   0.00000  -0.01985  -0.01972   2.06431
   A16        2.10190   0.00423   0.00000   0.01822   0.01831   2.12021
   A17        2.09441   0.00175   0.00000  -0.00332  -0.00361   2.09080
   A18        2.08687  -0.00598   0.00000  -0.01490  -0.01470   2.07218
   A19        2.08750   0.00164   0.00000   0.01281   0.01291   2.10041
   A20        2.10632  -0.00680   0.00000  -0.03833  -0.03838   2.06795
   A21        2.08936   0.00516   0.00000   0.02552   0.02547   2.11483
   A22        2.08207   0.00350   0.00000   0.01839   0.01851   2.10058
   A23        2.09165  -0.00447   0.00000  -0.02368  -0.02375   2.06791
   A24        2.10946   0.00096   0.00000   0.00530   0.00524   2.11470
   A25        2.09605   0.00632   0.00000   0.01676   0.01663   2.11268
   A26        2.09963  -0.00512   0.00000  -0.01883  -0.01876   2.08087
   A27        2.08750  -0.00120   0.00000   0.00207   0.00213   2.08964
   A28        2.09293   0.00591   0.00000   0.01693   0.01678   2.10971
   A29        2.10323  -0.00518   0.00000  -0.02035  -0.02028   2.08295
   A30        2.08703  -0.00073   0.00000   0.00342   0.00350   2.09053
   A31        2.11193  -0.01546   0.00000  -0.04733  -0.04703   2.06490
   A32        2.05400   0.01721   0.00000   0.05784   0.05769   2.11170
   A33        2.11726  -0.00175   0.00000  -0.01051  -0.01067   2.10659
   A34        2.08368   0.00288   0.00000   0.01372   0.01390   2.09758
   A35        2.08216  -0.00158   0.00000  -0.00758  -0.00767   2.07449
   A36        2.11734  -0.00131   0.00000  -0.00614  -0.00623   2.11111
   A37        2.09041   0.00073   0.00000   0.00702   0.00717   2.09758
   A38        2.09768  -0.00402   0.00000  -0.02302  -0.02309   2.07459
   A39        2.09510   0.00329   0.00000   0.01600   0.01592   2.11102
   A40        2.11037  -0.01508   0.00000  -0.04583  -0.04554   2.06483
   A41        2.11886  -0.00333   0.00000  -0.01628  -0.01643   2.10244
   A42        2.05395   0.01841   0.00000   0.06211   0.06196   2.11591
   A43        2.09439   0.00092   0.00000   0.00490   0.00490   2.09929
   A44        2.09439   0.00113   0.00000   0.00605   0.00605   2.10044
   A45        2.09440  -0.00205   0.00000  -0.01094  -0.01094   2.08345
   A46        2.09439   0.00097   0.00000   0.00515   0.00515   2.09955
   A47        2.09439   0.00107   0.00000   0.00570   0.00570   2.10010
   A48        2.09440  -0.00203   0.00000  -0.01086  -0.01086   2.08354
    D1        0.00002   0.00000   0.00000   0.00001   0.00001   0.00003
    D2       -3.14156  -0.00000   0.00000  -0.00000  -0.00000  -3.14156
    D3       -3.14156  -0.00000   0.00000  -0.00001  -0.00001  -3.14157
    D4        0.00005  -0.00000   0.00000  -0.00002  -0.00002   0.00003
    D5       -0.00000  -0.00000   0.00000  -0.00001  -0.00001  -0.00002
    D6        3.14157  -0.00000   0.00000  -0.00000  -0.00000   3.14157
    D7        3.14158  -0.00000   0.00000   0.00000   0.00000   3.14158
    D8       -0.00004   0.00000   0.00000   0.00001   0.00001  -0.00002
    D9       -0.00001   0.00000   0.00000  -0.00000  -0.00000  -0.00001
   D10       -3.14159  -0.00000   0.00000  -0.00000  -0.00000   3.14159
   D11        3.14157   0.00000   0.00000   0.00001   0.00001   3.14158
   D12       -0.00002   0.00000   0.00000   0.00001   0.00001  -0.00001
   D13        3.14159   0.00000   0.00000   0.00000   0.00000  -3.14159
   D14       -0.00002   0.00000   0.00000   0.00001   0.00001  -0.00001
   D15        0.00001  -0.00000   0.00000  -0.00001  -0.00001   0.00001
   D16        3.14159   0.00000   0.00000   0.00000   0.00000   3.14159
   D17       -0.00002   0.00000   0.00000   0.00001   0.00001  -0.00002
   D18        3.14158   0.00000   0.00000   0.00001   0.00001   3.14158
   D19       -3.14159  -0.00000   0.00000  -0.00000  -0.00000   3.14159
   D20        0.00001  -0.00000   0.00000  -0.00001  -0.00001   0.00000
   D21       -3.14158  -0.00000   0.00000  -0.00001  -0.00001  -3.14158
   D22        0.00002  -0.00000   0.00000  -0.00001  -0.00001   0.00001
   D23       -0.00001   0.00000   0.00000   0.00001   0.00001  -0.00000
   D24        3.14159   0.00000   0.00000   0.00000   0.00000  -3.14159
   D25       -3.14156  -0.00000   0.00000  -0.00001  -0.00001  -3.14156
   D26        0.00003  -0.00000   0.00000  -0.00000  -0.00000   0.00002
   D27        0.00003   0.00000   0.00000   0.00000   0.00000   0.00003
   D28       -3.14157   0.00000   0.00000   0.00000   0.00000  -3.14156
   D29       -0.00001  -0.00000   0.00000  -0.00001  -0.00001  -0.00002
   D30        3.14157  -0.00000   0.00000  -0.00000  -0.00000   3.14157
   D31        3.14158  -0.00000   0.00000   0.00000   0.00000   3.14158
   D32       -0.00003   0.00000   0.00000   0.00001   0.00001  -0.00002
   D33       -0.00001   0.00000   0.00000   0.00000   0.00000  -0.00000
   D34        3.14159   0.00000   0.00000   0.00000   0.00000   3.14159
   D35       -3.14159   0.00000   0.00000   0.00000   0.00000  -3.14159
   D36        0.00000  -0.00000   0.00000  -0.00000  -0.00000   0.00000
   D37        0.00001  -0.00000   0.00000  -0.00000  -0.00000   0.00001
   D38        3.14159   0.00000   0.00000   0.00000   0.00000  -3.14159
   D39       -3.14157  -0.00000   0.00000  -0.00001  -0.00001  -3.14158
   D40        0.00001  -0.00000   0.00000  -0.00000  -0.00000   0.00001
   D41       -0.00001   0.00000   0.00000   0.00000   0.00000  -0.00000
   D42        3.14159   0.00000   0.00000   0.00000   0.00000  -3.14159
   D43       -3.14158  -0.00000   0.00000  -0.00000  -0.00000  -3.14158
   D44        0.00001  -0.00000   0.00000  -0.00000  -0.00000   0.00001
   D45        0.00000  -0.00000   0.00000  -0.00000  -0.00000   0.00000
   D46       -3.14159  -0.00000   0.00000  -0.00000  -0.00000  -3.14159
   D47       -3.14159   0.00000   0.00000   0.00000   0.00000  -3.14159
   D48        0.00000  -0.00000   0.00000   0.00000   0.00000   0.00000
   D49        0.00000  -0.00000   0.00000  -0.00000  -0.00000  -0.00000
   D50        3.14159   0.00000   0.00000   0.00000   0.00000   3.14159
   D51       -3.14158  -0.00000   0.00000  -0.00001  -0.00001  -3.14159
   D52        0.00000  -0.00000   0.00000  -0.00000  -0.00000   0.00000
   D53        0.00001  -0.00000   0.00000  -0.00000  -0.00000   0.00000
   D54       -3.14159  -0.00000   0.00000  -0.00000  -0.00000  -3.14159
   D55       -3.14159  -0.00000   0.00000  -0.00000  -0.00000  -3.14159
   D56        0.00000  -0.00000   0.00000  -0.00000  -0.00000   0.00000
   D57       -0.00000   0.00000   0.00000   0.00000   0.00000  -0.00000
   D58       -3.14159  -0.00000   0.00000  -0.00000  -0.00000  -3.14159
   D59        3.14159   0.00000   0.00000   0.00000   0.00000   3.14159
   D60        0.00000  -0.00000   0.00000  -0.00000  -0.00000  -0.00000
   D61       -3.14159   0.00000   0.00000   0.00000   0.00000  -3.14159
   D62        0.00000  -0.00000   0.00000  -0.00000  -0.00000   0.00000
   D63        0.00001  -0.00000   0.00000  -0.00000  -0.00000   0.00001
   D64       -3.14159  -0.00000   0.00000  -0.00000  -0.00000  -3.14159
   D65       -0.00001   0.00000   0.00000   0.00000   0.00000  -0.00000
   D66        3.14159   0.00000   0.00000   0.00000   0.00000   3.14159
   D67        3.14159   0.00000   0.00000   0.00000   0.00000   3.14159
   D68       -0.00001   0.00000   0.00000   0.00000   0.00000  -0.00000
   D69       -0.00001  -0.00000   0.00000   0.00000   0.00000  -0.00001
   D70       -3.14159   0.00000   0.00000   0.00000   0.00000  -3.14159
   D71        3.14159  -0.00000   0.00000  -0.00000  -0.00000   3.14159
   D72        0.00000   0.00000   0.00000   0.00000   0.00000   0.00000
         Item               Value     Threshold  Converged?
 Maximum Force            0.041729     0.000450     NO 
 RMS     Force            0.009449     0.000300     NO 
 Maximum Displacement     0.230015     0.001800     NO 
 RMS     Displacement     0.045393     0.001200     NO 
 Predicted change in Energy=-1.453257D-02
 GradGradGradGradGradGradGradGradGradGradGradGradGradGradGradGradGradGrad

                          Input orientation:                          
 ---------------------------------------------------------------------
 Center     Atomic      Atomic             Coordinates (Angstroms)
 Number     Number       Type             X           Y           Z
 ---------------------------------------------------------------------
      1          6           0       -0.005046    1.487286    0.000285
      2          6           0        1.260370    0.709662    0.000157
      3          6           0       -1.268533    0.723451    0.000108
      4          8           0        0.001954    2.733259    0.000535
      5          6           0       -0.010188   -1.463198   -0.000357
      6          6           0       -1.276612   -0.685137   -0.000189
      7          8           0       -0.016363   -2.709427   -0.000650
      8          6           0        1.252725   -0.699309   -0.000156
      9          6           0        2.467414    1.406838    0.000361
     10          6           0       -2.482714   -1.385920   -0.000340
     11          6           0        2.464677   -1.401989   -0.000273
     12          6           0       -2.480901    1.426855    0.000255
     13          6           0        3.716484    0.695973    0.000247
     14          6           0        3.683238   -0.730760   -0.000078
     15          6           0       -3.696741    0.752880    0.000110
     16          6           0       -3.726344   -0.682660   -0.000191
     17          1           0        2.438047    2.509363    0.000602
     18          1           0       -2.450490   -2.487478   -0.000575
     19          1           0        2.447765   -2.503461   -0.000519
     20          1           0       -2.465950    2.528309    0.000488
     21          1           0        4.613187   -1.318483   -0.000176
     22          1           0       -4.629227    1.338602    0.000229
     23          7           0        4.928909    1.378131    0.000448
     24          7           0       -4.930573   -1.379362   -0.000336
     25          1           0        5.779911    0.879734    0.000363
     26          1           0        4.945829    2.364669    0.000675
     27          1           0       -4.934769   -2.365852   -0.000548
     28          1           0       -5.787979   -0.891855   -0.000234
 ---------------------------------------------------------------------
                    Distance matrix (angstroms):
                    1          2          3          4          5
     1  C    0.000000
     2  C    1.485253   0.000000
     3  C    1.476429   2.528941   0.000000
     4  O    1.245993   2.382971   2.377702   0.000000
     5  C    2.950488   2.517069   2.522868   4.196474   0.000000
     6  C    2.517201   2.895124   1.408611   3.649680   1.486340
     7  O    4.196728   3.649688   3.654118   5.442716   1.246244
     8  C    2.522536   1.408992   2.894993   3.653348   1.475965
     9  C    2.473769   1.393919   3.797936   2.799622   3.791519
    10  C    3.793962   4.289772   2.433861   4.810531   2.473734
    11  C    3.800980   2.430932   4.295853   4.813032   2.475622
    12  C    2.476592   3.809393   1.401646   2.805577   3.802213
    13  C    3.804729   2.456152   4.985092   4.236539   4.306983
    14  C    4.303855   2.818706   5.160888   5.054827   3.765350
    15  C    3.764035   4.957299   2.428386   4.195503   4.301357
    16  C    4.307752   5.177440   2.831605   5.056551   3.797244
    17  H    2.648273   2.150778   4.114392   2.446360   4.666379
    18  H    4.666791   4.898182   3.421562   5.768065   2.646550
    19  H    4.684266   3.425503   4.921771   5.779725   2.669022
    20  H    2.672036   4.146437   2.165946   2.476400   4.686459
    21  H    5.403742   3.918515   6.226084   6.138410   4.625639
    22  H    4.626570   5.923083   3.416529   4.836621   5.402370
    23  N    4.935162   3.728944   6.231925   5.109917   5.698054
    24  N    5.698990   6.533896   4.222838   6.422109   4.921099
    25  H    5.816774   4.522740   7.050176   6.067977   6.246165
    26  H    5.028018   4.040006   6.427432   4.957595   6.262161
    27  H    6.256903   6.916541   4.794276   7.097335   5.006624
    28  H    6.253209   7.228007   4.799438   6.831163   5.805972
                    6          7          8          9         10
     6  C    0.000000
     7  O    2.384528   0.000000
     8  C    2.529376   2.377216   0.000000
     9  C    4.288833   4.807576   2.431322   0.000000
    10  C    1.394912   2.799028   3.798018   5.683596   0.000000
    11  C    3.809346   2.804453   1.400924   2.808829   4.947417
    12  C    2.431218   4.814849   4.296572   4.948355   2.812775
    13  C    5.180586   5.052811   2.831417   1.437187   6.539444
    14  C    4.960060   4.195494   2.430717   2.459178   6.200661
    15  C    2.815123   5.052993   5.158106   6.198747   2.459334
    16  C    2.449734   4.227499   4.979097   6.536715   1.428703
    17  H    4.899339   5.767140   3.420610   1.102916   6.275916
    18  H    2.150912   2.444224   4.112341   6.273076   1.102029
    19  H    4.144548   2.472721   2.164043   3.910349   5.055543
    20  H    3.426480   5.782244   4.924029   5.059227   3.914265
    21  H    5.923754   4.833990   3.417028   3.468677   7.096222
    22  H    3.916063   6.137185   6.224985   7.096969   3.468506
    23  N    6.539538   6.415906   4.222569   2.461662   7.910255
    24  N    3.719325   5.091024   6.220582   7.905259   2.447868
    25  H    7.227955   6.817542   4.794663   3.354173   8.567623
    26  H    6.929652   7.097168   4.798644   2.657062   8.321668
    27  H    4.025781   4.930391   6.407998   8.308159   2.640614
    28  H    4.516101   6.051043   7.043337   8.569452   3.341987
                   11         12         13         14         15
    11  C    0.000000
    12  C    5.697464   0.000000
    13  C    2.443045   6.240333   0.000000
    14  C    1.391201   6.530843   1.427120   0.000000
    15  C    6.527368   1.390147   7.413443   7.527634   0.000000
    16  C    6.232671   2.449731   7.569433   7.409739   1.435845
    17  H    3.911444   5.036653   2.218735   3.471153   6.381289
    18  H    5.033602   3.914451   6.940168   6.380335   3.471751
    19  H    1.101602   6.303898   3.441806   2.160755   6.954042
    20  H    6.305421   1.101556   6.448251   6.959457   2.160323
    21  H    2.150132   7.606771   2.205020   1.100102   8.564195
    22  H    7.604887   2.150138   8.370415   8.566173   1.101182
    23  N    3.715038   7.409970   1.391155   2.449309   8.648281
    24  N    7.395285   3.725017   8.892615   8.638196   2.463493
    25  H    4.024555   8.278910   2.071594   2.643810   9.477501
    26  H    4.510414   7.485707   2.072640   3.343025   8.791579
    27  H    7.461959   4.517311   9.177088   8.771748   3.355474
    28  H    8.268408   4.038958   9.636183   9.472587   2.660532
                   16         17         18         19         20
    16  C    0.000000
    17  H    6.941811   0.000000
    18  H    2.210243   6.990438   0.000000
    19  H    6.436998   5.012834   4.898281   0.000000
    20  H    3.449480   4.904034   5.015811   7.033015   0.000000
    21  H    8.363735   4.402686   7.159755   2.468446   8.056798
    22  H    2.213751   7.163591   4.402929   8.052655   2.468839
    23  N    8.897205   2.735704   8.330574   4.606825   7.483772
    24  N    1.391244   8.331792   2.716382   7.463475   4.619985
    25  H    9.633793   3.718030   8.892560   4.748601   8.409045
    26  H    9.191996   2.511952   8.845839   5.471656   7.413585
    27  H    2.072059   8.838899   2.487254   7.383816   5.481594
    28  H    2.072221   8.901449   3.699304   8.391946   4.767955
                   21         22         23         24         25
    21  H    0.000000
    22  H    9.616773   0.000000
    23  N    2.715034   9.558217   0.000000
    24  N    9.543954   2.734619  10.237829   0.000000
    25  H    2.488655  10.419247   0.986207  10.946140   0.000000
    26  H    3.698143   9.629875   0.986683  10.562248   1.703152
    27  H    9.605230   3.717033  10.550334   0.986499  11.195454
    28  H   10.409912   2.513493  10.954658   0.986311  11.702761
                   26         27         28
    26  H    0.000000
    27  H   10.954635   0.000000
    28  H   11.216933   1.703125   0.000000
 Stoichiometry    C14H10N2O2
 Framework group  C1[X(C14H10N2O2)]
 Deg. of freedom    78
 Full point group                 C1      NOp   1
 Largest Abelian subgroup         C1      NOp   1
 Largest concise Abelian subgroup C1      NOp   1
                         Standard orientation:                         
 ---------------------------------------------------------------------
 Center     Atomic      Atomic             Coordinates (Angstroms)
 Number     Number       Type             X           Y           Z
 ---------------------------------------------------------------------
      1          6           0       -0.217817   -1.461797   -0.000036
      2          6           0       -1.355633   -0.507149   -0.000018
      3          6           0        1.143954   -0.891342   -0.000023
      4          8           0       -0.407312   -2.693296   -0.000057
      5          6           0        0.219595    1.456087   -0.000034
      6          6           0        1.358343    0.500859   -0.000013
      7          8           0        0.408311    2.687960   -0.000056
      8          6           0       -1.141617    0.885495   -0.000023
      9          6           0       -2.651804   -1.019935    0.000013
     10          6           0        2.654111    1.017351    0.000011
     11          6           0       -2.237526    1.758175   -0.000009
     12          6           0        2.240169   -1.764799   -0.000006
     13          6           0       -3.783231   -0.133720    0.000030
     14          6           0       -3.541288    1.272743    0.000017
     15          6           0        3.541642   -1.276252    0.000018
     16          6           0        3.781272    0.139455    0.000030
     17          1           0       -2.784304   -2.114863    0.000014
     18          1           0        2.783643    2.111741    0.000015
     19          1           0       -2.059401    2.845280   -0.000015
     20          1           0        2.063987   -2.852174   -0.000014
     21          1           0       -4.375083    1.990385    0.000030
     22          1           0        4.378239   -1.992287    0.000027
     23          7           0       -5.082524   -0.630861    0.000060
     24          7           0        5.074588    0.652186    0.000059
     25          1           0       -5.851313   -0.013149    0.000068
     26          1           0       -5.243816   -1.604272    0.000072
     27          1           0        5.223287    1.627414    0.000062
     28          1           0        5.851307    0.044307    0.000070
 ---------------------------------------------------------------------
 Rotational constants (GHZ):      1.0175453      0.2625474      0.2086988
 Standard basis: VSTO-6G (5D, 7F)
 There are    82 symmetry adapted cartesian basis functions of A   symmetry.
 There are    82 symmetry adapted basis functions of A   symmetry.
    82 basis functions,   492 primitive gaussians,    82 cartesian basis functions
    44 alpha electrons       44 beta electrons
       nuclear repulsion energy       648.4245365009 Hartrees.
 Integral buffers will be    131072 words long.
 Regular integral format.
 Two-electron integral symmetry is turned off.
 Do NDO integrals.
 One-electron integrals computed using PRISM.
 NBasis=    82 RedAO= F EigKep=  0.00D+00  NBF=    82
 NBsUse=    82 1.00D-04 EigRej=  0.00D+00 NBFU=    82
 Initial guess from the checkpoint file:  "anthracene-2-6-opt.chk"
 B after Tr=     0.000000    0.000000    0.000000
         Rot=    0.999999    0.000000    0.000000    0.001559 Ang=   0.18 deg.
 Overlap will be assumed to be unity.
 Keep J ints in memory in canonical form, NReq=936458.
 Requested convergence on RMS density matrix=1.00D-08 within 128 cycles.
 Requested convergence on MAX density matrix=1.00D-06.
 Requested convergence on             energy=1.00D-06.
 No special actions if energy rises.
 SCF Done:  E(RAM1) = -0.143363536148E-01 A.U. after   14 cycles
            NFock= 13  Conv=0.51D-08     -V/T= 0.9998
 Calling FoFJK, ICntrl=      2127 FMM=F ISym2X=0 I1Cent= 0 IOpClX= 0 NMat=1 NMatS=1 NMatT=0.
 ***** Axes restored to original set *****
 -------------------------------------------------------------------
 Center     Atomic                   Forces (Hartrees/Bohr)
 Number     Number              X              Y              Z
 -------------------------------------------------------------------
      1        6          -0.002492867    0.005245175    0.000000726
      2        6           0.004497472   -0.001160591    0.000000611
      3        6           0.006395924   -0.000969654    0.000000880
      4        8           0.000646181   -0.010588821   -0.000002153
      5        6           0.001882781   -0.005422006   -0.000001153
      6        6          -0.002471448    0.001407510   -0.000000406
      7        8          -0.000870877    0.011162089    0.000002541
      8        6          -0.005636957   -0.000100025   -0.000000104
      9        6           0.011805039   -0.011268773   -0.000003103
     10        6          -0.005888535    0.010021870    0.000002215
     11        6           0.003274218    0.008088132    0.000002176
     12        6          -0.004473480   -0.009244188   -0.000002390
     13        6           0.004147610    0.005407189    0.000001539
     14        6          -0.004117848    0.010402995    0.000002280
     15        6           0.002098828   -0.016475645   -0.000003390
     16        6          -0.008571723    0.002590708    0.000000435
     17        1           0.001890263   -0.001244562    0.000000056
     18        1          -0.001312400    0.000313238    0.000000080
     19        1          -0.000661669   -0.001099978   -0.000000378
     20        1           0.000779487    0.001007602    0.000000238
     21        1           0.000321677    0.002049196    0.000000382
     22        1           0.000307926   -0.003111574   -0.000000565
     23        7          -0.019947625   -0.009085198   -0.000002803
     24        7           0.018308622    0.012294701    0.000002649
     25        1          -0.001859051   -0.000846193   -0.000000245
     26        1          -0.001737361   -0.001290399   -0.000000423
     27        1           0.001707346    0.001107469    0.000000203
     28        1           0.001978467    0.000809732    0.000000102
 -------------------------------------------------------------------
 Cartesian Forces:  Max     0.019947625 RMS     0.005485100

 GradGradGradGradGradGradGradGradGradGradGradGradGradGradGradGradGradGrad
 Berny optimization.
 Using GEDIIS/GDIIS optimizer.
 FormGI is forming the generalized inverse of G from B-inverse, IUseBI=4.
 Internal  Forces:  Max     0.026154856 RMS     0.004859974
 Search for a local minimum.
 Step number   2 out of a maximum of  160
 All quantities printed in internal units (Hartrees-Bohrs-Radians)
 Mixed Optimization -- RFO/linear search
 Update second derivatives using D2CorX and points    1    2
 DE= -7.68D-03 DEPred=-1.45D-02 R= 5.29D-01
 TightC=F SS=  1.41D+00  RLast= 2.53D-01 DXNew= 5.0454D-01 7.5907D-01
 Trust test= 5.29D-01 RLast= 2.53D-01 DXMaxT set to 5.05D-01
 ITU=  1  0
 Use linear search instead of GDIIS.
     Eigenvalues ---    0.01072   0.01077   0.01082   0.01571   0.01646
     Eigenvalues ---    0.01776   0.01813   0.01895   0.01927   0.02098
     Eigenvalues ---    0.02111   0.02115   0.02117   0.02137   0.02147
     Eigenvalues ---    0.02168   0.02177   0.02181   0.02186   0.02188
     Eigenvalues ---    0.02188   0.02189   0.02189   0.02200   0.02206
     Eigenvalues ---    0.15919   0.16000   0.16000   0.16000   0.16000
     Eigenvalues ---    0.16000   0.16000   0.16000   0.16000   0.16212
     Eigenvalues ---    0.22309   0.22451   0.23261   0.23514   0.24225
     Eigenvalues ---    0.24635   0.24855   0.25000   0.25000   0.25000
     Eigenvalues ---    0.25000   0.25000   0.25124   0.33326   0.33917
     Eigenvalues ---    0.34299   0.34949   0.34969   0.35015   0.35084
     Eigenvalues ---    0.35148   0.35225   0.35324   0.40338   0.41870
     Eigenvalues ---    0.41915   0.42607   0.45005   0.45127   0.45920
     Eigenvalues ---    0.45978   0.46375   0.46909   0.46979   0.49473
     Eigenvalues ---    0.50520   0.50521   0.50521   0.50535   0.52455
     Eigenvalues ---    0.72897   0.93052   0.98846
 RFO step:  Lambda=-1.37824993D-03 EMin= 1.07153586D-02
 Quartic linear search produced a step of -0.30249.
 Iteration  1 RMS(Cart)=  0.01714460 RMS(Int)=  0.00003726
 Iteration  2 RMS(Cart)=  0.00005255 RMS(Int)=  0.00002265
 Iteration  3 RMS(Cart)=  0.00000000 RMS(Int)=  0.00002265
 Variable       Old X    -DE/DX   Delta X   Delta X   Delta X     New X
                                 (Linear)    (Quad)   (Total)
    R1        2.80672  -0.00408  -0.00489  -0.00253  -0.00742   2.79930
    R2        2.79005  -0.00579   0.00039  -0.01201  -0.01162   2.77842
    R3        2.35458  -0.01059  -0.01196   0.00590  -0.00606   2.34852
    R4        2.66261  -0.00681  -0.00820   0.00004  -0.00811   2.65450
    R5        2.63412  -0.00600   0.00324  -0.01307  -0.00982   2.62431
    R6        2.66189  -0.00825  -0.00773  -0.00262  -0.01030   2.65159
    R7        2.64873  -0.00275  -0.00052  -0.00276  -0.00325   2.64548
    R8        2.80878  -0.00483  -0.00599  -0.00280  -0.00879   2.79999
    R9        2.35506  -0.01116  -0.01178   0.00524  -0.00654   2.34852
   R10        2.78917  -0.00550   0.00026  -0.01116  -0.01090   2.77827
   R11        2.63600  -0.00568   0.00389  -0.01301  -0.00911   2.62689
   R12        2.64736  -0.00365   0.00062  -0.00524  -0.00459   2.64277
   R13        2.71589  -0.02100  -0.02628  -0.00200  -0.02831   2.68758
   R14        2.08421  -0.00129  -0.00849   0.00706  -0.00143   2.08278
   R15        2.69986  -0.01328  -0.02165   0.00435  -0.01734   2.68252
   R16        2.08253  -0.00035  -0.00863   0.00910   0.00047   2.08300
   R17        2.62899  -0.00515   0.00299  -0.01094  -0.00796   2.62103
   R18        2.08173   0.00111  -0.00727   0.01045   0.00318   2.08491
   R19        2.62700  -0.00555   0.00320  -0.01213  -0.00893   2.61807
   R20        2.08164   0.00102  -0.00737   0.01038   0.00301   2.08465
   R21        2.69687  -0.01521  -0.02031  -0.00008  -0.02044   2.67643
   R22        2.62890  -0.02602  -0.01643  -0.01568  -0.03211   2.59679
   R23        2.07889  -0.00082  -0.00796   0.00741  -0.00055   2.07834
   R24        2.71335  -0.02337  -0.02573  -0.00599  -0.03177   2.68158
   R25        2.08093  -0.00192  -0.00794   0.00522  -0.00272   2.07821
   R26        2.62907  -0.02615  -0.01643  -0.01587  -0.03230   2.59677
   R27        1.86366  -0.00118  -0.00098  -0.00050  -0.00148   1.86218
   R28        1.86456  -0.00132  -0.00125  -0.00039  -0.00164   1.86292
   R29        1.86421  -0.00111  -0.00114  -0.00023  -0.00137   1.86284
[...]
                   16         17         18         19         20
    16  C    0.000000
    17  H    6.933296   0.000000
    18  H    2.196874   6.986813   0.000000
    19  H    6.426645   4.994961   4.904993   0.000000
    20  H    3.433512   4.904844   4.995041   7.014340   0.000000
    21  H    8.354522   4.367905   7.171492   2.479613   8.034422
    22  H    2.189056   7.171753   4.367891   8.034654   2.480066
    23  N    8.855104   2.690693   8.305270   4.587750   7.440490
    24  N    1.373307   8.305352   2.690803   7.440737   4.587930
    25  H    9.595403   3.673273   8.872089   4.731249   8.367378
    26  H    9.137642   2.454836   8.809416   5.448530   7.357745
    27  H    2.053589   8.809579   2.455050   7.358106   5.448740
    28  H    2.053434   8.872094   3.673372   8.367584   4.731363
                   21         22         23         24         25
    21  H    0.000000
    22  H    9.602388   0.000000
    23  N    2.691129   9.522241   0.000000
    24  N    9.522108   2.690935  10.179443   0.000000
    25  H    2.461551  10.384884   0.985848  10.892150   0.000000
    26  H    3.673667   9.583027   0.986261  10.491090   1.706010
    27  H    9.582981   3.673486  10.491190   0.986264  11.140792
    28  H   10.384710   2.461225  10.892078   0.985845  11.644700
                   26         27         28
    26  H    0.000000
    27  H   10.883584   0.000000
    28  H   11.140613   1.706010   0.000000
 Stoichiometry    C14H10N2O2
 Framework group  C1[X(C14H10N2O2)]
 Deg. of freedom    78
 Full point group                 C1      NOp   1
 Largest Abelian subgroup         C1      NOp   1
 Largest concise Abelian subgroup C1      NOp   1
                         Standard orientation:                         
 ---------------------------------------------------------------------
 Center     Atomic      Atomic             Coordinates (Angstroms)
 Number     Number       Type             X           Y           Z
 ---------------------------------------------------------------------
      1          6           0       -0.221748   -1.456858   -0.000087
      2          6           0       -1.355543   -0.499689   -0.000039
      3          6           0        1.133419   -0.887702   -0.000041
      4          8           0       -0.417066   -2.682607   -0.000050
      5          6           0        0.221788    1.456854   -0.000085
      6          6           0        1.355558    0.499646   -0.000039
      7          8           0        0.417056    2.682620   -0.000052
      8          6           0       -1.133402    0.887746   -0.000041
      9          6           0       -2.650509   -1.006071    0.000002
     10          6           0        2.650601    1.006093    0.000003
     11          6           0       -2.236615    1.751745    0.000000
     12          6           0        2.236680   -1.751822   -0.000001
     13          6           0       -3.771844   -0.133378    0.000044
     14          6           0       -3.534427    1.264607    0.000042
     15          6           0        3.534359   -1.264679    0.000041
     16          6           0        3.771770    0.133492    0.000044
     17          1           0       -2.792028   -2.099702   -0.000000
     18          1           0        2.791903    2.099737    0.000001
     19          1           0       -2.056779    2.840850   -0.000003
     20          1           0        2.056494   -2.840871   -0.000004
     21          1           0       -4.378415    1.969939    0.000073
     22          1           0        4.378549   -1.969787    0.000072
     23          7           0       -5.049829   -0.636089    0.000087
     24          7           0        5.049807    0.636080    0.000089
     25          1           0       -5.822347   -0.023624    0.000111
     26          1           0       -5.197766   -1.611192    0.000085
     27          1           0        5.197848    1.611170    0.000081
     28          1           0        5.822257    0.023535    0.000109
 ---------------------------------------------------------------------
 Rotational constants (GHZ):      1.0264635      0.2643979      0.2102432

 **********************************************************************

            Population analysis using the SCF density.

 **********************************************************************

 Orbital symmetries:
       Occupied  (A) (A) (A) (A) (A) (A) (A) (A) (A) (A) (A) (A)
                 (A) (A) (A) (A) (A) (A) (A) (A) (A) (A) (A) (A)
                 (A) (A) (A) (A) (A) (A) (A) (A) (A) (A) (A) (A)
                 (A) (A) (A) (A) (A) (A) (A) (A)
       Virtual   (A) (A) (A) (A) (A) (A) (A) (A) (A) (A) (A) (A)
                 (A) (A) (A) (A) (A) (A) (A) (A) (A) (A) (A) (A)
                 (A) (A) (A) (A) (A) (A) (A) (A) (A) (A) (A) (A)
                 (A) (A)
 The electronic state is 1-A.
 Alpha  occ. eigenvalues --   -1.52123  -1.45821  -1.43297  -1.40732  -1.31532
 Alpha  occ. eigenvalues --   -1.30437  -1.19783  -1.16031  -1.12863  -1.07707
 Alpha  occ. eigenvalues --   -0.96516  -0.92008  -0.86666  -0.83927  -0.79523
 Alpha  occ. eigenvalues --   -0.74773  -0.69606  -0.67583  -0.66067  -0.64992
 Alpha  occ. eigenvalues --   -0.62580  -0.61187  -0.58710  -0.57705  -0.57702
 Alpha  occ. eigenvalues --   -0.54418  -0.53511  -0.53439  -0.53389  -0.52838
 Alpha  occ. eigenvalues --   -0.52313  -0.51020  -0.50573  -0.49179  -0.45582
 Alpha  occ. eigenvalues --   -0.44556  -0.43605  -0.42674  -0.39977  -0.38377
 Alpha  occ. eigenvalues --   -0.36655  -0.36636  -0.31868  -0.31632
 Alpha virt. eigenvalues --   -0.03551   0.00031   0.00965   0.01540   0.06145
 Alpha virt. eigenvalues --    0.06733   0.08688   0.08843   0.09751   0.11038
 Alpha virt. eigenvalues --    0.11539   0.11911   0.13798   0.13831   0.14045
 Alpha virt. eigenvalues --    0.14218   0.14897   0.15114   0.15553   0.15762
 Alpha virt. eigenvalues --    0.16429   0.16979   0.17609   0.17639   0.18271
 Alpha virt. eigenvalues --    0.18451   0.18806   0.19150   0.19926   0.19946
 Alpha virt. eigenvalues --    0.20626   0.20687   0.22619   0.22674   0.22721
 Alpha virt. eigenvalues --    0.22728   0.24050   0.24832
          Condensed to atoms (all electrons):
               1          2          3          4          5          6
     1  C    3.687991   0.000000   0.000000   0.000000   0.000000   0.000000
     2  C    0.000000   4.045770   0.000000   0.000000   0.000000   0.000000
     3  C    0.000000   0.000000   4.181552   0.000000   0.000000   0.000000
     4  O    0.000000   0.000000   0.000000   6.304486   0.000000   0.000000
     5  C    0.000000   0.000000   0.000000   0.000000   3.688000   0.000000
     6  C    0.000000   0.000000   0.000000   0.000000   0.000000   4.045703
     7  O    0.000000   0.000000   0.000000   0.000000   0.000000   0.000000
     8  C    0.000000   0.000000   0.000000   0.000000   0.000000   0.000000
     9  C    0.000000   0.000000   0.000000   0.000000   0.000000   0.000000
    10  C    0.000000   0.000000   0.000000   0.000000   0.000000   0.000000
    11  C    0.000000   0.000000   0.000000   0.000000   0.000000   0.000000
    12  C    0.000000   0.000000   0.000000   0.000000   0.000000   0.000000
    13  C    0.000000   0.000000   0.000000   0.000000   0.000000   0.000000
    14  C    0.000000   0.000000   0.000000   0.000000   0.000000   0.000000
    15  C    0.000000   0.000000   0.000000   0.000000   0.000000   0.000000
    16  C    0.000000   0.000000   0.000000   0.000000   0.000000   0.000000
    17  H    0.000000   0.000000   0.000000   0.000000   0.000000   0.000000
    18  H    0.000000   0.000000   0.000000   0.000000   0.000000   0.000000
    19  H    0.000000   0.000000   0.000000   0.000000   0.000000   0.000000
    20  H    0.000000   0.000000   0.000000   0.000000   0.000000   0.000000
    21  H    0.000000   0.000000   0.000000   0.000000   0.000000   0.000000
    22  H    0.000000   0.000000   0.000000   0.000000   0.000000   0.000000
    23  N    0.000000   0.000000   0.000000   0.000000   0.000000   0.000000
    24  N    0.000000   0.000000   0.000000   0.000000   0.000000   0.000000
    25  H    0.000000   0.000000   0.000000   0.000000   0.000000   0.000000
    26  H    0.000000   0.000000   0.000000   0.000000   0.000000   0.000000
    27  H    0.000000   0.000000   0.000000   0.000000   0.000000   0.000000
    28  H    0.000000   0.000000   0.000000   0.000000   0.000000   0.000000
               7          8          9         10         11         12
     1  C    0.000000   0.000000   0.000000   0.000000   0.000000   0.000000
     2  C    0.000000   0.000000   0.000000   0.000000   0.000000   0.000000
     3  C    0.000000   0.000000   0.000000   0.000000   0.000000   0.000000
     4  O    0.000000   0.000000   0.000000   0.000000   0.000000   0.000000
     5  C    0.000000   0.000000   0.000000   0.000000   0.000000   0.000000
     6  C    0.000000   0.000000   0.000000   0.000000   0.000000   0.000000
     7  O    6.304481   0.000000   0.000000   0.000000   0.000000   0.000000
     8  C    0.000000   4.181561   0.000000   0.000000   0.000000   0.000000
     9  C    0.000000   0.000000   4.181712   0.000000   0.000000   0.000000
    10  C    0.000000   0.000000   0.000000   4.181836   0.000000   0.000000
    11  C    0.000000   0.000000   0.000000   0.000000   4.030420   0.000000
    12  C    0.000000   0.000000   0.000000   0.000000   0.000000   4.030478
    13  C    0.000000   0.000000   0.000000   0.000000   0.000000   0.000000
    14  C    0.000000   0.000000   0.000000   0.000000   0.000000   0.000000
    15  C    0.000000   0.000000   0.000000   0.000000   0.000000   0.000000
    16  C    0.000000   0.000000   0.000000   0.000000   0.000000   0.000000
    17  H    0.000000   0.000000   0.000000   0.000000   0.000000   0.000000
    18  H    0.000000   0.000000   0.000000   0.000000   0.000000   0.000000
    19  H    0.000000   0.000000   0.000000   0.000000   0.000000   0.000000
    20  H    0.000000   0.000000   0.000000   0.000000   0.000000   0.000000
    21  H    0.000000   0.000000   0.000000   0.000000   0.000000   0.000000
    22  H    0.000000   0.000000   0.000000   0.000000   0.000000   0.000000
    23  N    0.000000   0.000000   0.000000   0.000000   0.000000   0.000000
    24  N    0.000000   0.000000   0.000000   0.000000   0.000000   0.000000
    25  H    0.000000   0.000000   0.000000   0.000000   0.000000   0.000000
    26  H    0.000000   0.000000   0.000000   0.000000   0.000000   0.000000
    27  H    0.000000   0.000000   0.000000   0.000000   0.000000   0.000000
    28  H    0.000000   0.000000   0.000000   0.000000   0.000000   0.000000
              13         14         15         16         17         18
     1  C    0.000000   0.000000   0.000000   0.000000   0.000000   0.000000
     2  C    0.000000   0.000000   0.000000   0.000000   0.000000   0.000000
     3  C    0.000000   0.000000   0.000000   0.000000   0.000000   0.000000
     4  O    0.000000   0.000000   0.000000   0.000000   0.000000   0.000000
     5  C    0.000000   0.000000   0.000000   0.000000   0.000000   0.000000
     6  C    0.000000   0.000000   0.000000   0.000000   0.000000   0.000000
     7  O    0.000000   0.000000   0.000000   0.000000   0.000000   0.000000
     8  C    0.000000   0.000000   0.000000   0.000000   0.000000   0.000000
     9  C    0.000000   0.000000   0.000000   0.000000   0.000000   0.000000
    10  C    0.000000   0.000000   0.000000   0.000000   0.000000   0.000000
    11  C    0.000000   0.000000   0.000000   0.000000   0.000000   0.000000
    12  C    0.000000   0.000000   0.000000   0.000000   0.000000   0.000000
    13  C    3.859886   0.000000   0.000000   0.000000   0.000000   0.000000
    14  C    0.000000   4.219639   0.000000   0.000000   0.000000   0.000000
    15  C    0.000000   0.000000   4.219533   0.000000   0.000000   0.000000
    16  C    0.000000   0.000000   0.000000   3.859883   0.000000   0.000000
    17  H    0.000000   0.000000   0.000000   0.000000   0.842350   0.000000
    18  H    0.000000   0.000000   0.000000   0.000000   0.000000   0.842339
    19  H    0.000000   0.000000   0.000000   0.000000   0.000000   0.000000
    20  H    0.000000   0.000000   0.000000   0.000000   0.000000   0.000000
    21  H    0.000000   0.000000   0.000000   0.000000   0.000000   0.000000
    22  H    0.000000   0.000000   0.000000   0.000000   0.000000   0.000000
    23  N    0.000000   0.000000   0.000000   0.000000   0.000000   0.000000
    24  N    0.000000   0.000000   0.000000   0.000000   0.000000   0.000000
    25  H    0.000000   0.000000   0.000000   0.000000   0.000000   0.000000
    26  H    0.000000   0.000000   0.000000   0.000000   0.000000   0.000000
    27  H    0.000000   0.000000   0.000000   0.000000   0.000000   0.000000
    28  H    0.000000   0.000000   0.000000   0.000000   0.000000   0.000000
              19         20         21         22         23         24
     1  C    0.000000   0.000000   0.000000   0.000000   0.000000   0.000000
     2  C    0.000000   0.000000   0.000000   0.000000   0.000000   0.000000
     3  C    0.000000   0.000000   0.000000   0.000000   0.000000   0.000000
     4  O    0.000000   0.000000   0.000000   0.000000   0.000000   0.000000
     5  C    0.000000   0.000000   0.000000   0.000000   0.000000   0.000000
     6  C    0.000000   0.000000   0.000000   0.000000   0.000000   0.000000
     7  O    0.000000   0.000000   0.000000   0.000000   0.000000   0.000000
     8  C    0.000000   0.000000   0.000000   0.000000   0.000000   0.000000
     9  C    0.000000   0.000000   0.000000   0.000000   0.000000   0.000000
    10  C    0.000000   0.000000   0.000000   0.000000   0.000000   0.000000
    11  C    0.000000   0.000000   0.000000   0.000000   0.000000   0.000000
    12  C    0.000000   0.000000   0.000000   0.000000   0.000000   0.000000
    13  C    0.000000   0.000000   0.000000   0.000000   0.000000   0.000000
    14  C    0.000000   0.000000   0.000000   0.000000   0.000000   0.000000
    15  C    0.000000   0.000000   0.000000   0.000000   0.000000   0.000000
    16  C    0.000000   0.000000   0.000000   0.000000   0.000000   0.000000
    17  H    0.000000   0.000000   0.000000   0.000000   0.000000   0.000000
    18  H    0.000000   0.000000   0.000000   0.000000   0.000000   0.000000
    19  H    0.844362   0.000000   0.000000   0.000000   0.000000   0.000000
    20  H    0.000000   0.844341   0.000000   0.000000   0.000000   0.000000
    21  H    0.000000   0.000000   0.863276   0.000000   0.000000   0.000000
    22  H    0.000000   0.000000   0.000000   0.863282   0.000000   0.000000
    23  N    0.000000   0.000000   0.000000   0.000000   5.396830   0.000000
    24  N    0.000000   0.000000   0.000000   0.000000   0.000000   5.396832
    25  H    0.000000   0.000000   0.000000   0.000000   0.000000   0.000000
    26  H    0.000000   0.000000   0.000000   0.000000   0.000000   0.000000
    27  H    0.000000   0.000000   0.000000   0.000000   0.000000   0.000000
    28  H    0.000000   0.000000   0.000000   0.000000   0.000000   0.000000
              25         26         27         28
     1  C    0.000000   0.000000   0.000000   0.000000
     2  C    0.000000   0.000000   0.000000   0.000000
     3  C    0.000000   0.000000   0.000000   0.000000
     4  O    0.000000   0.000000   0.000000   0.000000
     5  C    0.000000   0.000000   0.000000   0.000000
     6  C    0.000000   0.000000   0.000000   0.000000
     7  O    0.000000   0.000000   0.000000   0.000000
     8  C    0.000000   0.000000   0.000000   0.000000
     9  C    0.000000   0.000000   0.000000   0.000000
    10  C    0.000000   0.000000   0.000000   0.000000
    11  C    0.000000   0.000000   0.000000   0.000000
    12  C    0.000000   0.000000   0.000000   0.000000
    13  C    0.000000   0.000000   0.000000   0.000000
    14  C    0.000000   0.000000   0.000000   0.000000
    15  C    0.000000   0.000000   0.000000   0.000000
    16  C    0.000000   0.000000   0.000000   0.000000
    17  H    0.000000   0.000000   0.000000   0.000000
    18  H    0.000000   0.000000   0.000000   0.000000
    19  H    0.000000   0.000000   0.000000   0.000000
    20  H    0.000000   0.000000   0.000000   0.000000
    21  H    0.000000   0.000000   0.000000   0.000000
    22  H    0.000000   0.000000   0.000000   0.000000
    23  N    0.000000   0.000000   0.000000   0.000000
    24  N    0.000000   0.000000   0.000000   0.000000
    25  H    0.772090   0.000000   0.000000   0.000000
    26  H    0.000000   0.769639   0.000000   0.000000
    27  H    0.000000   0.000000   0.769637   0.000000
    28  H    0.000000   0.000000   0.000000   0.772094
 Mulliken charges:
               1
     1  C    0.312009
     2  C   -0.045770
     3  C   -0.181552
     4  O   -0.304486
     5  C    0.312000
     6  C   -0.045703
     7  O   -0.304481
     8  C   -0.181561
     9  C   -0.181712
    10  C   -0.181836
    11  C   -0.030420
    12  C   -0.030478
    13  C    0.140114
    14  C   -0.219639
    15  C   -0.219533
    16  C    0.140117
    17  H    0.157650
    18  H    0.157661
    19  H    0.155638
    20  H    0.155659
    21  H    0.136724
    22  H    0.136718
    23  N   -0.396830
    24  N   -0.396832
    25  H    0.227910
    26  H    0.230361
    27  H    0.230363
    28  H    0.227906
 Sum of Mulliken charges =  -0.00000
 Mulliken charges with hydrogens summed into heavy atoms:
               1
     1  C    0.312009
     2  C   -0.045770
     3  C   -0.181552
     4  O   -0.304486
     5  C    0.312000
     6  C   -0.045703
     7  O   -0.304481
     8  C   -0.181561
     9  C   -0.024062
    10  C   -0.024175
    11  C    0.125217
    12  C    0.125182
    13  C    0.140114
    14  C   -0.082915
    15  C   -0.082815
    16  C    0.140117
    23  N    0.061442
    24  N    0.061437
 Charge=              0.0000 electrons
 Dipole moment (field-independent basis, Debye):
    X=             -0.0001    Y=             -0.0006    Z=              0.0001  Tot=              0.0006
 N-N= 6.502320424146D+02 E-N=-1.173757319392D+03  KE=-6.189808538839D+01
 1\1\GINC-GTX1080DELTA\FOpt\RAM1\ZDO\C14H10N2O2\MVEROT\12-Apr-2022\0\\#
 n AM1 Opt\\Geometry optimization\\0,1\C,0.0000655305,1.48184433,0.0002
 272963\C,1.2618895447,0.7011631816,0.0001278579\C,-1.2570634704,0.7202
 383056,0.0000839632\O,0.013644651,2.7229831445,0.0005352771\C,-0.01168
 78296,-1.4654086278,-0.0004137685\C,-1.2734929677,-0.6846853501,-0.000
 2209759\O,-0.0252152482,-2.7065569378,-0.0006523435\C,1.2454702851,-0.
 7038463613,-0.00018019\C,2.4686662167,1.3918514074,0.0003425991\C,-2.4
 803355052,-1.3754490655,-0.0003521685\C,2.4633898808,-1.3968453603,-0.
 0002682362\C,-2.4750467846,1.4133500438,0.0002532965\C,3.7057847223,0.
 6929084737,0.0002549182\C,3.6758012043,-0.7247764158,-0.0000573865\C,-
 3.6873271139,0.7412951105,0.00012623\C,-3.7172773089,-0.6765727609,-0.
 0001807277\H,2.4483885495,2.4944142529,0.0005803442\H,-2.4598423311,-2
 .477992719,-0.000593874\H,2.4450992001,-2.500545848,-0.0005124296\H,-2
 .456403453,2.5170465757,0.0004905632\H,4.6140410931,-1.2988093414,-0.0
 001341421\H,-4.6257340393,1.315077405,0.0002649316\N,4.8963020081,1.37
 74763342,0.0004689396\N,-4.9078632588,-1.3610264543,-0.0003077707\H,5.
 750234086,0.8848342874,0.0004015758\H,4.89974368,2.363731598,0.0006821
 637\H,-4.9114103459,-2.3472838531,-0.0005306641\H,-5.7617409957,-0.868
 2953548,-0.0001952793\\Version=AM64L-G09RevD.01\State=1-A\HF=-0.016789
 2\RMSD=7.123e-09\RMSF=4.257e-05\Dipole=0.0000049,0.0002277,0.0000378\P
 G=C01 [X(C14H10N2O2)]\\@


 WORK FAITHFULLY FOR EIGHT HOURS A DAY AND DON'T WORRY.
 IN TIME YOU MAY BECOME BOSS AND WORK TWELVE HOURS A DAY
 AND HAVE ALL THE WORRY.
 Job cpu time:       0 days  0 hours  0 minutes  4.1 seconds.
 File lengths (MBytes):  RWF=    132 Int=      0 D2E=      0 Chk=      4 Scr=      2
 Normal termination of Gaussian 09 at Tue Apr 12 01:07:45 2022.
