 Entering Gaussian System, Link 0=g09
 Input=/scratch/mverot/anthracene-1-5-opt/anthracene-1-5-opt.com
 Output=/scratch/mverot/anthracene-1-5-opt/anthracene-1-5-opt.log
 Initial command:
 /opt/g09/l1.exe "/scratch/mverot/anthracene-1-5-opt/Gau-2804207.inp" -scrdir="/scratch/mverot/anthracene-1-5-opt/"
 Entering Link 1 = /opt/g09/l1.exe PID=   2804209.
  
 Copyright (c) 1988,1990,1992,1993,1995,1998,2003,2009,2013,
            Gaussian, Inc.  All Rights Reserved.
  
 This is part of the Gaussian(R) 09 program.  It is based on
 the Gaussian(R) 03 system (copyright 2003, Gaussian, Inc.),
 the Gaussian(R) 98 system (copyright 1998, Gaussian, Inc.),
 the Gaussian(R) 94 system (copyright 1995, Gaussian, Inc.),
 the Gaussian 92(TM) system (copyright 1992, Gaussian, Inc.),
 the Gaussian 90(TM) system (copyright 1990, Gaussian, Inc.),
 the Gaussian 88(TM) system (copyright 1988, Gaussian, Inc.),
 the Gaussian 86(TM) system (copyright 1986, Carnegie Mellon
 University), and the Gaussian 82(TM) system (copyright 1983,
 Carnegie Mellon University). Gaussian is a federally registered
 trademark of Gaussian, Inc.
  
 This software contains proprietary and confidential information,
 including trade secrets, belonging to Gaussian, Inc.
  
 This software is provided under written license and may be
 used, copied, transmitted, or stored only in accord with that
 written license.
  
 The following legend is applicable only to US Government
 contracts under FAR:
  
                    RESTRICTED RIGHTS LEGEND
  
 Use, reproduction and disclosure by the US Government is
 subject to restrictions as set forth in subparagraphs (a)
 and (c) of the Commercial Computer Software - Restricted
 Rights clause in FAR 52.227-19.
  
 Gaussian, Inc.
 340 Quinnipiac St., Bldg. 40, Wallingford CT 06492
  
  
 ---------------------------------------------------------------
 Warning -- This program may not be used in any manner that
 competes with the business of Gaussian, Inc. or will provide
 assistance to any competitor of Gaussian, Inc.  The licensee
 of this program is prohibited from giving any competitor of
 Gaussian, Inc. access to this program.  By using this program,
 the user acknowledges that Gaussian, Inc. is engaged in the
 business of creating and licensing software in the field of
 computational chemistry and represents and warrants to the
 licensee that it is not a competitor of Gaussian, Inc. and that
 it will not use this program in any manner prohibited above.
 ---------------------------------------------------------------
  

 Cite this work as:
 Gaussian 09, Revision D.01,
 M. J. Frisch, G. W. Trucks, H. B. Schlegel, G. E. Scuseria, 
 M. A. Robb, J. R. Cheeseman, G. Scalmani, V. Barone, B. Mennucci, 
 G. A. Petersson, H. Nakatsuji, M. Caricato, X. Li, H. P. Hratchian, 
 A. F. Izmaylov, J. Bloino, G. Zheng, J. L. Sonnenberg, M. Hada, 
 M. Ehara, K. Toyota, R. Fukuda, J. Hasegawa, M. Ishida, T. Nakajima, 
 Y. Honda, O. Kitao, H. Nakai, T. Vreven, J. A. Montgomery, Jr., 
 J. E. Peralta, F. Ogliaro, M. Bearpark, J. J. Heyd, E. Brothers, 
 K. N. Kudin, V. N. Staroverov, T. Keith, R. Kobayashi, J. Normand, 
 K. Raghavachari, A. Rendell, J. C. Burant, S. S. Iyengar, J. Tomasi, 
 M. Cossi, N. Rega, J. M. Millam, M. Klene, J. E. Knox, J. B. Cross, 
 V. Bakken, C. Adamo, J. Jaramillo, R. Gomperts, R. E. Stratmann, 
 O. Yazyev, A. J. Austin, R. Cammi, C. Pomelli, J. W. Ochterski, 
 R. L. Martin, K. Morokuma, V. G. Zakrzewski, G. A. Voth, 
 P. Salvador, J. J. Dannenberg, S. Dapprich, A. D. Daniels, 
 O. Farkas, J. B. Foresman, J. V. Ortiz, J. Cioslowski, 
 and D. J. Fox, Gaussian, Inc., Wallingford CT, 2013.
 
 ******************************************
 Gaussian 09:  AM64L-G09RevD.01 24-Apr-2013
                11-Apr-2022 
 ******************************************
 %chk=anthracene-1-5-opt
 ----------
 #n AM1 Opt
 ----------
 1/14=-1,18=20,19=15,26=1,38=1/1,3;
 2/9=110,12=2,17=6,18=5,40=1/2;
 3/5=2,16=1,25=1,41=700000,71=1/1,2,3;
 4/35=1/1;
 5/5=2,35=1,38=5/2;
 6/7=2,8=2,9=2,10=2,28=1/1;
 7//1,2,3,16;
 1/14=-1,18=20,19=15,26=1/3(2);
 2/9=110/2;
 99//99;
 2/9=110/2;
 3/5=2,16=1,25=1,41=700000,71=1,135=20/1,2,3;
 4/5=5,16=3,35=1/1;
 5/5=2,35=1,38=5/2;
 7//1,2,3,16;
 1/14=-1,18=20,19=15,26=1/3(-5);
 2/9=110/2;
 6/7=2,8=2,9=2,10=2,19=2,28=1/1;
 99/9=1/99;
 ---------------------
 Geometry optimization
 ---------------------
 Symbolic Z-matrix:
 Charge =  0 Multiplicity = 1
 C                     0.00105   1.44895   0.00029 
 C                     1.27733   0.70913   0.00017 
 C                    -1.2746    0.70736   0.00011 
 O                     0.01417   2.67667   0.00054 
 C                    -0.00384  -1.42708  -0.00034 
 C                    -1.28013  -0.68727  -0.00019 
 O                    -0.01696  -2.65481  -0.00063 
 C                     1.2718   -0.6855   -0.00015 
 C                     2.50212   1.39      0.00036 
 C                    -2.50491  -1.36814  -0.00034 
 C                     2.48056  -1.39577  -0.00027 
 C                    -2.48335   1.41764   0.00026 
 C                     3.70448   0.68588   0.00024 
 C                     3.69477  -0.70822  -0.00007 
 C                    -3.69756   0.73008   0.00011 
 C                    -3.70727  -0.66401  -0.00019 
 H                     2.48196  -2.48474  -0.00051 
 H                    -2.48475   2.50661   0.00049 
 H                     4.64835   1.22628   0.0004 
 H                     4.63343  -1.25798  -0.00016 
 H                    -4.65114  -1.20441  -0.00031 
 H                    -4.63622   1.27985   0.00022 
 O                     2.59917   2.75547   0.00067 
 H                     1.68854   3.1294    0.00071 
 O                    -2.60196  -2.73361  -0.00063 
 H                    -1.69134  -3.10754  -0.00072 
 

 GradGradGradGradGradGradGradGradGradGradGradGradGradGradGradGradGradGrad
 Berny optimization.
 Initialization pass.
                           ----------------------------
                           !    Initial Parameters    !
                           ! (Angstroms and Degrees)  !
 --------------------------                            --------------------------
 ! Name  Definition              Value          Derivative Info.                !
 --------------------------------------------------------------------------------
 ! R1    R(1,2)                  1.4752         estimate D2E/DX2                !
 ! R2    R(1,3)                  1.4755         estimate D2E/DX2                !
 ! R3    R(1,4)                  1.2278         estimate D2E/DX2                !
 ! R4    R(2,8)                  1.3946         estimate D2E/DX2                !
 ! R5    R(2,9)                  1.4013         estimate D2E/DX2                !
 ! R6    R(3,6)                  1.3946         estimate D2E/DX2                !
 ! R7    R(3,12)                 1.402          estimate D2E/DX2                !
 ! R8    R(5,6)                  1.4752         estimate D2E/DX2                !
 ! R9    R(5,7)                  1.2278         estimate D2E/DX2                !
 ! R10   R(5,8)                  1.4755         estimate D2E/DX2                !
 ! R11   R(6,10)                 1.4013         estimate D2E/DX2                !
 ! R12   R(8,11)                 1.402          estimate D2E/DX2                !
 ! R13   R(9,13)                 1.3934         estimate D2E/DX2                !
 ! R14   R(9,23)                 1.3689         estimate D2E/DX2                !
 ! R15   R(10,16)                1.3934         estimate D2E/DX2                !
 ! R16   R(10,25)                1.3689         estimate D2E/DX2                !
 ! R17   R(11,14)                1.3954         estimate D2E/DX2                !
 ! R18   R(11,17)                1.089          estimate D2E/DX2                !
 ! R19   R(12,15)                1.3954         estimate D2E/DX2                !
 ! R20   R(12,18)                1.089          estimate D2E/DX2                !
 ! R21   R(13,14)                1.3941         estimate D2E/DX2                !
 ! R22   R(13,19)                1.0876         estimate D2E/DX2                !
 ! R23   R(14,20)                1.0878         estimate D2E/DX2                !
 ! R24   R(15,16)                1.3941         estimate D2E/DX2                !
 ! R25   R(15,22)                1.0878         estimate D2E/DX2                !
 ! R26   R(16,21)                1.0876         estimate D2E/DX2                !
 ! R27   R(23,24)                0.9844         estimate D2E/DX2                !
 ! R28   R(25,26)                0.9844         estimate D2E/DX2                !
 ! A1    A(2,1,3)              119.7292         estimate D2E/DX2                !
 ! A2    A(2,1,4)              119.4873         estimate D2E/DX2                !
 ! A3    A(3,1,4)              120.7835         estimate D2E/DX2                !
 ! A4    A(1,2,8)              119.8724         estimate D2E/DX2                !
 ! A5    A(1,2,9)              120.8304         estimate D2E/DX2                !
 ! A6    A(8,2,9)              119.2972         estimate D2E/DX2                !
 ! A7    A(1,3,6)              120.3985         estimate D2E/DX2                !
 ! A8    A(1,3,12)             119.3896         estimate D2E/DX2                !
 ! A9    A(6,3,12)             120.212          estimate D2E/DX2                !
 ! A10   A(6,5,7)              119.4867         estimate D2E/DX2                !
 ! A11   A(6,5,8)              119.7299         estimate D2E/DX2                !
 ! A12   A(7,5,8)              120.7834         estimate D2E/DX2                !
 ! A13   A(3,6,5)              119.8718         estimate D2E/DX2                !
 ! A14   A(3,6,10)             119.2974         estimate D2E/DX2                !
 ! A15   A(5,6,10)             120.8308         estimate D2E/DX2                !
 ! A16   A(2,8,5)              120.3983         estimate D2E/DX2                !
 ! A17   A(2,8,11)             120.2114         estimate D2E/DX2                !
 ! A18   A(5,8,11)             119.3903         estimate D2E/DX2                !
 ! A19   A(2,9,13)             120.5761         estimate D2E/DX2                !
 ! A20   A(2,9,23)             123.1354         estimate D2E/DX2                !
 ! A21   A(13,9,23)            116.2884         estimate D2E/DX2                !
 ! A22   A(6,10,16)            120.5756         estimate D2E/DX2                !
 ! A23   A(6,10,25)            123.1356         estimate D2E/DX2                !
 ! A24   A(16,10,25)           116.2888         estimate D2E/DX2                !
 ! A25   A(8,11,14)            120.0406         estimate D2E/DX2                !
 ! A26   A(8,11,17)            120.5122         estimate D2E/DX2                !
 ! A27   A(14,11,17)           119.4472         estimate D2E/DX2                !
 ! A28   A(3,12,15)            120.0397         estimate D2E/DX2                !
 ! A29   A(3,12,18)            120.5128         estimate D2E/DX2                !
 ! A30   A(15,12,18)           119.4475         estimate D2E/DX2                !
 ! A31   A(9,13,14)            119.9548         estimate D2E/DX2                !
 ! A32   A(9,13,19)            119.8534         estimate D2E/DX2                !
 ! A33   A(14,13,19)           120.1918         estimate D2E/DX2                !
 ! A34   A(11,14,13)           119.9199         estimate D2E/DX2                !
 ! A35   A(11,14,20)           120.1223         estimate D2E/DX2                !
 ! A36   A(13,14,20)           119.9578         estimate D2E/DX2                !
 ! A37   A(12,15,16)           119.9203         estimate D2E/DX2                !
 ! A38   A(12,15,22)           120.1214         estimate D2E/DX2                !
 ! A39   A(16,15,22)           119.9583         estimate D2E/DX2                !
 ! A40   A(10,16,15)           119.9552         estimate D2E/DX2                !
 ! A41   A(10,16,21)           119.8531         estimate D2E/DX2                !
 ! A42   A(15,16,21)           120.1918         estimate D2E/DX2                !
 ! A43   A(9,23,24)            108.259          estimate D2E/DX2                !
 ! A44   A(10,25,26)           108.2592         estimate D2E/DX2                !
 ! D1    D(3,1,2,8)              0.0018         estimate D2E/DX2                !
 ! D2    D(3,1,2,9)           -179.9989         estimate D2E/DX2                !
 ! D3    D(4,1,2,8)           -179.9983         estimate D2E/DX2                !
 ! D4    D(4,1,2,9)              0.0011         estimate D2E/DX2                !
 ! D5    D(2,1,3,6)             -0.0008         estimate D2E/DX2                !
 ! D6    D(2,1,3,12)           179.9984         estimate D2E/DX2                !
 ! D7    D(4,1,3,6)            179.9992         estimate D2E/DX2                !
 ! D8    D(4,1,3,12)            -0.0016         estimate D2E/DX2                !
 ! D9    D(1,2,8,5)             -0.0013         estimate D2E/DX2                !
 ! D10   D(1,2,8,11)           179.9998         estimate D2E/DX2                !
 ! D11   D(9,2,8,5)            179.9993         estimate D2E/DX2                !
 ! D12   D(9,2,8,11)             0.0004         estimate D2E/DX2                !
 ! D13   D(1,2,9,13)          -179.9997         estimate D2E/DX2                !
 ! D14   D(1,2,9,23)             0.0004         estimate D2E/DX2                !
 ! D15   D(8,2,9,13)            -0.0004         estimate D2E/DX2                !
 ! D16   D(8,2,9,23)           179.9997         estimate D2E/DX2                !
 ! D17   D(1,3,6,5)             -0.0005         estimate D2E/DX2                !
 ! D18   D(1,3,6,10)           179.9992         estimate D2E/DX2                !
 ! D19   D(12,3,6,5)          -179.9997         estimate D2E/DX2                !
 ! D20   D(12,3,6,10)            0.0            estimate D2E/DX2                !
 ! D21   D(1,3,12,15)         -179.9992         estimate D2E/DX2                !
 ! D22   D(1,3,12,18)            0.001          estimate D2E/DX2                !
 ! D23   D(6,3,12,15)            0.0            estimate D2E/DX2                !
 ! D24   D(6,3,12,18)         -179.9997         estimate D2E/DX2                !
 ! D25   D(7,5,6,3)           -179.9986         estimate D2E/DX2                !
 ! D26   D(7,5,6,10)             0.0016         estimate D2E/DX2                !
 ! D27   D(8,5,6,3)              0.001          estimate D2E/DX2                !
 ! D28   D(8,5,6,10)          -179.9988         estimate D2E/DX2                !
 ! D29   D(6,5,8,2)              0.0            estimate D2E/DX2                !
 ! D30   D(6,5,8,11)           179.9989         estimate D2E/DX2                !
 ! D31   D(7,5,8,2)            179.9996         estimate D2E/DX2                !
 ! D32   D(7,5,8,11)            -0.0016         estimate D2E/DX2                !
 ! D33   D(3,6,10,16)           -0.0001         estimate D2E/DX2                !
 ! D34   D(3,6,10,25)         -179.9998         estimate D2E/DX2                !
 ! D35   D(5,6,10,16)          179.9997         estimate D2E/DX2                !
 ! D36   D(5,6,10,25)            0.0            estimate D2E/DX2                !
 ! D37   D(2,8,11,14)            0.0            estimate D2E/DX2                !
 ! D38   D(2,8,11,17)          179.9994         estimate D2E/DX2                !
 ! D39   D(5,8,11,14)         -179.9989         estimate D2E/DX2                !
 ! D40   D(5,8,11,17)            0.0005         estimate D2E/DX2                !
 ! D41   D(2,9,13,14)           -0.0001         estimate D2E/DX2                !
 ! D42   D(2,9,13,19)         -179.9994         estimate D2E/DX2                !
 ! D43   D(23,9,13,14)         179.9998         estimate D2E/DX2                !
 ! D44   D(23,9,13,19)           0.0005         estimate D2E/DX2                !
 ! D45   D(2,9,23,24)           -0.001          estimate D2E/DX2                !
 ! D46   D(13,9,23,24)         179.9991         estimate D2E/DX2                !
 ! D47   D(6,10,16,15)           0.0001         estimate D2E/DX2                !
 ! D48   D(6,10,16,21)         179.9999         estimate D2E/DX2                !
 ! D49   D(25,10,16,15)        179.9998         estimate D2E/DX2                !
 ! D50   D(25,10,16,21)         -0.0003         estimate D2E/DX2                !
 ! D51   D(6,10,25,26)          -0.0009         estimate D2E/DX2                !
 ! D52   D(16,10,25,26)        179.9994         estimate D2E/DX2                !
 ! D53   D(8,11,14,13)          -0.0004         estimate D2E/DX2                !
 ! D54   D(8,11,14,20)         179.9998         estimate D2E/DX2                !
 ! D55   D(17,11,14,13)       -179.9999         estimate D2E/DX2                !
 ! D56   D(17,11,14,20)          0.0004         estimate D2E/DX2                !
 ! D57   D(3,12,15,16)           0.0            estimate D2E/DX2                !
 ! D58   D(3,12,15,22)        -179.9996         estimate D2E/DX2                !
 ! D59   D(18,12,15,16)        179.9997         estimate D2E/DX2                !
 ! D60   D(18,12,15,22)          0.0001         estimate D2E/DX2                !
 ! D61   D(9,13,14,11)           0.0005         estimate D2E/DX2                !
 ! D62   D(9,13,14,20)        -179.9998         estimate D2E/DX2                !
 ! D63   D(19,13,14,11)        179.9998         estimate D2E/DX2                !
 ! D64   D(19,13,14,20)         -0.0005         estimate D2E/DX2                !
 ! D65   D(12,15,16,10)          0.0            estimate D2E/DX2                !
 ! D66   D(12,15,16,21)       -179.9999         estimate D2E/DX2                !
 ! D67   D(22,15,16,10)        179.9996         estimate D2E/DX2                !
 ! D68   D(22,15,16,21)         -0.0003         estimate D2E/DX2                !
 --------------------------------------------------------------------------------
 Trust Radius=3.00D-01 FncErr=1.00D-07 GrdErr=1.00D-07
 Number of steps in this run=    150 maximum allowed number of steps=    156.
 GradGradGradGradGradGradGradGradGradGradGradGradGradGradGradGradGradGrad

                          Input orientation:                          
 ---------------------------------------------------------------------
 Center     Atomic      Atomic             Coordinates (Angstroms)
 Number     Number       Type             X           Y           Z
 ---------------------------------------------------------------------
      1          6           0        0.001050    1.448950    0.000290
      2          6           0        1.277330    0.709130    0.000170
      3          6           0       -1.274600    0.707360    0.000110
      4          8           0        0.014170    2.676670    0.000540
      5          6           0       -0.003840   -1.427080   -0.000340
      6          6           0       -1.280130   -0.687270   -0.000190
      7          8           0       -0.016960   -2.654810   -0.000630
      8          6           0        1.271800   -0.685500   -0.000150
      9          6           0        2.502120    1.390000    0.000360
     10          6           0       -2.504910   -1.368140   -0.000340
     11          6           0        2.480560   -1.395770   -0.000270
     12          6           0       -2.483350    1.417640    0.000260
     13          6           0        3.704480    0.685880    0.000240
     14          6           0        3.694770   -0.708220   -0.000070
     15          6           0       -3.697560    0.730080    0.000110
     16          6           0       -3.707270   -0.664010   -0.000190
     17          1           0        2.481960   -2.484740   -0.000510
     18          1           0       -2.484750    2.506610    0.000490
     19          1           0        4.648350    1.226280    0.000400
     20          1           0        4.633430   -1.257980   -0.000160
     21          1           0       -4.651140   -1.204410   -0.000310
     22          1           0       -4.636220    1.279850    0.000220
     23          8           0        2.599170    2.755470    0.000670
     24          1           0        1.688540    3.129400    0.000710
     25          8           0       -2.601960   -2.733610   -0.000630
     26          1           0       -1.691340   -3.107540   -0.000720
 ---------------------------------------------------------------------
                    Distance matrix (angstroms):
                    1          2          3          4          5
     1  C    0.000000
     2  C    1.475203   0.000000
     3  C    1.475547   2.551931   0.000000
     4  O    1.227790   2.338116   2.353531   0.000000
     5  C    2.876034   2.490942   2.484082   4.103790   0.000000
     6  C    2.490955   2.913852   1.394641   3.604345   1.475207
     7  O    4.103800   3.604342   3.589686   5.331571   1.227800
     8  C    2.484086   1.394641   2.902449   3.589683   1.475533
     9  C    2.501765   1.401319   3.837918   2.800967   3.770381
    10  C    3.770389   4.315135   2.412750   4.765108   2.501764
    11  C    3.773646   2.424534   4.303996   4.761076   2.484597
    12  C    2.484597   3.826839   1.401989   2.796920   3.773646
    13  C    3.781226   2.427261   4.979126   4.193046   4.268048
    14  C    4.277493   2.802302   5.167060   5.000430   3.767821
    15  C    3.767823   4.974934   2.423067   4.191199   4.277488
    16  C    4.268048   5.170276   2.792586   5.000926   3.781226
    17  H    4.650681   3.413494   4.929629   5.721026   2.701453
    18  H    2.701453   4.169434   2.168355   2.504700   4.650681
    19  H    4.652631   3.410457   5.945638   4.855848   5.355669
    20  H    5.365297   3.890107   6.226346   6.067869   4.640352
    21  H    5.355669   6.229638   3.880192   6.068600   4.652631
    22  H    4.640352   5.941026   3.410020   4.855639   5.365297
    23  O    2.908130   2.436138   4.381877   2.586201   4.926397
    24  H    2.381498   2.454954   3.827072   1.734497   4.860624
    25  O    4.926405   5.186651   3.688111   6.009598   2.908135
    26  H    4.860636   4.835284   3.837595   6.030411   2.381513
                    6          7          8          9         10
     6  C    0.000000
     7  O    2.338122   0.000000
     8  C    2.551931   2.353526   0.000000
     9  C    4.315144   4.765108   2.412755   0.000000
    10  C    1.401310   2.800967   3.837908   5.716440   0.000000
    11  C    3.826847   2.796925   1.401993   2.785853   4.985547
    12  C    2.424538   4.761085   4.303992   4.985547   2.785863
    13  C    5.170288   5.000933   2.792600   1.393361   6.540300
    14  C    4.974944   4.191199   2.423077   2.413492   6.234703
    15  C    2.802294   5.000430   5.167050   6.234703   2.413492
    16  C    2.427251   4.193051   4.979116   6.540297   1.393366
    17  H    4.169439   2.504701   2.168352   3.874793   5.110349
    18  H    3.413500   5.721035   4.929628   5.110351   3.874803
    19  H    6.229651   6.068606   3.880205   2.152465   7.609214
    20  H    5.941035   4.855642   3.410028   3.399159   7.139190
    21  H    3.410446   4.855851   5.945627   7.609211   2.152466
    22  H    3.890103   6.067875   6.226339   7.139190   3.399167
    23  O    5.186659   6.009598   3.688114   1.368915   6.561691
    24  H    4.835284   6.030408   3.837595   1.920267   6.149219
    25  O    2.436133   2.586201   4.381868   6.561691   1.368915
    26  H    2.454954   1.734507   3.827072   6.149225   1.920263
                   11         12         13         14         15
    11  C    0.000000
    12  C    5.705758   0.000000
    13  C    2.414798   6.230948   0.000000
    14  C    1.395361   6.533640   1.394134   0.000000
    15  C    6.533636   1.395365   7.402172   7.530953   0.000000
    16  C    6.230948   2.414798   7.533674   7.402172   1.394124
    17  H    1.088971   6.315289   3.398145   2.151030   6.965740
    18  H    6.315289   1.088971   6.451482   6.965745   2.151039
    19  H    3.402126   7.134267   1.087623   2.156758   8.360648
    20  H    2.157275   7.603124   2.154423   1.087805   8.564915
    21  H    7.134267   3.402126   8.566772   8.360647   2.156749
    22  H    7.603124   2.157275   8.361823   8.564918   1.087810
    23  O    4.152934   5.255644   2.346255   3.632835   6.614455
    24  H    4.593959   4.509411   3.167776   4.330391   5.896339
    25  O    5.255647   4.152944   7.173848   6.614455   3.632835
    26  H    4.509424   4.593967   6.595825   5.896348   4.330386
                   16         17         18         19         20
    16  C    0.000000
    17  H    6.451482   0.000000
    18  H    3.398145   7.041433   0.000000
    19  H    8.566772   4.297082   7.247093   0.000000
    20  H    8.361823   2.476644   8.052368   2.484305   0.000000
    21  H    1.087623   7.247093   4.297082   9.611908   9.284725
    22  H    2.154423   8.052368   2.476644   9.284725   9.610775
    23  O    7.173843   5.241521   5.090007   2.556865   4.499555
    24  H    6.595811   5.669928   4.219504   3.518855   5.284078
    25  O    2.346264   5.090008   5.241531   8.261218   7.384332
    26  H    3.167777   4.219516   5.669937   7.679431   6.589658
                   21         22         23         24         25
    21  H    0.000000
    22  H    2.484305   0.000000
    23  O    8.261213   7.384330   0.000000
    24  H    7.679417   6.589645   0.984414   0.000000
    25  O    2.556871   4.499564   7.561862   7.265210   0.000000
    26  H    3.518852   5.284081   7.265216   7.093871   0.984405
                   26
    26  H    0.000000
 Stoichiometry    C14H8O4
 Framework group  C1[X(C14H8O4)]
 Deg. of freedom    72
 Full point group                 C1      NOp   1
 Largest Abelian subgroup         C1      NOp   1
 Largest concise Abelian subgroup C1      NOp   1
                         Standard orientation:                         
 ---------------------------------------------------------------------
 Center     Atomic      Atomic             Coordinates (Angstroms)
 Number     Number       Type             X           Y           Z
 ---------------------------------------------------------------------
      1          6           0       -0.390685   -1.383932   -0.000023
      2          6           0       -1.419763   -0.326945   -0.000004
      3          6           0        1.037834   -1.014377   -0.000017
      4          8           0       -0.734857   -2.562496   -0.000043
      5          6           0        0.390681    1.383926   -0.000022
      6          6           0        1.419772    0.326946   -0.000010
      7          8           0        0.734856    2.562500   -0.000042
      8          6           0       -1.037826    1.014378   -0.000018
      9          6           0       -2.782915   -0.651771    0.000014
     10          6           0        2.782914    0.651774    0.000012
     11          6           0       -2.009873    2.024680   -0.000004
     12          6           0        2.009869   -2.024685   -0.000000
     13          6           0       -3.750461    0.350881    0.000026
     14          6           0       -3.364642    1.690565    0.000023
     15          6           0        3.364640   -1.690561    0.000023
     16          6           0        3.750457   -0.350887    0.000029
     17          1           0       -1.717150    3.073570   -0.000005
     18          1           0        1.717146   -3.073576   -0.000009
     19          1           0       -4.805196    0.085446    0.000050
     20          1           0       -4.119968    2.473381    0.000036
     21          1           0        4.805192   -0.085452    0.000045
     22          1           0        4.119964   -2.473387    0.000029
     23          8           0       -3.245098   -1.940302    0.000022
     24          1           0       -2.469278   -2.546251   -0.000003
     25          8           0        3.245097    1.940306    0.000023
     26          1           0        2.469287    2.546252   -0.000002
 ---------------------------------------------------------------------
 Rotational constants (GHZ):      0.8049361      0.3550050      0.2463542
 Standard basis: VSTO-6G (5D, 7F)
 There are    80 symmetry adapted cartesian basis functions of A   symmetry.
 There are    80 symmetry adapted basis functions of A   symmetry.
    80 basis functions,   480 primitive gaussians,    80 cartesian basis functions
    44 alpha electrons       44 beta electrons
       nuclear repulsion energy       677.7787795628 Hartrees.
 Integral buffers will be    131072 words long.
 Regular integral format.
 Two-electron integral symmetry is turned off.
 Do NDO integrals.
 One-electron integrals computed using PRISM.
 NBasis=    80 RedAO= F EigKep=  0.00D+00  NBF=    80
 NBsUse=    80 1.00D-04 EigRej=  0.00D+00 NBFU=    80
 Simple Huckel Guess.
 Overlap will be assumed to be unity.
 Keep J ints in memory in canonical form, NReq=933890.
 Requested convergence on RMS density matrix=1.00D-08 within 128 cycles.
 Requested convergence on MAX density matrix=1.00D-06.
 Requested convergence on             energy=1.00D-06.
 No special actions if energy rises.
 SCF Done:  E(RAM1) = -0.140743804634     A.U. after   16 cycles
            NFock= 15  Conv=0.37D-08     -V/T= 0.9978

 **********************************************************************

            Population analysis using the SCF density.

 **********************************************************************

 Orbital symmetries:
       Occupied  (A) (A) (A) (A) (A) (A) (A) (A) (A) (A) (A) (A)
                 (A) (A) (A) (A) (A) (A) (A) (A) (A) (A) (A) (A)
                 (A) (A) (A) (A) (A) (A) (A) (A) (A) (A) (A) (A)
                 (A) (A) (A) (A) (A) (A) (A) (A)
       Virtual   (A) (A) (A) (A) (A) (A) (A) (A) (A) (A) (A) (A)
                 (A) (A) (A) (A) (A) (A) (A) (A) (A) (A) (A) (A)
                 (A) (A) (A) (A) (A) (A) (A) (A) (A) (A) (A) (A)
 The electronic state is 1-A.
 Alpha  occ. eigenvalues --   -1.56605  -1.50984  -1.47251  -1.43042  -1.39858
 Alpha  occ. eigenvalues --   -1.37076  -1.26201  -1.17241  -1.14757  -1.14176
 Alpha  occ. eigenvalues --   -1.00152  -0.94498  -0.92045  -0.85364  -0.82274
 Alpha  occ. eigenvalues --   -0.76775  -0.71462  -0.70765  -0.69731  -0.65500
 Alpha  occ. eigenvalues --   -0.62918  -0.62398  -0.61590  -0.60164  -0.58982
 Alpha  occ. eigenvalues --   -0.57752  -0.57640  -0.57522  -0.55813  -0.54639
 Alpha  occ. eigenvalues --   -0.54022  -0.53675  -0.50391  -0.50005  -0.48382
 Alpha  occ. eigenvalues --   -0.47926  -0.47583  -0.47392  -0.42797  -0.40386
 Alpha  occ. eigenvalues --   -0.39106  -0.38494  -0.35667  -0.35102
 Alpha virt. eigenvalues --   -0.06257  -0.01689  -0.01516  -0.00120   0.04077
 Alpha virt. eigenvalues --    0.04112   0.07912   0.08232   0.08355   0.09598
 Alpha virt. eigenvalues --    0.09907   0.10294   0.11480   0.11953   0.12817
 Alpha virt. eigenvalues --    0.13021   0.13139   0.13993   0.13998   0.14091
 Alpha virt. eigenvalues --    0.15097   0.15255   0.15907   0.16168   0.16360
 Alpha virt. eigenvalues --    0.16791   0.17341   0.17353   0.18133   0.18225
 Alpha virt. eigenvalues --    0.19286   0.19322   0.20919   0.21459   0.22730
 Alpha virt. eigenvalues --    0.23003
          Condensed to atoms (all electrons):
               1          2          3          4          5          6
     1  C    3.672934   0.000000   0.000000   0.000000   0.000000   0.000000
     2  C    0.000000   4.208527   0.000000   0.000000   0.000000   0.000000
     3  C    0.000000   0.000000   4.069546   0.000000   0.000000   0.000000
     4  O    0.000000   0.000000   0.000000   6.316754   0.000000   0.000000
     5  C    0.000000   0.000000   0.000000   0.000000   3.672937   0.000000
     6  C    0.000000   0.000000   0.000000   0.000000   0.000000   4.208527
     7  O    0.000000   0.000000   0.000000   0.000000   0.000000   0.000000
     8  C    0.000000   0.000000   0.000000   0.000000   0.000000   0.000000
     9  C    0.000000   0.000000   0.000000   0.000000   0.000000   0.000000
    10  C    0.000000   0.000000   0.000000   0.000000   0.000000   0.000000
    11  C    0.000000   0.000000   0.000000   0.000000   0.000000   0.000000
    12  C    0.000000   0.000000   0.000000   0.000000   0.000000   0.000000
    13  C    0.000000   0.000000   0.000000   0.000000   0.000000   0.000000
    14  C    0.000000   0.000000   0.000000   0.000000   0.000000   0.000000
    15  C    0.000000   0.000000   0.000000   0.000000   0.000000   0.000000
    16  C    0.000000   0.000000   0.000000   0.000000   0.000000   0.000000
    17  H    0.000000   0.000000   0.000000   0.000000   0.000000   0.000000
    18  H    0.000000   0.000000   0.000000   0.000000   0.000000   0.000000
    19  H    0.000000   0.000000   0.000000   0.000000   0.000000   0.000000
    20  H    0.000000   0.000000   0.000000   0.000000   0.000000   0.000000
    21  H    0.000000   0.000000   0.000000   0.000000   0.000000   0.000000
    22  H    0.000000   0.000000   0.000000   0.000000   0.000000   0.000000
    23  O    0.000000   0.000000   0.000000   0.000000   0.000000   0.000000
    24  H    0.000000   0.000000   0.000000   0.000000   0.000000   0.000000
    25  O    0.000000   0.000000   0.000000   0.000000   0.000000   0.000000
    26  H    0.000000   0.000000   0.000000   0.000000   0.000000   0.000000
               7          8          9         10         11         12
     1  C    0.000000   0.000000   0.000000   0.000000   0.000000   0.000000
     2  C    0.000000   0.000000   0.000000   0.000000   0.000000   0.000000
     3  C    0.000000   0.000000   0.000000   0.000000   0.000000   0.000000
     4  O    0.000000   0.000000   0.000000   0.000000   0.000000   0.000000
     5  C    0.000000   0.000000   0.000000   0.000000   0.000000   0.000000
     6  C    0.000000   0.000000   0.000000   0.000000   0.000000   0.000000
     7  O    6.316761   0.000000   0.000000   0.000000   0.000000   0.000000
     8  C    0.000000   4.069541   0.000000   0.000000   0.000000   0.000000
     9  C    0.000000   0.000000   3.847388   0.000000   0.000000   0.000000
    10  C    0.000000   0.000000   0.000000   3.847383   0.000000   0.000000
    11  C    0.000000   0.000000   0.000000   0.000000   4.119528   0.000000
    12  C    0.000000   0.000000   0.000000   0.000000   0.000000   4.119528
    13  C    0.000000   0.000000   0.000000   0.000000   0.000000   0.000000
    14  C    0.000000   0.000000   0.000000   0.000000   0.000000   0.000000
    15  C    0.000000   0.000000   0.000000   0.000000   0.000000   0.000000
    16  C    0.000000   0.000000   0.000000   0.000000   0.000000   0.000000
    17  H    0.000000   0.000000   0.000000   0.000000   0.000000   0.000000
    18  H    0.000000   0.000000   0.000000   0.000000   0.000000   0.000000
    19  H    0.000000   0.000000   0.000000   0.000000   0.000000   0.000000
    20  H    0.000000   0.000000   0.000000   0.000000   0.000000   0.000000
    21  H    0.000000   0.000000   0.000000   0.000000   0.000000   0.000000
    22  H    0.000000   0.000000   0.000000   0.000000   0.000000   0.000000
    23  O    0.000000   0.000000   0.000000   0.000000   0.000000   0.000000
    24  H    0.000000   0.000000   0.000000   0.000000   0.000000   0.000000
    25  O    0.000000   0.000000   0.000000   0.000000   0.000000   0.000000
    26  H    0.000000   0.000000   0.000000   0.000000   0.000000   0.000000
              13         14         15         16         17         18
     1  C    0.000000   0.000000   0.000000   0.000000   0.000000   0.000000
     2  C    0.000000   0.000000   0.000000   0.000000   0.000000   0.000000
     3  C    0.000000   0.000000   0.000000   0.000000   0.000000   0.000000
     4  O    0.000000   0.000000   0.000000   0.000000   0.000000   0.000000
     5  C    0.000000   0.000000   0.000000   0.000000   0.000000   0.000000
     6  C    0.000000   0.000000   0.000000   0.000000   0.000000   0.000000
     7  O    0.000000   0.000000   0.000000   0.000000   0.000000   0.000000
     8  C    0.000000   0.000000   0.000000   0.000000   0.000000   0.000000
     9  C    0.000000   0.000000   0.000000   0.000000   0.000000   0.000000
    10  C    0.000000   0.000000   0.000000   0.000000   0.000000   0.000000
    11  C    0.000000   0.000000   0.000000   0.000000   0.000000   0.000000
    12  C    0.000000   0.000000   0.000000   0.000000   0.000000   0.000000
    13  C    4.151979   0.000000   0.000000   0.000000   0.000000   0.000000
    14  C    0.000000   4.080232   0.000000   0.000000   0.000000   0.000000
    15  C    0.000000   0.000000   4.080234   0.000000   0.000000   0.000000
    16  C    0.000000   0.000000   0.000000   4.151978   0.000000   0.000000
    17  H    0.000000   0.000000   0.000000   0.000000   0.840367   0.000000
    18  H    0.000000   0.000000   0.000000   0.000000   0.000000   0.840366
    19  H    0.000000   0.000000   0.000000   0.000000   0.000000   0.000000
    20  H    0.000000   0.000000   0.000000   0.000000   0.000000   0.000000
    21  H    0.000000   0.000000   0.000000   0.000000   0.000000   0.000000
    22  H    0.000000   0.000000   0.000000   0.000000   0.000000   0.000000
    23  O    0.000000   0.000000   0.000000   0.000000   0.000000   0.000000
    24  H    0.000000   0.000000   0.000000   0.000000   0.000000   0.000000
    25  O    0.000000   0.000000   0.000000   0.000000   0.000000   0.000000
    26  H    0.000000   0.000000   0.000000   0.000000   0.000000   0.000000
              19         20         21         22         23         24
     1  C    0.000000   0.000000   0.000000   0.000000   0.000000   0.000000
     2  C    0.000000   0.000000   0.000000   0.000000   0.000000   0.000000
     3  C    0.000000   0.000000   0.000000   0.000000   0.000000   0.000000
     4  O    0.000000   0.000000   0.000000   0.000000   0.000000   0.000000
     5  C    0.000000   0.000000   0.000000   0.000000   0.000000   0.000000
     6  C    0.000000   0.000000   0.000000   0.000000   0.000000   0.000000
     7  O    0.000000   0.000000   0.000000   0.000000   0.000000   0.000000
     8  C    0.000000   0.000000   0.000000   0.000000   0.000000   0.000000
     9  C    0.000000   0.000000   0.000000   0.000000   0.000000   0.000000
    10  C    0.000000   0.000000   0.000000   0.000000   0.000000   0.000000
    11  C    0.000000   0.000000   0.000000   0.000000   0.000000   0.000000
    12  C    0.000000   0.000000   0.000000   0.000000   0.000000   0.000000
    13  C    0.000000   0.000000   0.000000   0.000000   0.000000   0.000000
    14  C    0.000000   0.000000   0.000000   0.000000   0.000000   0.000000
    15  C    0.000000   0.000000   0.000000   0.000000   0.000000   0.000000
    16  C    0.000000   0.000000   0.000000   0.000000   0.000000   0.000000
    17  H    0.000000   0.000000   0.000000   0.000000   0.000000   0.000000
    18  H    0.000000   0.000000   0.000000   0.000000   0.000000   0.000000
    19  H    0.841812   0.000000   0.000000   0.000000   0.000000   0.000000
    20  H    0.000000   0.854155   0.000000   0.000000   0.000000   0.000000
    21  H    0.000000   0.000000   0.841813   0.000000   0.000000   0.000000
    22  H    0.000000   0.000000   0.000000   0.854155   0.000000   0.000000
    23  O    0.000000   0.000000   0.000000   0.000000   6.265240   0.000000
    24  H    0.000000   0.000000   0.000000   0.000000   0.000000   0.731538
    25  O    0.000000   0.000000   0.000000   0.000000   0.000000   0.000000
    26  H    0.000000   0.000000   0.000000   0.000000   0.000000   0.000000
              25         26
     1  C    0.000000   0.000000
     2  C    0.000000   0.000000
     3  C    0.000000   0.000000
     4  O    0.000000   0.000000
     5  C    0.000000   0.000000
     6  C    0.000000   0.000000
     7  O    0.000000   0.000000
     8  C    0.000000   0.000000
     9  C    0.000000   0.000000
    10  C    0.000000   0.000000
    11  C    0.000000   0.000000
    12  C    0.000000   0.000000
    13  C    0.000000   0.000000
    14  C    0.000000   0.000000
    15  C    0.000000   0.000000
    16  C    0.000000   0.000000
    17  H    0.000000   0.000000
    18  H    0.000000   0.000000
    19  H    0.000000   0.000000
    20  H    0.000000   0.000000
    21  H    0.000000   0.000000
    22  H    0.000000   0.000000
    23  O    0.000000   0.000000
    24  H    0.000000   0.000000
    25  O    6.265237   0.000000
    26  H    0.000000   0.731539
 Mulliken charges:
               1
     1  C    0.327066
     2  C   -0.208527
     3  C   -0.069546
     4  O   -0.316754
     5  C    0.327063
     6  C   -0.208527
     7  O   -0.316761
     8  C   -0.069541
     9  C    0.152612
    10  C    0.152617
    11  C   -0.119528
    12  C   -0.119528
    13  C   -0.151979
    14  C   -0.080232
    15  C   -0.080234
    16  C   -0.151978
    17  H    0.159633
    18  H    0.159634
    19  H    0.158188
    20  H    0.145845
    21  H    0.158187
    22  H    0.145845
    23  O   -0.265240
    24  H    0.268462
    25  O   -0.265237
    26  H    0.268461
 Sum of Mulliken charges =  -0.00000
 Mulliken charges with hydrogens summed into heavy atoms:
               1
     1  C    0.327066
     2  C   -0.208527
     3  C   -0.069546
     4  O   -0.316754
     5  C    0.327063
     6  C   -0.208527
     7  O   -0.316761
     8  C   -0.069541
     9  C    0.152612
    10  C    0.152617
    11  C    0.040104
    12  C    0.040106
    13  C    0.006209
    14  C    0.065613
    15  C    0.065611
    16  C    0.006210
    23  O    0.003222
    25  O    0.003223
 Charge=             -0.0000 electrons
 Dipole moment (field-independent basis, Debye):
    X=             -0.0000    Y=             -0.0001    Z=              0.0001  Tot=              0.0001
 N-N= 6.777787795628D+02 E-N=-1.225755484459D+03  KE=-6.256158612261D+01
 Calling FoFJK, ICntrl=      2127 FMM=F ISym2X=0 I1Cent= 0 IOpClX= 0 NMat=1 NMatS=1 NMatT=0.
 ***** Axes restored to original set *****
 -------------------------------------------------------------------
 Center     Atomic                   Forces (Hartrees/Bohr)
 Number     Number              X              Y              Z
 -------------------------------------------------------------------
      1        6           0.002791107   -0.029982699   -0.000006317
      2        6          -0.017028597    0.000542171   -0.000001546
      3        6          -0.005992486    0.011827852    0.000003669
      4        8          -0.020575163    0.037839448    0.000006941
      5        6          -0.002801368    0.029957558    0.000005068
      6        6           0.017039809   -0.000540610    0.000000620
      7        8           0.020574109   -0.037820269   -0.000008501
      8        6           0.006002310   -0.011818481   -0.000000428
      9        6          -0.005325400    0.019800081    0.000004086
     10        6           0.005318347   -0.019801225   -0.000003944
     11        6          -0.006199146    0.007336072    0.000001983
     12        6           0.006196450   -0.007339896   -0.000002006
     13        6           0.012610818   -0.019436515   -0.000002840
     14        6          -0.007104872    0.013236399    0.000001735
     15        6           0.007103012   -0.013223879   -0.000003429
     16        6          -0.012610179    0.019426015    0.000003976
     17        1          -0.002661100   -0.009019221   -0.000002396
     18        1           0.002660919    0.009018535    0.000002109
     19        1           0.007662468    0.005889013    0.000001254
     20        1           0.007748085   -0.004514310   -0.000000669
     21        1          -0.007662781   -0.005889373   -0.000001182
     22        1          -0.007745710    0.004512073    0.000001223
     23        8          -0.001249911   -0.004946138   -0.000001232
     24        1           0.021364300    0.009105637    0.000002933
     25        8           0.001242184    0.004949118    0.000000768
     26        1          -0.021357206   -0.009107356   -0.000001873
 -------------------------------------------------------------------
 Cartesian Forces:  Max     0.037839448 RMS     0.011689189

 GradGradGradGradGradGradGradGradGradGradGradGradGradGradGradGradGradGrad
 Berny optimization.
 FormGI is forming the generalized inverse of G from B-inverse, IUseBI=4.
 Internal  Forces:  Max     0.043997721 RMS     0.013725595
 Search for a local minimum.
 Step number   1 out of a maximum of  150
 All quantities printed in internal units (Hartrees-Bohrs-Radians)
 Mixed Optimization -- RFO/linear search
 Second derivative matrix not updated -- first step.
 ITU=  0
     Eigenvalues ---    0.01092   0.01092   0.01092   0.01565   0.01648
     Eigenvalues ---    0.01776   0.01812   0.01889   0.01922   0.02102
     Eigenvalues ---    0.02103   0.02103   0.02103   0.02109   0.02109
     Eigenvalues ---    0.02115   0.02115   0.02158   0.02158   0.02158
     Eigenvalues ---    0.02158   0.02172   0.02172   0.16000   0.16000
     Eigenvalues ---    0.16000   0.16000   0.16000   0.16000   0.16000
     Eigenvalues ---    0.16000   0.22095   0.22101   0.23515   0.23549
     Eigenvalues ---    0.24912   0.24917   0.25000   0.25000   0.25000
     Eigenvalues ---    0.25000   0.25000   0.25000   0.25000   0.33346
     Eigenvalues ---    0.34107   0.34932   0.34932   0.35067   0.35068
     Eigenvalues ---    0.35085   0.35089   0.35089   0.35124   0.40124
     Eigenvalues ---    0.41861   0.41891   0.41993   0.45045   0.45595
     Eigenvalues ---    0.45932   0.46009   0.46046   0.46556   0.46603
     Eigenvalues ---    0.46604   0.50537   0.50539   0.51186   0.51186
     Eigenvalues ---    0.92009   0.92013
 RFO step:  Lambda=-7.00096704D-02 EMin= 1.09165684D-02
 Linear search not attempted -- first point.
 Maximum step size (   0.300) exceeded in Quadratic search.
    -- Step size scaled by   0.662
 Iteration  1 RMS(Cart)=  0.09864058 RMS(Int)=  0.00467589
 Iteration  2 RMS(Cart)=  0.00597347 RMS(Int)=  0.00004395
 Iteration  3 RMS(Cart)=  0.00002518 RMS(Int)=  0.00004264
 Iteration  4 RMS(Cart)=  0.00000000 RMS(Int)=  0.00004264
 Variable       Old X    -DE/DX   Delta X   Delta X   Delta X     New X
                                 (Linear)    (Quad)   (Total)
    R1        2.78773   0.01496   0.00000   0.02350   0.02350   2.81123
    R2        2.78838   0.00267   0.00000   0.00420   0.00420   2.79258
    R3        2.32019   0.03762   0.00000   0.02514   0.02514   2.34533
    R4        2.63549   0.02211   0.00000   0.02878   0.02885   2.66434
    R5        2.64811   0.04196   0.00000   0.05541   0.05549   2.70359
    R6        2.63549   0.02211   0.00000   0.02878   0.02885   2.66434
    R7        2.64938  -0.00666   0.00000  -0.00938  -0.00938   2.63999
    R8        2.78774   0.01495   0.00000   0.02349   0.02349   2.81123
    R9        2.32021   0.03760   0.00000   0.02513   0.02513   2.34534
   R10        2.78835   0.00268   0.00000   0.00422   0.00422   2.79257
   R11        2.64809   0.04196   0.00000   0.05542   0.05549   2.70359
   R12        2.64938  -0.00666   0.00000  -0.00938  -0.00939   2.64000
   R13        2.63307   0.02037   0.00000   0.02601   0.02601   2.65908
   R14        2.58687   0.00558   0.00000   0.00634   0.00634   2.59321
   R15        2.63308   0.02036   0.00000   0.02601   0.02601   2.65909
   R16        2.58687   0.00557   0.00000   0.00634   0.00634   2.59321
   R17        2.63685  -0.00146   0.00000  -0.00419  -0.00427   2.63258
   R18        2.05786   0.00902   0.00000   0.01423   0.01423   2.07209
   R19        2.63686  -0.00146   0.00000  -0.00419  -0.00427   2.63259
   R20        2.05786   0.00902   0.00000   0.01423   0.01423   2.07209
   R21        2.63453  -0.01031   0.00000  -0.01417  -0.01424   2.62029
   R22        2.05531   0.00958   0.00000   0.01506   0.01506   2.07037
   R23        2.05565   0.00897   0.00000   0.01411   0.01411   2.06976
   R24        2.63451  -0.01030   0.00000  -0.01416  -0.01423   2.62028
   R25        2.05566   0.00896   0.00000   0.01410   0.01410   2.06976
   R26        2.05531   0.00958   0.00000   0.01506   0.01506   2.07037
   R27        1.86027  -0.01630   0.00000  -0.01875  -0.01875   1.84152
   R28        1.86026  -0.01630   0.00000  -0.01874  -0.01874   1.84151
    A1        2.08967  -0.00114   0.00000  -0.00115  -0.00111   2.08856
    A2        2.08545   0.02491   0.00000   0.05091   0.05089   2.13633
    A3        2.10807  -0.02377   0.00000  -0.04975  -0.04978   2.05830
    A4        2.09217  -0.01530   0.00000  -0.03364  -0.03368   2.05849
    A5        2.10889   0.03220   0.00000   0.06278   0.06268   2.17157
    A6        2.08213  -0.01690   0.00000  -0.02914  -0.02900   2.05313
    A7        2.10135   0.01644   0.00000   0.03479   0.03480   2.13614
    A8        2.08374  -0.02448   0.00000  -0.05162  -0.05168   2.03206
    A9        2.09809   0.00804   0.00000   0.01683   0.01689   2.11498
   A10        2.08544   0.02491   0.00000   0.05091   0.05089   2.13633
   A11        2.08968  -0.00114   0.00000  -0.00116  -0.00112   2.08856
   A12        2.10807  -0.02376   0.00000  -0.04975  -0.04977   2.05830
   A13        2.09216  -0.01529   0.00000  -0.03364  -0.03368   2.05848
   A14        2.08213  -0.01690   0.00000  -0.02914  -0.02900   2.05314
   A15        2.10889   0.03220   0.00000   0.06278   0.06267   2.17157
   A16        2.10135   0.01644   0.00000   0.03479   0.03480   2.13614
   A17        2.09808   0.00805   0.00000   0.01684   0.01689   2.11498
   A18        2.08375  -0.02448   0.00000  -0.05163  -0.05169   2.03206
   A19        2.10445  -0.00609   0.00000  -0.00712  -0.00703   2.09742
   A20        2.14912   0.04400   0.00000   0.08826   0.08821   2.23733
   A21        2.02962  -0.03791   0.00000  -0.08113  -0.08118   1.94844
   A22        2.10444  -0.00609   0.00000  -0.00712  -0.00703   2.09741
   A23        2.14912   0.04400   0.00000   0.08825   0.08821   2.23733
   A24        2.02962  -0.03791   0.00000  -0.08114  -0.08118   1.94844
   A25        2.09510   0.00626   0.00000   0.00797   0.00789   2.10300
   A26        2.10334  -0.00588   0.00000  -0.01190  -0.01186   2.09148
   A27        2.08475  -0.00038   0.00000   0.00393   0.00397   2.08871
   A28        2.09509   0.00626   0.00000   0.00798   0.00790   2.10299
   A29        2.10335  -0.00588   0.00000  -0.01190  -0.01186   2.09148
   A30        2.08475  -0.00038   0.00000   0.00392   0.00396   2.08871
   A31        2.09361   0.00599   0.00000   0.01257   0.01250   2.10611
   A32        2.09184  -0.00433   0.00000  -0.01014  -0.01011   2.08173
   A33        2.09774  -0.00165   0.00000  -0.00243  -0.00240   2.09534
   A34        2.09300   0.00270   0.00000  -0.00111  -0.00126   2.09174
   A35        2.09653  -0.00133   0.00000   0.00062   0.00069   2.09722
   A36        2.09366  -0.00137   0.00000   0.00050   0.00057   2.09423
   A37        2.09300   0.00270   0.00000  -0.00111  -0.00126   2.09174
   A38        2.09651  -0.00133   0.00000   0.00062   0.00069   2.09721
   A39        2.09367  -0.00137   0.00000   0.00049   0.00057   2.09424
   A40        2.09361   0.00599   0.00000   0.01256   0.01250   2.10611
   A41        2.09183  -0.00433   0.00000  -0.01014  -0.01010   2.08173
   A42        2.09774  -0.00165   0.00000  -0.00243  -0.00239   2.09535
   A43        1.88948   0.03077   0.00000   0.08852   0.08852   1.97800
   A44        1.88948   0.03076   0.00000   0.08852   0.08852   1.97800
    D1        0.00003  -0.00000   0.00000   0.00000   0.00000   0.00003
    D2       -3.14157   0.00000   0.00000   0.00000   0.00000  -3.14157
    D3       -3.14156   0.00000   0.00000   0.00000   0.00000  -3.14156
    D4        0.00002   0.00000   0.00000   0.00000   0.00000   0.00002
    D5       -0.00001  -0.00000   0.00000  -0.00000  -0.00000  -0.00002
    D6        3.14156   0.00000   0.00000   0.00000   0.00000   3.14157
    D7        3.14158  -0.00000   0.00000  -0.00000  -0.00000   3.14158
    D8       -0.00003   0.00000   0.00000   0.00000   0.00000  -0.00003
    D9       -0.00002   0.00000   0.00000   0.00000   0.00000  -0.00002
   D10        3.14159   0.00000   0.00000  -0.00000  -0.00000   3.14159
   D11        3.14158  -0.00000   0.00000   0.00000   0.00000   3.14158
   D12        0.00001  -0.00000   0.00000  -0.00000  -0.00000   0.00001
   D13       -3.14159   0.00000   0.00000  -0.00000  -0.00000  -3.14159
   D14        0.00001   0.00000   0.00000   0.00000   0.00000   0.00001
   D15       -0.00001   0.00000   0.00000   0.00000   0.00000  -0.00001
   D16        3.14159   0.00000   0.00000   0.00000   0.00000   3.14159
   D17       -0.00001  -0.00000   0.00000  -0.00000  -0.00000  -0.00001
   D18        3.14158   0.00000   0.00000   0.00000   0.00000   3.14158
   D19       -3.14159  -0.00000   0.00000  -0.00000  -0.00000  -3.14159
   D20        0.00000  -0.00000   0.00000  -0.00000  -0.00000  -0.00000
   D21       -3.14158  -0.00000   0.00000  -0.00000  -0.00000  -3.14158
   D22        0.00002  -0.00000   0.00000  -0.00000  -0.00000   0.00002
   D23        0.00000   0.00000   0.00000   0.00000   0.00000   0.00000
   D24       -3.14159   0.00000   0.00000   0.00000   0.00000  -3.14159
   D25       -3.14157   0.00000   0.00000   0.00000   0.00000  -3.14157
   D26        0.00003   0.00000   0.00000  -0.00000  -0.00000   0.00003
   D27        0.00002   0.00000   0.00000   0.00000   0.00000   0.00002
   D28       -3.14157   0.00000   0.00000   0.00000   0.00000  -3.14157
   D29       -0.00000  -0.00000   0.00000  -0.00000  -0.00000  -0.00000
   D30        3.14157  -0.00000   0.00000  -0.00000  -0.00000   3.14157
   D31        3.14158  -0.00000   0.00000  -0.00000  -0.00000   3.14158
   D32       -0.00003   0.00000   0.00000   0.00000   0.00000  -0.00002
   D33       -0.00000   0.00000   0.00000   0.00000   0.00000  -0.00000
   D34       -3.14159   0.00000   0.00000   0.00000   0.00000  -3.14159
   D35        3.14159   0.00000   0.00000   0.00000   0.00000   3.14159
   D36       -0.00000   0.00000   0.00000   0.00000   0.00000   0.00000
   D37       -0.00000   0.00000   0.00000   0.00000   0.00000   0.00000
   D38        3.14158   0.00000   0.00000   0.00000   0.00000   3.14159
   D39       -3.14157  -0.00000   0.00000  -0.00000  -0.00000  -3.14158
   D40        0.00001  -0.00000   0.00000  -0.00000  -0.00000   0.00001
   D41       -0.00000   0.00000   0.00000   0.00000   0.00000  -0.00000
   D42       -3.14158  -0.00000   0.00000  -0.00000  -0.00000  -3.14158
   D43        3.14159   0.00000   0.00000   0.00000   0.00000   3.14159
   D44        0.00001  -0.00000   0.00000  -0.00000  -0.00000   0.00001
   D45       -0.00002  -0.00000   0.00000  -0.00000  -0.00000  -0.00002
   D46        3.14158  -0.00000   0.00000  -0.00000  -0.00000   3.14158
   D47        0.00000   0.00000   0.00000   0.00000   0.00000   0.00000
   D48        3.14159   0.00000   0.00000   0.00000   0.00000   3.14159
   D49        3.14159   0.00000   0.00000   0.00000   0.00000   3.14159
   D50       -0.00001   0.00000   0.00000   0.00000   0.00000  -0.00000
   D51       -0.00002  -0.00000   0.00000  -0.00000  -0.00000  -0.00002
   D52        3.14158  -0.00000   0.00000  -0.00000  -0.00000   3.14158
   D53       -0.00001   0.00000   0.00000   0.00000   0.00000  -0.00001
   D54        3.14159   0.00000   0.00000   0.00000   0.00000   3.14159
   D55       -3.14159  -0.00000   0.00000  -0.00000  -0.00000  -3.14159
   D56        0.00001  -0.00000   0.00000  -0.00000  -0.00000   0.00001
   D57       -0.00000  -0.00000   0.00000  -0.00000  -0.00000  -0.00000
   D58       -3.14159  -0.00000   0.00000  -0.00000  -0.00000  -3.14159
   D59        3.14159   0.00000   0.00000   0.00000   0.00000   3.14159
   D60        0.00000  -0.00000   0.00000  -0.00000  -0.00000   0.00000
   D61        0.00001  -0.00000   0.00000  -0.00000  -0.00000   0.00001
   D62       -3.14159  -0.00000   0.00000  -0.00000  -0.00000  -3.14159
   D63        3.14159   0.00000   0.00000   0.00000   0.00000   3.14159
   D64       -0.00001   0.00000   0.00000   0.00000   0.00000  -0.00001
   D65       -0.00000  -0.00000   0.00000  -0.00000  -0.00000  -0.00000
   D66       -3.14159  -0.00000   0.00000  -0.00000  -0.00000  -3.14159
   D67        3.14159   0.00000   0.00000   0.00000   0.00000   3.14159
   D68       -0.00000   0.00000   0.00000   0.00000   0.00000  -0.00000
         Item               Value     Threshold  Converged?
 Maximum Force            0.043998     0.000450     NO 
 RMS     Force            0.013726     0.000300     NO 
 Maximum Displacement     0.532100     0.001800     NO 
 RMS     Displacement     0.100975     0.001200     NO 
 Predicted change in Energy=-3.414827D-02
 GradGradGradGradGradGradGradGradGradGradGradGradGradGradGradGradGradGrad

                          Input orientation:                          
 ---------------------------------------------------------------------
 Center     Atomic      Atomic             Coordinates (Angstroms)
 Number     Number       Type             X           Y           Z
 ---------------------------------------------------------------------
      1          6           0       -0.043036    1.460038    0.000290
      2          6           0        1.275213    0.770628    0.000183
      3          6           0       -1.286231    0.661119    0.000100
      4          8           0       -0.146771    2.696791    0.000537
      5          6           0        0.040243   -1.438169   -0.000343
      6          6           0       -1.278009   -0.748765   -0.000203
      7          8           0        0.143972   -2.674926   -0.000634
      8          6           0        1.283434   -0.639255   -0.000139
      9          6           0        2.538781    1.441630    0.000373
     10          6           0       -2.541571   -1.419769   -0.000351
     11          6           0        2.482858   -1.355539   -0.000262
     12          6           0       -2.485650    1.377407    0.000250
     13          6           0        3.733951    0.698950    0.000245
     14          6           0        3.705258   -0.687350   -0.000067
     15          6           0       -3.708050    0.709210    0.000104
     16          6           0       -3.736742   -0.677085   -0.000193
     17          1           0        2.463483   -2.451869   -0.000506
     18          1           0       -2.466277    2.473736    0.000481
     19          1           0        4.693390    1.227906    0.000402
     20          1           0        4.642348   -1.254341   -0.000162
     21          1           0       -4.696180   -1.206044   -0.000311
     22          1           0       -4.645139    1.276208    0.000218
     23          8           0        2.782252    2.792128    0.000686
     24          1           0        1.970115    3.330705    0.000766
     25          8           0       -2.785039   -2.770267   -0.000638
     26          1           0       -1.972903   -3.308837   -0.000763
 ---------------------------------------------------------------------
                    Distance matrix (angstroms):
                    1          2          3          4          5
     1  C    0.000000
     2  C    1.487638   0.000000
     3  C    1.477771   2.563783   0.000000
     4  O    1.241096   2.394189   2.332881   0.000000
     5  C    2.899403   2.530600   2.483252   4.139187   0.000000
     6  C    2.530607   2.971111   1.409908   3.626508   1.487638
     7  O    4.139191   3.626506   3.629693   5.379579   1.241099
     8  C    2.483255   1.409908   2.879957   3.629696   1.477764
     9  C    2.581882   1.430681   3.903833   2.964391   3.812602
    10  C    3.812606   4.400645   2.430220   4.762471   2.581879
    11  C    3.782541   2.445198   4.274686   4.830769   2.444013
    12  C    2.444011   3.809497   1.397024   2.685355   3.782539
    13  C    3.852906   2.459782   5.020324   4.364787   4.267406
    14  C    4.319836   2.833870   5.170428   5.127430   3.741132
    15  C    3.741132   4.983641   2.422297   4.078381   4.319831
    16  C    4.267407   5.216854   2.792095   4.926554   3.852903
    17  H    4.646036   3.434599   4.873504   5.772532   2.626724
    18  H    2.626724   4.110878   2.162890   2.330207   4.646035
    19  H    4.742111   3.448628   6.006422   5.058140   5.362810
    20  H    5.414857   3.929135   6.230332   6.208631   4.605775
    21  H    5.362811   6.290053   3.887679   5.994101   4.742108
    22  H    4.605773   5.941900   3.414762   4.717348   5.414854
    23  O    3.123574   2.521434   4.592794   2.930574   5.041233
    24  H    2.748121   2.652712   4.210758   2.209763   5.144566
    25  O    5.041237   5.387354   3.744441   6.070353   3.123572
    26  H    5.144566   5.214623   4.028904   6.277128   2.748119
                    6          7          8          9         10
     6  C    0.000000
     7  O    2.394186   0.000000
     8  C    2.563783   2.332880   0.000000
     9  C    4.400650   4.762472   2.430222   0.000000
    10  C    1.430676   2.964382   3.903827   5.830744   0.000000
    11  C    3.809501   2.685362   1.397026   2.797728   5.024840
    12  C    2.445200   4.830767   4.274684   5.024841   2.797735
    13  C    5.216859   4.926559   2.792100   1.407126   6.623529
    14  C    4.983646   4.078384   2.422302   2.427596   6.289619
    15  C    2.833865   5.127422   5.170423   6.289621   2.427597
    16  C    2.459778   4.364781   5.020319   6.623529   1.407130
    17  H    4.110879   2.330212   2.162888   3.894226   5.110362
    18  H    3.434603   5.772532   4.873505   5.110367   3.894233
    19  H    6.290058   5.994105   3.887684   2.165183   7.704209
    20  H    5.941905   4.717356   3.414767   3.419539   7.185824
    21  H    3.448622   5.058131   6.006416   7.704209   2.165184
    22  H    3.929132   6.208626   6.230327   7.185824   3.419545
    23  O    5.387360   6.070354   3.744443   1.372270   6.788459
    24  H    5.214632   6.277133   4.028910   1.972811   6.551512
    25  O    2.521430   2.930562   4.592786   6.788456   1.372269
    26  H    2.652705   2.209752   4.210748   6.551506   1.972806
                   11         12         13         14         15
    11  C    0.000000
    12  C    5.670544   0.000000
    13  C    2.405443   6.256495   0.000000
    14  C    1.393104   6.526145   1.386597   0.000000
    15  C    6.526143   1.393108   7.442008   7.543707   0.000000
    16  C    6.256495   2.405446   7.596362   7.442007   1.386592
    17  H    1.096501   6.257577   3.397314   2.157668   6.933992
    18  H    6.257579   1.096500   6.449239   6.933997   2.157673
    19  H    3.400093   7.180596   1.095590   2.155135   8.417437
    20  H    2.161860   7.598319   2.154189   1.095270   8.578152
    21  H    7.180595   3.400097   8.642691   8.417435   2.155133
    22  H    7.598318   2.161859   8.398950   8.578152   1.095272
    23  O    4.158459   5.454560   2.299375   3.599821   6.816346
    24  H    4.714211   4.865102   3.168162   4.376698   6.254102
    25  O    5.454557   4.158466   7.384625   6.816341   3.599822
    26  H    4.865099   4.714212   6.973559   6.254095   4.376693
                   16         17         18         19         20
    16  C    0.000000
    17  H    6.449237   0.000000
    18  H    3.397316   6.968796   0.000000
    19  H    8.642691   4.302699   7.267250   0.000000
    20  H    8.398951   2.486267   8.026899   2.482771   0.000000
    21  H    1.095591   7.267246   4.302702   9.699904   9.338653
    22  H    2.154190   8.026896   2.486265   9.338653   9.626063
    23  O    7.384628   5.253677   5.258178   2.469664   4.453523
    24  H    6.973564   5.803582   4.518404   3.440638   5.306926
    25  O    2.299381   5.258171   5.253683   8.480111   7.580509
    26  H    3.168162   4.518398   5.803583   8.063591   6.926940
                   21         22         23         24         25
    21  H    0.000000
    22  H    2.482776   0.000000
    23  O    8.480114   7.580511   0.000000
    24  H    8.063596   6.926943   0.974490   0.000000
    25  O    2.469668   4.453531   7.869878   7.735202   0.000000
    26  H    3.440637   5.306928   7.735198   7.722105   0.974485
                   26
    26  H    0.000000
 Stoichiometry    C14H8O4
 Framework group  C1[X(C14H8O4)]
 Deg. of freedom    72
 Full point group                 C1      NOp   1
 Largest Abelian subgroup         C1      NOp   1
 Largest concise Abelian subgroup C1      NOp   1
                         Standard orientation:                         
 ---------------------------------------------------------------------
 Center     Atomic      Atomic             Coordinates (Angstroms)
 Number     Number       Type             X           Y           Z
 ---------------------------------------------------------------------
      1          6           0       -0.367978   -1.402225   -0.000024
      2          6           0       -1.438842   -0.369599   -0.000005
      3          6           0        1.049843   -0.985582   -0.000016
      4          8           0       -0.616593   -2.618165   -0.000047
      5          6           0        0.367977    1.402220   -0.000023
      6          6           0        1.438846    0.369599   -0.000010
      7          8           0        0.616598    2.618162   -0.000045
      8          6           0       -1.049839    0.985582   -0.000017
      9          6           0       -2.840202   -0.657761    0.000015
     10          6           0        2.840200    0.657765    0.000013
     11          6           0       -1.999118    2.010545   -0.000005
     12          6           0        1.999116   -2.010548   -0.000001
     13          6           0       -3.777968    0.391333    0.000027
     14          6           0       -3.360183    1.713492    0.000021
     15          6           0        3.360183   -1.713488    0.000022
     16          6           0        3.777967   -0.391333    0.000029
     17          1           0       -1.671902    3.057084   -0.000008
     18          1           0        1.671902   -3.057087   -0.000011
     19          1           0       -4.847512    0.153857    0.000051
     20          1           0       -4.099765    2.521350    0.000033
     21          1           0        4.847510   -0.153854    0.000046
     22          1           0        4.099762   -2.521353    0.000029
     23          8           0       -3.454002   -1.885106    0.000027
     24          1           0       -2.826321   -2.630524    0.000004
     25          8           0        3.453997    1.885111    0.000027
     26          1           0        2.826315    2.630522    0.000005
 ---------------------------------------------------------------------
 Rotational constants (GHZ):      0.7976603      0.3415703      0.2391588
 Standard basis: VSTO-6G (5D, 7F)
 There are    80 symmetry adapted cartesian basis functions of A   symmetry.
 There are    80 symmetry adapted basis functions of A   symmetry.
    80 basis functions,   480 primitive gaussians,    80 cartesian basis functions
    44 alpha electrons       44 beta electrons
       nuclear repulsion energy       671.1338839550 Hartrees.
 Integral buffers will be    131072 words long.
 Regular integral format.
 Two-electron integral symmetry is turned off.
 Do NDO integrals.
 One-electron integrals computed using PRISM.
 NBasis=    80 RedAO= F EigKep=  0.00D+00  NBF=    80
 NBsUse=    80 1.00D-04 EigRej=  0.00D+00 NBFU=    80
 Initial guess from the checkpoint file:  "anthracene-1-5-opt.chk"
 B after Tr=     0.000000    0.000000    0.000000
         Rot=    0.999994   -0.000000    0.000000    0.003545 Ang=   0.41 deg.
 Overlap will be assumed to be unity.
 Keep J ints in memory in canonical form, NReq=933890.
 Requested convergence on RMS density matrix=1.00D-08 within 128 cycles.
 Requested convergence on MAX density matrix=1.00D-06.
 Requested convergence on             energy=1.00D-06.
 No special actions if energy rises.
 SCF Done:  E(RAM1) = -0.145050001964     A.U. after   15 cycles
            NFock= 14  Conv=0.48D-08     -V/T= 0.9977
 Calling FoFJK, ICntrl=      2127 FMM=F ISym2X=0 I1Cent= 0 IOpClX= 0 NMat=1 NMatS=1 NMatT=0.
 ***** Axes restored to original set *****
 -------------------------------------------------------------------
 Center     Atomic                   Forces (Hartrees/Bohr)
 Number     Number              X              Y              Z
 -------------------------------------------------------------------
      1        6           0.016606169   -0.001626422   -0.000000134
      2        6           0.002737670    0.013059710    0.000001929
      3        6          -0.002471749   -0.007982905   -0.000000695
      4        8           0.013149429    0.007825444    0.000002020
      5        6          -0.016609434    0.001616254   -0.000001201
      6        6          -0.002733513   -0.013057656   -0.000002311
      7        8          -0.013148945   -0.007819430   -0.000001648
      8        6           0.002475913    0.007987322    0.000003575
      9        6          -0.022701178    0.000836738   -0.000000764
     10        6           0.022697473   -0.000835712    0.000000036
     11        6          -0.000494393    0.002991354    0.000001093
     12        6           0.000491236   -0.002994993   -0.000000999
     13        6           0.004331947   -0.009295035   -0.000001094
     14        6          -0.001953509    0.006621136    0.000000676
     15        6           0.001953917   -0.006614538   -0.000001916
     16        6          -0.004331235    0.009290134    0.000001801
     17        1          -0.001033311   -0.004731572   -0.000001337
     18        1           0.001033224    0.004731515    0.000001163
     19        1           0.002794544    0.003648560    0.000000632
     20        1           0.003346296   -0.002165858   -0.000000316
     21        1          -0.002794484   -0.003648377   -0.000000702
     22        1          -0.003345309    0.002164470    0.000000693
     23        8          -0.008454084   -0.000987558   -0.000000479
     24        1          -0.003910326   -0.010290543   -0.000002364
     25        8           0.008450500    0.000989781    0.000000092
     26        1           0.003913153    0.010288182    0.000002249
 -------------------------------------------------------------------
 Cartesian Forces:  Max     0.022701178 RMS     0.006587423

 GradGradGradGradGradGradGradGradGradGradGradGradGradGradGradGradGradGrad
 Berny optimization.
 Using GEDIIS/GDIIS optimizer.
 FormGI is forming the generalized inverse of G from B-inverse, IUseBI=4.
 Internal  Forces:  Max     0.035510329 RMS     0.008784633
 Search for a local minimum.
 Step number   2 out of a maximum of  150
 All quantities printed in internal units (Hartrees-Bohrs-Radians)
 Mixed Optimization -- RFO/linear search
 Update second derivatives using D2CorX and points    1    2
 DE= -4.31D-03 DEPred=-3.41D-02 R= 1.26D-01
 Trust test= 1.26D-01 RLast= 3.00D-01 DXMaxT set to 3.00D-01
 ITU=  0  0
 Use linear search instead of GDIIS.
     Eigenvalues ---    0.01092   0.01092   0.01092   0.01566   0.01645
     Eigenvalues ---    0.01775   0.01805   0.01894   0.01920   0.02103
     Eigenvalues ---    0.02103   0.02103   0.02103   0.02109   0.02109
     Eigenvalues ---    0.02111   0.02111   0.02158   0.02158   0.02159
     Eigenvalues ---    0.02159   0.02172   0.02172   0.15969   0.16000
     Eigenvalues ---    0.16000   0.16000   0.16000   0.16000   0.16000
     Eigenvalues ---    0.16866   0.22099   0.22118   0.23506   0.23532
     Eigenvalues ---    0.24727   0.24912   0.24912   0.25000   0.25000
     Eigenvalues ---    0.25000   0.25000   0.25000   0.32952   0.33367
     Eigenvalues ---    0.34120   0.34478   0.34932   0.34985   0.35067
     Eigenvalues ---    0.35076   0.35087   0.35089   0.37703   0.40167
     Eigenvalues ---    0.41886   0.41929   0.44798   0.45054   0.45783
     Eigenvalues ---    0.45872   0.45931   0.46048   0.46553   0.46605
     Eigenvalues ---    0.50260   0.50538   0.50770   0.51186   0.86235
     Eigenvalues ---    0.92011   0.95555
 RFO step:  Lambda=-3.52854278D-03 EMin= 1.09164912D-02
 Quartic linear search produced a step of -0.48284.
 Iteration  1 RMS(Cart)=  0.05148816 RMS(Int)=  0.00138168
 Iteration  2 RMS(Cart)=  0.00148254 RMS(Int)=  0.00002060
 Iteration  3 RMS(Cart)=  0.00000051 RMS(Int)=  0.00002060
 Variable       Old X    -DE/DX   Delta X   Delta X   Delta X     New X
                                 (Linear)    (Quad)   (Total)
    R1        2.81123  -0.02365  -0.01135  -0.01874  -0.03009   2.78114
    R2        2.79258   0.00665  -0.00203   0.01251   0.01048   2.80307
    R3        2.34533   0.00670  -0.01214   0.02300   0.01086   2.35619
    R4        2.66434  -0.00393  -0.01393   0.01485   0.00089   2.66523
    R5        2.70359  -0.03551  -0.02679  -0.00276  -0.02959   2.67400
    R6        2.66434  -0.00392  -0.01393   0.01485   0.00089   2.66523
    R7        2.63999   0.00152   0.00453  -0.00440   0.00013   2.64012
    R8        2.81123  -0.02365  -0.01134  -0.01875  -0.03009   2.78114
    R9        2.34534   0.00669  -0.01213   0.02299   0.01085   2.35619
   R10        2.79257   0.00665  -0.00204   0.01253   0.01049   2.80306
   R11        2.70359  -0.03551  -0.02679  -0.00275  -0.02959   2.67400
   R12        2.64000   0.00152   0.00453  -0.00441   0.00013   2.64012
   R13        2.65908   0.00604  -0.01256   0.02458   0.01201   2.67110
   R14        2.59321  -0.01329  -0.00306  -0.00878  -0.01184   2.58137
   R15        2.65909   0.00604  -0.01256   0.02457   0.01201   2.67110
   R16        2.59321  -0.01329  -0.00306  -0.00878  -0.01184   2.58137
   R17        2.63258   0.00663   0.00206   0.00601   0.00811   2.64070
   R18        2.07209   0.00475  -0.00687   0.01647   0.00960   2.08169
   R19        2.63259   0.00663   0.00206   0.00601   0.00811   2.64070
   R20        2.07209   0.00475  -0.00687   0.01647   0.00960   2.08169
   R21        2.62029   0.00025   0.00688  -0.00858  -0.00167   2.61862
   R22        2.07037   0.00421  -0.00727   0.01622   0.00895   2.07931
   R23        2.06976   0.00398  -0.00681   0.01526   0.00845   2.07821
   R24        2.62028   0.00025   0.00687  -0.00857  -0.00167   2.61861
   R25        2.06976   0.00398  -0.00681   0.01525   0.00844   2.07821
   R26        2.07037   0.00421  -0.00727   0.01622   0.00895   2.07931
   R27        1.84152  -0.00243   0.00905  -0.01591  -0.00685   1.83467
   R28        1.84151  -0.00242   0.00905  -0.01590  -0.00685   1.83466
    A1        2.08856  -0.00776   0.00054  -0.01761  -0.01709   2.07147
    A2        2.13633  -0.01225  -0.02457   0.00647  -0.01809   2.11824
    A3        2.05830   0.02002   0.02403   0.01114   0.03518   2.09348
    A4        2.05849   0.01395   0.01626   0.00954   0.02583   2.08431
    A5        2.17157  -0.02298  -0.03026  -0.00561  -0.03582   2.13575
    A6        2.05313   0.00903   0.01400  -0.00394   0.00999   2.06313
    A7        2.13614  -0.00618  -0.01680   0.00806  -0.00874   2.12741
    A8        2.03206   0.01051   0.02495  -0.00878   0.01621   2.04826
    A9        2.11498  -0.00432  -0.00815   0.00071  -0.00747   2.10751
   A10        2.13633  -0.01225  -0.02457   0.00647  -0.01809   2.11824
   A11        2.08856  -0.00777   0.00054  -0.01761  -0.01709   2.07147
   A12        2.05830   0.02001   0.02403   0.01114   0.03518   2.09348
   A13        2.05848   0.01395   0.01626   0.00955   0.02583   2.08431
   A14        2.05314   0.00903   0.01400  -0.00394   0.00999   2.06313
   A15        2.17157  -0.02298  -0.03026  -0.00561  -0.03582   2.13575
   A16        2.13614  -0.00618  -0.01680   0.00806  -0.00874   2.12740
   A17        2.11498  -0.00432  -0.00816   0.00072  -0.00747   2.10751
   A18        2.03206   0.01050   0.02496  -0.00878   0.01620   2.04827
   A19        2.09742   0.00516   0.00340   0.00239   0.00574   2.10316
   A20        2.23733  -0.02565  -0.04259   0.00319  -0.03938   2.19795
   A21        1.94844   0.02049   0.03920  -0.00558   0.03364   1.98207
   A22        2.09741   0.00516   0.00339   0.00240   0.00574   2.10316
   A23        2.23733  -0.02565  -0.04259   0.00319  -0.03937   2.19796
   A24        1.94844   0.02049   0.03920  -0.00559   0.03363   1.98207
   A25        2.10300  -0.00302  -0.00381   0.00227  -0.00150   2.10149
   A26        2.09148   0.00052   0.00573  -0.00810  -0.00239   2.08908
   A27        2.08871   0.00249  -0.00191   0.00583   0.00390   2.09261
   A28        2.10299  -0.00301  -0.00381   0.00228  -0.00150   2.10149
   A29        2.09148   0.00052   0.00573  -0.00810  -0.00240   2.08909
   A30        2.08871   0.00249  -0.00191   0.00583   0.00389   2.09261
   A31        2.10611  -0.00600  -0.00604  -0.00496  -0.01097   2.09514
   A32        2.08173   0.00109   0.00488  -0.00544  -0.00057   2.08116
   A33        2.09534   0.00491   0.00116   0.01040   0.01154   2.10689
   A34        2.09174  -0.00085   0.00061   0.00353   0.00421   2.09594
   A35        2.09722   0.00030  -0.00033  -0.00213  -0.00250   2.09472
   A36        2.09423   0.00055  -0.00028  -0.00140  -0.00171   2.09252
   A37        2.09174  -0.00085   0.00061   0.00352   0.00421   2.09595
   A38        2.09721   0.00030  -0.00034  -0.00212  -0.00250   2.09471
   A39        2.09424   0.00055  -0.00027  -0.00140  -0.00171   2.09253
   A40        2.10611  -0.00600  -0.00603  -0.00497  -0.01097   2.09514
   A41        2.08173   0.00109   0.00488  -0.00544  -0.00057   2.08115
   A42        2.09535   0.00491   0.00116   0.01040   0.01154   2.10689
   A43        1.97800  -0.01977  -0.04274  -0.01938  -0.06212   1.91588
   A44        1.97800  -0.01977  -0.04274  -0.01938  -0.06212   1.91588
    D1        0.00003  -0.00000  -0.00000  -0.00000  -0.00000   0.00003
    D2       -3.14157   0.00000  -0.00000  -0.00000  -0.00001  -3.14158
    D3       -3.14156  -0.00000  -0.00000  -0.00001  -0.00001  -3.14157
    D4        0.00002  -0.00000  -0.00000  -0.00001  -0.00001   0.00001
    D5       -0.00002  -0.00000   0.00000   0.00000   0.00000  -0.00001
    D6        3.14157   0.00000  -0.00000   0.00000   0.00000   3.14157
    D7        3.14158  -0.00000   0.00000   0.00000   0.00001   3.14158
    D8       -0.00003   0.00000  -0.00000   0.00001   0.00000  -0.00002
    D9       -0.00002   0.00000  -0.00000   0.00000   0.00000  -0.00002
   D10        3.14159  -0.00000   0.00000   0.00000   0.00000   3.14159
   D11        3.14158   0.00000  -0.00000   0.00000   0.00000   3.14158
   D12        0.00001  -0.00000   0.00000   0.00000   0.00000   0.00001
   D13       -3.14159  -0.00000   0.00000  -0.00000  -0.00000  -3.14159
   D14        0.00001  -0.00000  -0.00000  -0.00000  -0.00000   0.00000
   D15       -0.00001   0.00000  -0.00000  -0.00000  -0.00000  -0.00001
   D16        3.14159   0.00000  -0.00000  -0.00000  -0.00000   3.14159
   D17       -0.00001   0.00000   0.00000   0.00000   0.00000  -0.00001
   D18        3.14158   0.00000  -0.00000   0.00000   0.00000   3.14158
   D19       -3.14159  -0.00000   0.00000   0.00000   0.00000  -3.14159
   D20       -0.00000  -0.00000   0.00000   0.00000   0.00000   0.00000
   D21       -3.14158  -0.00000   0.00000  -0.00000  -0.00000  -3.14158
   D22        0.00002  -0.00000   0.00000  -0.00000  -0.00000   0.00001
   D23        0.00000   0.00000  -0.00000  -0.00000  -0.00000  -0.00000
   D24       -3.14159  -0.00000  -0.00000  -0.00000  -0.00000  -3.14159
   D25       -3.14157  -0.00000  -0.00000  -0.00001  -0.00001  -3.14157
   D26        0.00003  -0.00000   0.00000  -0.00001  -0.00001   0.00002
   D27        0.00002   0.00000  -0.00000  -0.00000  -0.00001   0.00001
   D28       -3.14157  -0.00000  -0.00000  -0.00000  -0.00001  -3.14157
   D29       -0.00000  -0.00000   0.00000   0.00000   0.00000  -0.00000
   D30        3.14157  -0.00000   0.00000   0.00000   0.00000   3.14158
   D31        3.14158  -0.00000   0.00000   0.00000   0.00000   3.14159
   D32       -0.00002   0.00000  -0.00000   0.00001   0.00000  -0.00002
   D33       -0.00000   0.00000  -0.00000  -0.00000  -0.00000  -0.00000
[...]
    13  C    5.179010   4.983815   2.799985   1.418230   6.561525
    14  C    4.956560   4.148954   2.424143   2.421066   6.235660
    15  C    2.823861   5.069777   5.151384   6.235658   2.421066
    16  C    2.457541   4.289292   4.989317   6.561524   1.418230
    17  H    4.104242   2.398723   2.159511   3.892179   5.067829
    18  H    3.432756   5.766239   4.882280   5.067826   3.892179
    19  H    6.249258   6.064410   3.900226   2.170435   7.640950
    20  H    5.922465   4.793577   3.417910   3.424482   7.138546
    21  H    3.440689   4.948665   5.962496   7.640949   2.170434
    22  H    3.925173   6.154590   6.218682   7.138544   3.424482
    23  O    5.268450   6.059471   3.714041   1.364321   6.648543
    24  H    5.022382   6.186595   3.940336   1.938455   6.338876
    25  O    2.470752   2.742040   4.465272   6.648546   1.364321
    26  H    2.551731   1.958691   4.010112   6.338883   1.938456
                   11         12         13         14         15
    11  C    0.000000
    12  C    5.661302   0.000000
    13  C    2.411114   6.229248   0.000000
    14  C    1.401051   6.506465   1.380453   0.000000
    15  C    6.506466   1.401051   7.413371   7.519558   0.000000
    16  C    6.229250   2.411114   7.561991   7.413372   1.380453
    17  H    1.102929   6.258396   3.409990   2.175413   6.920858
    18  H    6.258396   1.102929   6.428267   6.920856   2.175412
    19  H    3.421525   7.137232   1.100598   2.171677   8.377198
    20  H    2.168415   7.585243   2.155751   1.101366   8.559886
    21  H    7.137235   3.421525   8.602459   8.377200   2.171677
    22  H    7.585244   2.168415   8.375998   8.559885   1.101366
    23  O    4.147013   5.330929   2.324781   3.605226   6.698177
    24  H    4.651104   4.675277   3.170719   4.345811   6.070553
    25  O    5.330936   4.147013   7.264893   6.698183   3.605225
    26  H    4.675287   4.651107   6.782649   6.070563   4.345813
                   16         17         18         19         20
    16  C    0.000000
    17  H    6.428270   0.000000
    18  H    3.409989   6.979800   0.000000
    19  H    8.602459   4.335716   7.223719   0.000000
    20  H    8.376000   2.499906   8.020102   2.513401   0.000000
    21  H    1.100598   7.223722   4.335716   9.656269   9.301471
    22  H    2.155751   8.020104   2.499905   9.301469   9.613820
    23  O    7.264888   5.249481   5.137423   2.499266   4.480196
    24  H    6.782640   5.743089   4.340685   3.462213   5.300713
    25  O    2.324780   5.137430   5.249481   8.364620   7.465391
    26  H    3.170720   4.340695   5.743093   7.880406   6.751382
                   21         22         23         24         25
    21  H    0.000000
    22  H    2.513401   0.000000
    23  O    8.364615   7.465384   0.000000
    24  H    7.880397   6.751371   0.971185   0.000000
    25  O    2.499264   4.480195   7.693035   7.490930   0.000000
    26  H    3.462211   5.300714   7.490935   7.411596   0.971185
                   26
    26  H    0.000000
 Stoichiometry    C14H8O4
 Framework group  C1[X(C14H8O4)]
 Deg. of freedom    72
 Full point group                 C1      NOp   1
 Largest Abelian subgroup         C1      NOp   1
 Largest concise Abelian subgroup C1      NOp   1
                         Standard orientation:                         
 ---------------------------------------------------------------------
 Center     Atomic      Atomic             Coordinates (Angstroms)
 Number     Number       Type             X           Y           Z
 ---------------------------------------------------------------------
      1          6           0       -0.397596   -1.406188   -0.000030
      2          6           0       -1.418337   -0.351025   -0.000011
      3          6           0        1.028504   -1.006405   -0.000012
      4          8           0       -0.701383   -2.613493   -0.000042
      5          6           0        0.397595    1.406190   -0.000039
      6          6           0        1.418337    0.351026   -0.000013
      7          8           0        0.701380    2.613495   -0.000029
      8          6           0       -1.028505    1.006406   -0.000013
      9          6           0       -2.796119   -0.646746    0.000009
     10          6           0        2.796120    0.646745    0.000008
     11          6           0       -1.981913    2.021041    0.000006
     12          6           0        1.981912   -2.021041    0.000008
     13          6           0       -3.760502    0.393130    0.000029
     14          6           0       -3.348127    1.710551    0.000027
     15          6           0        3.348126   -1.710552    0.000030
     16          6           0        3.760502   -0.393131    0.000030
     17          1           0       -1.652780    3.073715    0.000002
     18          1           0        1.652778   -3.073715    0.000008
     19          1           0       -4.826645    0.119902    0.000046
     20          1           0       -4.091349    2.523342    0.000042
     21          1           0        4.826645   -0.119904    0.000047
     22          1           0        4.091347   -2.523344    0.000047
     23          8           0       -3.347520   -1.894675    0.000016
     24          1           0       -2.659783   -2.580400   -0.000005
     25          8           0        3.347524    1.894673    0.000011
     26          1           0        2.659792    2.580402   -0.000012
 ---------------------------------------------------------------------
 Rotational constants (GHZ):      0.7958863      0.3502568      0.2432197

 **********************************************************************

            Population analysis using the SCF density.

 **********************************************************************

 Orbital symmetries:
       Occupied  (A) (A) (A) (A) (A) (A) (A) (A) (A) (A) (A) (A)
                 (A) (A) (A) (A) (A) (A) (A) (A) (A) (A) (A) (A)
                 (A) (A) (A) (A) (A) (A) (A) (A) (A) (A) (A) (A)
                 (A) (A) (A) (A) (A) (A) (A) (A)
       Virtual   (A) (A) (A) (A) (A) (A) (A) (A) (A) (A) (A) (A)
                 (A) (A) (A) (A) (A) (A) (A) (A) (A) (A) (A) (A)
                 (A) (A) (A) (A) (A) (A) (A) (A) (A) (A) (A) (A)
 The electronic state is 1-A.
 Alpha  occ. eigenvalues --   -1.54977  -1.49602  -1.45888  -1.42925  -1.38948
 Alpha  occ. eigenvalues --   -1.37389  -1.25609  -1.16695  -1.14452  -1.13851
 Alpha  occ. eigenvalues --   -0.99913  -0.94387  -0.91417  -0.85169  -0.81829
 Alpha  occ. eigenvalues --   -0.76391  -0.71185  -0.70897  -0.69355  -0.64709
 Alpha  occ. eigenvalues --   -0.62619  -0.62188  -0.60717  -0.59804  -0.58731
 Alpha  occ. eigenvalues --   -0.57387  -0.57359  -0.57279  -0.54873  -0.54578
 Alpha  occ. eigenvalues --   -0.53713  -0.53550  -0.49805  -0.49415  -0.48349
 Alpha  occ. eigenvalues --   -0.47921  -0.47361  -0.47136  -0.42460  -0.40243
 Alpha  occ. eigenvalues --   -0.38824  -0.38265  -0.35477  -0.34881
 Alpha virt. eigenvalues --   -0.05988  -0.01756  -0.01262  -0.00087   0.04241
 Alpha virt. eigenvalues --    0.04378   0.07965   0.08410   0.08704   0.09686
 Alpha virt. eigenvalues --    0.09747   0.09937   0.11495   0.12115   0.12824
 Alpha virt. eigenvalues --    0.12871   0.13046   0.13825   0.13861   0.14205
 Alpha virt. eigenvalues --    0.15157   0.15346   0.15871   0.16022   0.16349
 Alpha virt. eigenvalues --    0.16732   0.17473   0.17481   0.18285   0.18340
 Alpha virt. eigenvalues --    0.19313   0.19377   0.21417   0.21979   0.22592
 Alpha virt. eigenvalues --    0.22874
          Condensed to atoms (all electrons):
               1          2          3          4          5          6
     1  C    3.678447   0.000000   0.000000   0.000000   0.000000   0.000000
     2  C    0.000000   4.204401   0.000000   0.000000   0.000000   0.000000
     3  C    0.000000   0.000000   4.070665   0.000000   0.000000   0.000000
     4  O    0.000000   0.000000   0.000000   6.327439   0.000000   0.000000
     5  C    0.000000   0.000000   0.000000   0.000000   3.678447   0.000000
     6  C    0.000000   0.000000   0.000000   0.000000   0.000000   4.204401
     7  O    0.000000   0.000000   0.000000   0.000000   0.000000   0.000000
     8  C    0.000000   0.000000   0.000000   0.000000   0.000000   0.000000
     9  C    0.000000   0.000000   0.000000   0.000000   0.000000   0.000000
    10  C    0.000000   0.000000   0.000000   0.000000   0.000000   0.000000
    11  C    0.000000   0.000000   0.000000   0.000000   0.000000   0.000000
    12  C    0.000000   0.000000   0.000000   0.000000   0.000000   0.000000
    13  C    0.000000   0.000000   0.000000   0.000000   0.000000   0.000000
    14  C    0.000000   0.000000   0.000000   0.000000   0.000000   0.000000
    15  C    0.000000   0.000000   0.000000   0.000000   0.000000   0.000000
    16  C    0.000000   0.000000   0.000000   0.000000   0.000000   0.000000
    17  H    0.000000   0.000000   0.000000   0.000000   0.000000   0.000000
    18  H    0.000000   0.000000   0.000000   0.000000   0.000000   0.000000
    19  H    0.000000   0.000000   0.000000   0.000000   0.000000   0.000000
    20  H    0.000000   0.000000   0.000000   0.000000   0.000000   0.000000
    21  H    0.000000   0.000000   0.000000   0.000000   0.000000   0.000000
    22  H    0.000000   0.000000   0.000000   0.000000   0.000000   0.000000
    23  O    0.000000   0.000000   0.000000   0.000000   0.000000   0.000000
    24  H    0.000000   0.000000   0.000000   0.000000   0.000000   0.000000
    25  O    0.000000   0.000000   0.000000   0.000000   0.000000   0.000000
    26  H    0.000000   0.000000   0.000000   0.000000   0.000000   0.000000
               7          8          9         10         11         12
     1  C    0.000000   0.000000   0.000000   0.000000   0.000000   0.000000
     2  C    0.000000   0.000000   0.000000   0.000000   0.000000   0.000000
     3  C    0.000000   0.000000   0.000000   0.000000   0.000000   0.000000
     4  O    0.000000   0.000000   0.000000   0.000000   0.000000   0.000000
     5  C    0.000000   0.000000   0.000000   0.000000   0.000000   0.000000
     6  C    0.000000   0.000000   0.000000   0.000000   0.000000   0.000000
     7  O    6.327439   0.000000   0.000000   0.000000   0.000000   0.000000
     8  C    0.000000   4.070665   0.000000   0.000000   0.000000   0.000000
     9  C    0.000000   0.000000   3.845393   0.000000   0.000000   0.000000
    10  C    0.000000   0.000000   0.000000   3.845394   0.000000   0.000000
    11  C    0.000000   0.000000   0.000000   0.000000   4.120238   0.000000
    12  C    0.000000   0.000000   0.000000   0.000000   0.000000   4.120238
    13  C    0.000000   0.000000   0.000000   0.000000   0.000000   0.000000
    14  C    0.000000   0.000000   0.000000   0.000000   0.000000   0.000000
    15  C    0.000000   0.000000   0.000000   0.000000   0.000000   0.000000
    16  C    0.000000   0.000000   0.000000   0.000000   0.000000   0.000000
    17  H    0.000000   0.000000   0.000000   0.000000   0.000000   0.000000
    18  H    0.000000   0.000000   0.000000   0.000000   0.000000   0.000000
    19  H    0.000000   0.000000   0.000000   0.000000   0.000000   0.000000
    20  H    0.000000   0.000000   0.000000   0.000000   0.000000   0.000000
    21  H    0.000000   0.000000   0.000000   0.000000   0.000000   0.000000
    22  H    0.000000   0.000000   0.000000   0.000000   0.000000   0.000000
    23  O    0.000000   0.000000   0.000000   0.000000   0.000000   0.000000
    24  H    0.000000   0.000000   0.000000   0.000000   0.000000   0.000000
    25  O    0.000000   0.000000   0.000000   0.000000   0.000000   0.000000
    26  H    0.000000   0.000000   0.000000   0.000000   0.000000   0.000000
              13         14         15         16         17         18
     1  C    0.000000   0.000000   0.000000   0.000000   0.000000   0.000000
     2  C    0.000000   0.000000   0.000000   0.000000   0.000000   0.000000
     3  C    0.000000   0.000000   0.000000   0.000000   0.000000   0.000000
     4  O    0.000000   0.000000   0.000000   0.000000   0.000000   0.000000
     5  C    0.000000   0.000000   0.000000   0.000000   0.000000   0.000000
     6  C    0.000000   0.000000   0.000000   0.000000   0.000000   0.000000
     7  O    0.000000   0.000000   0.000000   0.000000   0.000000   0.000000
     8  C    0.000000   0.000000   0.000000   0.000000   0.000000   0.000000
     9  C    0.000000   0.000000   0.000000   0.000000   0.000000   0.000000
    10  C    0.000000   0.000000   0.000000   0.000000   0.000000   0.000000
    11  C    0.000000   0.000000   0.000000   0.000000   0.000000   0.000000
    12  C    0.000000   0.000000   0.000000   0.000000   0.000000   0.000000
    13  C    4.151894   0.000000   0.000000   0.000000   0.000000   0.000000
    14  C    0.000000   4.081097   0.000000   0.000000   0.000000   0.000000
    15  C    0.000000   0.000000   4.081097   0.000000   0.000000   0.000000
    16  C    0.000000   0.000000   0.000000   4.151894   0.000000   0.000000
    17  H    0.000000   0.000000   0.000000   0.000000   0.835624   0.000000
    18  H    0.000000   0.000000   0.000000   0.000000   0.000000   0.835624
    19  H    0.000000   0.000000   0.000000   0.000000   0.000000   0.000000
    20  H    0.000000   0.000000   0.000000   0.000000   0.000000   0.000000
    21  H    0.000000   0.000000   0.000000   0.000000   0.000000   0.000000
    22  H    0.000000   0.000000   0.000000   0.000000   0.000000   0.000000
    23  O    0.000000   0.000000   0.000000   0.000000   0.000000   0.000000
    24  H    0.000000   0.000000   0.000000   0.000000   0.000000   0.000000
    25  O    0.000000   0.000000   0.000000   0.000000   0.000000   0.000000
    26  H    0.000000   0.000000   0.000000   0.000000   0.000000   0.000000
              19         20         21         22         23         24
     1  C    0.000000   0.000000   0.000000   0.000000   0.000000   0.000000
     2  C    0.000000   0.000000   0.000000   0.000000   0.000000   0.000000
     3  C    0.000000   0.000000   0.000000   0.000000   0.000000   0.000000
     4  O    0.000000   0.000000   0.000000   0.000000   0.000000   0.000000
     5  C    0.000000   0.000000   0.000000   0.000000   0.000000   0.000000
     6  C    0.000000   0.000000   0.000000   0.000000   0.000000   0.000000
     7  O    0.000000   0.000000   0.000000   0.000000   0.000000   0.000000
     8  C    0.000000   0.000000   0.000000   0.000000   0.000000   0.000000
     9  C    0.000000   0.000000   0.000000   0.000000   0.000000   0.000000
    10  C    0.000000   0.000000   0.000000   0.000000   0.000000   0.000000
    11  C    0.000000   0.000000   0.000000   0.000000   0.000000   0.000000
    12  C    0.000000   0.000000   0.000000   0.000000   0.000000   0.000000
    13  C    0.000000   0.000000   0.000000   0.000000   0.000000   0.000000
    14  C    0.000000   0.000000   0.000000   0.000000   0.000000   0.000000
    15  C    0.000000   0.000000   0.000000   0.000000   0.000000   0.000000
    16  C    0.000000   0.000000   0.000000   0.000000   0.000000   0.000000
    17  H    0.000000   0.000000   0.000000   0.000000   0.000000   0.000000
    18  H    0.000000   0.000000   0.000000   0.000000   0.000000   0.000000
    19  H    0.839323   0.000000   0.000000   0.000000   0.000000   0.000000
    20  H    0.000000   0.853730   0.000000   0.000000   0.000000   0.000000
    21  H    0.000000   0.000000   0.839323   0.000000   0.000000   0.000000
    22  H    0.000000   0.000000   0.000000   0.853730   0.000000   0.000000
    23  O    0.000000   0.000000   0.000000   0.000000   6.253789   0.000000
    24  H    0.000000   0.000000   0.000000   0.000000   0.000000   0.737960
    25  O    0.000000   0.000000   0.000000   0.000000   0.000000   0.000000
    26  H    0.000000   0.000000   0.000000   0.000000   0.000000   0.000000
              25         26
     1  C    0.000000   0.000000
     2  C    0.000000   0.000000
     3  C    0.000000   0.000000
     4  O    0.000000   0.000000
     5  C    0.000000   0.000000
     6  C    0.000000   0.000000
     7  O    0.000000   0.000000
     8  C    0.000000   0.000000
     9  C    0.000000   0.000000
    10  C    0.000000   0.000000
    11  C    0.000000   0.000000
    12  C    0.000000   0.000000
    13  C    0.000000   0.000000
    14  C    0.000000   0.000000
    15  C    0.000000   0.000000
    16  C    0.000000   0.000000
    17  H    0.000000   0.000000
    18  H    0.000000   0.000000
    19  H    0.000000   0.000000
    20  H    0.000000   0.000000
    21  H    0.000000   0.000000
    22  H    0.000000   0.000000
    23  O    0.000000   0.000000
    24  H    0.000000   0.000000
    25  O    6.253789   0.000000
    26  H    0.000000   0.737960
 Mulliken charges:
               1
     1  C    0.321553
     2  C   -0.204401
     3  C   -0.070665
     4  O   -0.327439
     5  C    0.321553
     6  C   -0.204401
     7  O   -0.327439
     8  C   -0.070665
     9  C    0.154607
    10  C    0.154606
    11  C   -0.120238
    12  C   -0.120238
    13  C   -0.151894
    14  C   -0.081097
    15  C   -0.081097
    16  C   -0.151894
    17  H    0.164376
    18  H    0.164376
    19  H    0.160677
    20  H    0.146270
    21  H    0.160677
    22  H    0.146270
    23  O   -0.253789
    24  H    0.262040
    25  O   -0.253789
    26  H    0.262040
 Sum of Mulliken charges =  -0.00000
 Mulliken charges with hydrogens summed into heavy atoms:
               1
     1  C    0.321553
     2  C   -0.204401
     3  C   -0.070665
     4  O   -0.327439
     5  C    0.321553
     6  C   -0.204401
     7  O   -0.327439
     8  C   -0.070665
     9  C    0.154607
    10  C    0.154606
    11  C    0.044138
    12  C    0.044138
    13  C    0.008783
    14  C    0.065174
    15  C    0.065174
    16  C    0.008783
    23  O    0.008251
    25  O    0.008250
 Charge=              0.0000 electrons
 Dipole moment (field-independent basis, Debye):
    X=              0.0000    Y=              0.0000    Z=              0.0000  Tot=              0.0000
 N-N= 6.743641365196D+02 E-N=-1.219474380142D+03  KE=-6.239226217527D+01
 1\1\GINC-GTX1080DELTA\FOpt\RAM1\ZDO\C14H8O4\MVEROT\11-Apr-2022\0\\#n A
 M1 Opt\\Geometry optimization\\0,1\C,-0.0140770913,1.4721946105,0.0002
 853726\C,1.2615984374,0.7456040493,0.0001692931\C,-1.2708505432,0.6885
 433159,0.000108279\O,-0.0610328099,2.7162469126,0.0005455296\C,0.01128
 6029,-1.4503310296,-0.0003624542\C,-1.2643901596,-0.7237404362,-0.0002
 014704\O,0.0582435583,-2.6943832161,-0.0006236773\C,1.2680593724,-0.66
 66792346,-0.0001414637\C,2.5011735851,1.4158187808,0.0003602049\C,-2.5
 039665676,-1.39395412,-0.0003502344\C,2.4677393566,-1.3732489888,-0.00
 02543324\C,-2.4705298722,1.3951137067,0.0002607901\C,3.7184657651,0.68
 80990021,0.0002435956\C,3.6920689774,-0.6921014963,-0.0000607245\C,-3.
 6948601707,0.713967412,0.0001102511\C,-3.7212580708,-0.6662329394,-0.0
 001919568\H,2.4470037956,-2.4759828421,-0.0004997205\H,-2.4497935992,2
 .4978475929,0.0005022355\H,4.6652135062,1.2493334285,0.0004013598\H,4.
 6333940081,-1.2638662488,-0.0001535508\H,-4.6680061765,-1.2274666977,-
 0.0003159606\H,-4.6361845759,1.2857330809,0.0002345531\O,2.6805052309,
 2.7683020257,0.0006660004\H,1.8280712465,3.233657943,0.0007304677\O,-2
 .6833023695,-2.7464370126,-0.0006470616\H,-1.8308708621,-3.2117975986,
 -0.0007553253\\Version=AM64L-G09RevD.01\State=1-A\HF=-0.1544199\RMSD=5
 .319e-09\RMSF=1.161e-04\Dipole=-0.0000042,-0.0000034,0.0000092\PG=C01 
 [X(C14H8O4)]\\@


 MARY HAD A LITTLE LAMB
      HIS FEET WERE BLACK AS SOOT,
           AND EVERYWHERE THAT MARY WENT
                HIS SOOTY FOOT HE PUT.

                    -- NONAME
 Job cpu time:       0 days  0 hours  0 minutes  4.0 seconds.
 File lengths (MBytes):  RWF=    132 Int=      0 D2E=      0 Chk=      3 Scr=      2
 Normal termination of Gaussian 09 at Mon Apr 11 23:40:56 2022.
