 Entering Gaussian System, Link 0=g09
 Input=/scratch/mverot/1-2-ethanediol-redundant-opt/1-2-ethanediol-redundant-opt.com
 Output=/scratch/mverot/1-2-ethanediol-redundant-opt/1-2-ethanediol-redundant-opt.log
 Initial command:
 /opt/g09/l1.exe "/scratch/mverot/1-2-ethanediol-redundant-opt/Gau-1488810.inp" -scrdir="/scratch/mverot/1-2-ethanediol-redundant-opt/"
 Entering Link 1 = /opt/g09/l1.exe PID=   1488812.
  
 Copyright (c) 1988,1990,1992,1993,1995,1998,2003,2009,2013,
            Gaussian, Inc.  All Rights Reserved.
  
 This is part of the Gaussian(R) 09 program.  It is based on
 the Gaussian(R) 03 system (copyright 2003, Gaussian, Inc.),
 the Gaussian(R) 98 system (copyright 1998, Gaussian, Inc.),
 the Gaussian(R) 94 system (copyright 1995, Gaussian, Inc.),
 the Gaussian 92(TM) system (copyright 1992, Gaussian, Inc.),
 the Gaussian 90(TM) system (copyright 1990, Gaussian, Inc.),
 the Gaussian 88(TM) system (copyright 1988, Gaussian, Inc.),
 the Gaussian 86(TM) system (copyright 1986, Carnegie Mellon
 University), and the Gaussian 82(TM) system (copyright 1983,
 Carnegie Mellon University). Gaussian is a federally registered
 trademark of Gaussian, Inc.
  
 This software contains proprietary and confidential information,
 including trade secrets, belonging to Gaussian, Inc.
  
 This software is provided under written license and may be
 used, copied, transmitted, or stored only in accord with that
 written license.
  
 The following legend is applicable only to US Government
 contracts under FAR:
  
                    RESTRICTED RIGHTS LEGEND
  
 Use, reproduction and disclosure by the US Government is
 subject to restrictions as set forth in subparagraphs (a)
 and (c) of the Commercial Computer Software - Restricted
 Rights clause in FAR 52.227-19.
  
 Gaussian, Inc.
 340 Quinnipiac St., Bldg. 40, Wallingford CT 06492
  
  
 ---------------------------------------------------------------
 Warning -- This program may not be used in any manner that
 competes with the business of Gaussian, Inc. or will provide
 assistance to any competitor of Gaussian, Inc.  The licensee
 of this program is prohibited from giving any competitor of
 Gaussian, Inc. access to this program.  By using this program,
 the user acknowledges that Gaussian, Inc. is engaged in the
 business of creating and licensing software in the field of
 computational chemistry and represents and warrants to the
 licensee that it is not a competitor of Gaussian, Inc. and that
 it will not use this program in any manner prohibited above.
 ---------------------------------------------------------------
  

 Cite this work as:
 Gaussian 09, Revision D.01,
 M. J. Frisch, G. W. Trucks, H. B. Schlegel, G. E. Scuseria, 
 M. A. Robb, J. R. Cheeseman, G. Scalmani, V. Barone, B. Mennucci, 
 G. A. Petersson, H. Nakatsuji, M. Caricato, X. Li, H. P. Hratchian, 
 A. F. Izmaylov, J. Bloino, G. Zheng, J. L. Sonnenberg, M. Hada, 
 M. Ehara, K. Toyota, R. Fukuda, J. Hasegawa, M. Ishida, T. Nakajima, 
 Y. Honda, O. Kitao, H. Nakai, T. Vreven, J. A. Montgomery, Jr., 
 J. E. Peralta, F. Ogliaro, M. Bearpark, J. J. Heyd, E. Brothers, 
 K. N. Kudin, V. N. Staroverov, T. Keith, R. Kobayashi, J. Normand, 
 K. Raghavachari, A. Rendell, J. C. Burant, S. S. Iyengar, J. Tomasi, 
 M. Cossi, N. Rega, J. M. Millam, M. Klene, J. E. Knox, J. B. Cross, 
 V. Bakken, C. Adamo, J. Jaramillo, R. Gomperts, R. E. Stratmann, 
 O. Yazyev, A. J. Austin, R. Cammi, C. Pomelli, J. W. Ochterski, 
 R. L. Martin, K. Morokuma, V. G. Zakrzewski, G. A. Voth, 
 P. Salvador, J. J. Dannenberg, S. Dapprich, A. D. Daniels, 
 O. Farkas, J. B. Foresman, J. V. Ortiz, J. Cioslowski, 
 and D. J. Fox, Gaussian, Inc., Wallingford CT, 2013.
 
 ******************************************
 Gaussian 09:  AM64L-G09RevD.01 24-Apr-2013
                18-Apr-2022 
 ******************************************
 %chk=1-2-ethanediol-opt
 -----------------------
 #n PM6 Opt=modredundant
 -----------------------
 1/14=-1,18=120,19=15,26=1,38=1/1,3;
 2/9=110,12=2,17=6,18=5,40=1/2;
 3/5=2,16=1,25=1,41=3900000,71=1/1,2,3;
 4/35=1/1;
 5/5=2,35=1,38=5/2;
 6/7=2,8=2,9=2,10=2,28=1/1;
 7//1,2,3,16;
 1/14=-1,18=20,19=15,26=1/3(2);
 2/9=110/2;
 99//99;
 2/9=110/2;
 3/5=2,16=1,25=1,41=3900000,71=1,135=20/1,2,3;
 4/5=5,16=3,35=1/1;
 5/5=2,35=1,38=5/2;
 7//1,2,3,16;
 1/14=-1,18=20,19=15,26=1/3(-5);
 2/9=110/2;
 6/7=2,8=2,9=2,10=2,19=2,28=1/1;
 99/9=1/99;
 -------------------------
 Optimisation de geometrie
 -------------------------
 Symbolic Z-matrix:
 Charge =  0 Multiplicity = 1
 C                     1.0379    2.1554    1.623 
 O                     1.6569    2.075     2.9094 
 C                     1.3393    0.836     0.929 
 O                     2.7356    0.6333    0.8072 
 H                     1.4617    2.9816    1.0336 
 H                    -0.0497    2.3075    1.709 
 H                     1.6972    2.965     3.2882 
 H                     0.9208    0.8398   -0.083 
 H                     0.8609    0.0177    1.4923 
 H                     3.0927    0.8053    1.6951 
 
 The following ModRedundant input section has been read:
 D       2       1       3       4 S  36 10.000                                
 

 GradGradGradGradGradGradGradGradGradGradGradGradGradGradGradGradGradGrad
 Berny optimization.
 Initialization pass.
                           ----------------------------
                           !    Initial Parameters    !
                           ! (Angstroms and Degrees)  !
 --------------------------                            --------------------------
 ! Name  Definition              Value          Derivative Info.                !
 --------------------------------------------------------------------------------
 ! R1    R(1,2)                  1.4298         estimate D2E/DX2                !
 ! R2    R(1,3)                  1.521          estimate D2E/DX2                !
 ! R3    R(1,5)                  1.0998         estimate D2E/DX2                !
 ! R4    R(1,6)                  1.1015         estimate D2E/DX2                !
 ! R5    R(2,7)                  0.9681         estimate D2E/DX2                !
 ! R6    R(3,4)                  1.4162         estimate D2E/DX2                !
 ! R7    R(3,8)                  1.0951         estimate D2E/DX2                !
 ! R8    R(3,9)                  1.1026         estimate D2E/DX2                !
 ! R9    R(4,10)                 0.9724         estimate D2E/DX2                !
 ! A1    A(2,1,3)              106.0187         estimate D2E/DX2                !
 ! A2    A(2,1,5)              110.9508         estimate D2E/DX2                !
 ! A3    A(2,1,6)              111.405          estimate D2E/DX2                !
 ! A4    A(3,1,5)              109.3158         estimate D2E/DX2                !
 ! A5    A(3,1,6)              110.5522         estimate D2E/DX2                !
 ! A6    A(5,1,6)              108.5765         estimate D2E/DX2                !
 ! A7    A(1,2,7)              108.5636         estimate D2E/DX2                !
 ! A8    A(1,3,4)              111.026          estimate D2E/DX2                !
 ! A9    A(1,3,8)              110.0549         estimate D2E/DX2                !
 ! A10   A(1,3,9)              108.9477         estimate D2E/DX2                !
 ! A11   A(4,3,8)              107.3256         estimate D2E/DX2                !
 ! A12   A(4,3,9)              111.4381         estimate D2E/DX2                !
 ! A13   A(8,3,9)              107.9908         estimate D2E/DX2                !
 ! A14   A(3,4,10)             104.9658         estimate D2E/DX2                !
 ! D1    D(3,1,2,7)            164.9577         estimate D2E/DX2                !
 ! D2    D(5,1,2,7)             46.3753         estimate D2E/DX2                !
 ! D3    D(6,1,2,7)            -74.7213         estimate D2E/DX2                !
 ! D4    D(2,1,3,4)            -59.4136         Scan                            !
 ! D5    D(2,1,3,8)           -178.0964         estimate D2E/DX2                !
 ! D6    D(2,1,3,9)             63.6768         estimate D2E/DX2                !
 ! D7    D(5,1,3,4)             60.2449         estimate D2E/DX2                !
 ! D8    D(5,1,3,8)            -58.4379         estimate D2E/DX2                !
 ! D9    D(5,1,3,9)           -176.6647         estimate D2E/DX2                !
 ! D10   D(6,1,3,4)            179.7124         estimate D2E/DX2                !
 ! D11   D(6,1,3,8)             61.0297         estimate D2E/DX2                !
 ! D12   D(6,1,3,9)            -57.1972         estimate D2E/DX2                !
 ! D13   D(1,3,4,10)            49.1359         estimate D2E/DX2                !
 ! D14   D(8,3,4,10)           169.4508         estimate D2E/DX2                !
 ! D15   D(9,3,4,10)           -72.5093         estimate D2E/DX2                !
 --------------------------------------------------------------------------------
 Trust Radius=3.00D-01 FncErr=1.00D-07 GrdErr=1.00D-07
 Number of optimizations in scan=  37
 Number of steps in this run=     48 maximum allowed number of steps=    100.
 GradGradGradGradGradGradGradGradGradGradGradGradGradGradGradGradGradGrad

                          Input orientation:                          
 ---------------------------------------------------------------------
 Center     Atomic      Atomic             Coordinates (Angstroms)
 Number     Number       Type             X           Y           Z
 ---------------------------------------------------------------------
      1          6           0        1.037900    2.155400    1.623000
      2          8           0        1.656900    2.075000    2.909400
      3          6           0        1.339300    0.836000    0.929000
      4          8           0        2.735600    0.633300    0.807200
      5          1           0        1.461700    2.981600    1.033600
      6          1           0       -0.049700    2.307500    1.709000
      7          1           0        1.697200    2.965000    3.288200
      8          1           0        0.920800    0.839800   -0.083000
      9          1           0        0.860900    0.017700    1.492300
     10          1           0        3.092700    0.805300    1.695100
 ---------------------------------------------------------------------
                    Distance matrix (angstroms):
                    1          2          3          4          5
     1  C    0.000000
     2  O    1.429843   0.000000
     3  C    1.520952   2.357536   0.000000
     4  O    2.421674   2.767912   1.416184   0.000000
     5  H    1.099821   2.092523   2.151632   2.681155   0.000000
     6  H    1.101546   2.099405   2.168648   3.372549   1.787430
     7  H    1.965457   0.968098   3.197899   3.559559   2.266927
     8  H    2.157534   3.319943   1.095126   2.031895   2.475212
     9  H    2.148993   2.621883   1.102628   2.088738   3.058769
    10  H    2.459710   2.268961   1.913704   0.972353   2.798933
                    6          7          8          9         10
     6  H    0.000000
     7  H    2.444962   0.000000
     8  H    2.511429   4.060081   0.000000
     9  H    2.473729   3.551230   1.777922   0.000000
    10  H    3.483027   3.024846   2.807130   2.375368   0.000000
 Stoichiometry    C2H6O2
 Framework group  C1[X(C2H6O2)]
 Deg. of freedom    24
 Full point group                 C1      NOp   1
 Largest Abelian subgroup         C1      NOp   1
 Largest concise Abelian subgroup C1      NOp   1
                         Standard orientation:                         
 ---------------------------------------------------------------------
 Center     Atomic      Atomic             Coordinates (Angstroms)
 Number     Number       Type             X           Y           Z
 ---------------------------------------------------------------------
      1          6           0        0.684527    0.611474   -0.262380
      2          8           0        1.316614   -0.576038    0.222113
      3          6           0       -0.741473    0.573046    0.265198
      4          8           0       -1.420502   -0.583538   -0.189564
      5          1           0        0.665344    0.626165   -1.361935
      6          1           0        1.203588    1.516259    0.091657
      7          1           0        2.135630   -0.714104   -0.275245
      8          1           0       -1.299628    1.442666   -0.097466
      9          1           0       -0.717100    0.619137    1.366593
     10          1           0       -0.815056   -1.320637   -0.000906
 ---------------------------------------------------------------------
 Rotational constants (GHZ):     15.1386151      5.7121834      4.6692489
 Standard basis: VSTO-6G (5D, 7F)
 There are    22 symmetry adapted cartesian basis functions of A   symmetry.
 There are    22 symmetry adapted basis functions of A   symmetry.
    22 basis functions,   132 primitive gaussians,    22 cartesian basis functions
    13 alpha electrons       13 beta electrons
       nuclear repulsion energy       100.3671953382 Hartrees.
 Integral buffers will be    131072 words long.
 Regular integral format.
 Two-electron integral symmetry is turned off.
 Do NDO integrals.
 One-electron integrals computed using PRISM.
 NBasis=    22 RedAO= F EigKep=  0.00D+00  NBF=    22
 NBsUse=    22 1.00D-04 EigRej=  0.00D+00 NBFU=    22
 Simple Huckel Guess.
 Overlap will be assumed to be unity.
 Keep J ints in memory in canonical form, NReq=887849.
 Requested convergence on RMS density matrix=1.00D-08 within 128 cycles.
 Requested convergence on MAX density matrix=1.00D-06.
 Requested convergence on             energy=1.00D-06.
 No special actions if energy rises.
 SCF Done:  E(RPM6) = -0.147937956103     A.U. after   12 cycles
            NFock= 12  Conv=0.98D-08     -V/T= 0.9894

 **********************************************************************

            Population analysis using the SCF density.

 **********************************************************************

 Orbital symmetries:
       Occupied  (A) (A) (A) (A) (A) (A) (A) (A) (A) (A) (A) (A)
                 (A)
       Virtual   (A) (A) (A) (A) (A) (A) (A) (A) (A)
 The electronic state is 1-A.
 Alpha  occ. eigenvalues --   -1.13594  -1.09161  -0.97464  -0.81506  -0.69761
 Alpha  occ. eigenvalues --   -0.64458  -0.60312  -0.56032  -0.53133  -0.48665
 Alpha  occ. eigenvalues --   -0.45616  -0.40203  -0.38494
 Alpha virt. eigenvalues --    0.07941   0.10615   0.12087   0.17776   0.18513
 Alpha virt. eigenvalues --    0.19057   0.19436   0.20267   0.22093
          Condensed to atoms (all electrons):
               1          2          3          4          5          6
     1  C    4.081259   0.000000   0.000000   0.000000   0.000000   0.000000
     2  O    0.000000   6.540469   0.000000   0.000000   0.000000   0.000000
     3  C    0.000000   0.000000   4.020046   0.000000   0.000000   0.000000
     4  O    0.000000   0.000000   0.000000   6.520050   0.000000   0.000000
     5  H    0.000000   0.000000   0.000000   0.000000   0.870336   0.000000
     6  H    0.000000   0.000000   0.000000   0.000000   0.000000   0.873720
     7  H    0.000000   0.000000   0.000000   0.000000   0.000000   0.000000
     8  H    0.000000   0.000000   0.000000   0.000000   0.000000   0.000000
     9  H    0.000000   0.000000   0.000000   0.000000   0.000000   0.000000
    10  H    0.000000   0.000000   0.000000   0.000000   0.000000   0.000000
               7          8          9         10
     1  C    0.000000   0.000000   0.000000   0.000000
     2  O    0.000000   0.000000   0.000000   0.000000
     3  C    0.000000   0.000000   0.000000   0.000000
     4  O    0.000000   0.000000   0.000000   0.000000
     5  H    0.000000   0.000000   0.000000   0.000000
     6  H    0.000000   0.000000   0.000000   0.000000
     7  H    0.689226   0.000000   0.000000   0.000000
     8  H    0.000000   0.856771   0.000000   0.000000
     9  H    0.000000   0.000000   0.869979   0.000000
    10  H    0.000000   0.000000   0.000000   0.678144
 Mulliken charges:
               1
     1  C   -0.081259
     2  O   -0.540469
     3  C   -0.020046
     4  O   -0.520050
     5  H    0.129664
     6  H    0.126280
     7  H    0.310774
     8  H    0.143229
     9  H    0.130021
    10  H    0.321856
 Sum of Mulliken charges =   0.00000
 Mulliken charges with hydrogens summed into heavy atoms:
               1
     1  C    0.174685
     2  O   -0.229695
     3  C    0.253204
     4  O   -0.198194
 Charge=              0.0000 electrons
 Dipole moment (field-independent basis, Debye):
    X=              2.2390    Y=              1.6739    Z=             -0.5910  Tot=              2.8573
 N-N= 1.003671953382D+02 E-N=-1.694516346776D+02  KE=-1.401066696023D+01
 Calling FoFJK, ICntrl=      2127 FMM=F ISym2X=0 I1Cent= 0 IOpClX= 0 NMat=1 NMatS=1 NMatT=0.
 ***** Axes restored to original set *****
 -------------------------------------------------------------------
 Center     Atomic                   Forces (Hartrees/Bohr)
 Number     Number              X              Y              Z
 -------------------------------------------------------------------
      1        6          -0.004692801    0.008181921   -0.010347321
      2        8          -0.000939357   -0.002316524    0.001774387
      3        6          -0.015845427   -0.005503605   -0.000489327
      4        8          -0.001120985   -0.001862744   -0.004587500
      5        1           0.002790303    0.005765093    0.001497602
      6        1          -0.001839178    0.001357954    0.005230127
      7        1           0.001932024    0.003729876    0.005099711
      8        1           0.002426611   -0.002030342   -0.007898162
      9        1           0.003519397   -0.006545585    0.001729351
     10        1           0.013769413   -0.000776043    0.007991133
 -------------------------------------------------------------------
 Cartesian Forces:  Max     0.015845427 RMS     0.005822303

 GradGradGradGradGradGradGradGradGradGradGradGradGradGradGradGradGradGrad
 Berny optimization.
 FormGI is forming the generalized inverse of G from B-inverse, IUseBI=4.
 Internal  Forces:  Max     0.018725191 RMS     0.005960942
 Search for a local minimum.
 Step number   1 out of a maximum of   48 on scan point     1 out of    37
 All quantities printed in internal units (Hartrees-Bohrs-Radians)
 Mixed Optimization -- RFO/linear search
 Second derivative matrix not updated -- first step.
 ITU=  0
     Eigenvalues ---    0.01297   0.01478   0.01970   0.05341   0.05960
     Eigenvalues ---    0.06016   0.10836   0.11481   0.13237   0.13767
     Eigenvalues ---    0.16000   0.16000   0.21965   0.22036   0.30275
     Eigenvalues ---    0.33393   0.33512   0.33702   0.34227   0.41012
     Eigenvalues ---    0.43040   0.52899   0.537671000.000001000.00000
     Eigenvalues --- 1000.000001000.000001000.000001000.000001000.00000
     Eigenvalues --- 1000.000001000.000001000.000001000.000001000.00000
     Eigenvalues --- 1000.000001000.000001000.00000
 RFO step:  Lambda=-6.39770890D-03 EMin= 1.29701872D-02
 Linear search not attempted -- first point.
 Iteration  1 RMS(Cart)=  0.05060121 RMS(Int)=  0.00201715
 Iteration  2 RMS(Cart)=  0.00184912 RMS(Int)=  0.00058001
 Iteration  3 RMS(Cart)=  0.00000340 RMS(Int)=  0.00058001
 Iteration  4 RMS(Cart)=  0.00000000 RMS(Int)=  0.00058001
 Iteration  1 RMS(Cart)=  0.00000102 RMS(Int)=  0.00000097
 Iteration  2 RMS(Cart)=  0.00000064 RMS(Int)=  0.00000108
 Variable       Old X    -DE/DX   Delta X   Delta X   Delta X     New X
                                 (Linear)    (Quad)   (Total)
    R1        2.70201   0.00653   0.00000   0.01569   0.01569   2.71770
    R2        2.87418   0.01653   0.00000   0.05348   0.05348   2.92766
    R3        2.07836   0.00460   0.00000   0.01340   0.01340   2.09176
    R4        2.08162   0.00241   0.00000   0.00706   0.00706   2.08868
    R5        1.82944   0.00550   0.00000   0.01012   0.01012   1.83956
    R6        2.67620   0.01256   0.00000   0.02874   0.02874   2.70494
    R7        2.06949   0.00636   0.00000   0.01825   0.01825   2.08774
    R8        2.08366   0.00421   0.00000   0.01238   0.01238   2.09605
    R9        1.83748   0.01222   0.00000   0.02282   0.02282   1.86030
    A1        1.85037  -0.00321   0.00000  -0.01937  -0.01909   1.83129
    A2        1.93646  -0.00133   0.00000  -0.02404  -0.02378   1.91267
    A3        1.94438  -0.00285   0.00000  -0.03633  -0.03615   1.90823
    A4        1.90792   0.00470   0.00000   0.04053   0.03984   1.94776
    A5        1.92950   0.00368   0.00000   0.02917   0.02829   1.95779
    A6        1.89502  -0.00079   0.00000   0.01126   0.00951   1.90452
    A7        1.89479   0.00668   0.00000   0.04015   0.04015   1.93495
    A8        1.93777   0.00237   0.00000   0.00527   0.00556   1.94333
    A9        1.92082   0.00283   0.00000   0.02959   0.02906   1.94988
   A10        1.90150   0.00429   0.00000   0.03824   0.03773   1.93923
   A11        1.87319  -0.00467   0.00000  -0.03997  -0.04007   1.83312
   A12        1.94496  -0.00487   0.00000  -0.04688  -0.04695   1.89801
   A13        1.88480  -0.00008   0.00000   0.01370   0.01165   1.89644
   A14        1.83200   0.01873   0.00000   0.11253   0.11253   1.94453
    D1        2.87906   0.00066   0.00000   0.00423   0.00407   2.88312
    D2        0.80940  -0.00235   0.00000  -0.01994  -0.01975   0.78965
    D3       -1.30413   0.00152   0.00000   0.00712   0.00709  -1.29705
    D4       -1.03696  -0.00137   0.00000   0.00000  -0.00000  -1.03697
    D5       -3.10837   0.00113   0.00000   0.02744   0.02783  -3.08054
    D6        1.11137  -0.00300   0.00000  -0.02942  -0.02980   1.08157
    D7        1.05147  -0.00227   0.00000  -0.01799  -0.01848   1.03299
    D8       -1.01993   0.00023   0.00000   0.00945   0.00935  -1.01059
    D9       -3.08338  -0.00390   0.00000  -0.04741  -0.04828  -3.13166
   D10        3.13657   0.00197   0.00000   0.03928   0.03977  -3.10684
   D11        1.06517   0.00446   0.00000   0.06672   0.06760   1.13277
   D12       -0.99828   0.00034   0.00000   0.00986   0.00997  -0.98831
   D13        0.85758   0.00120   0.00000   0.02936   0.02933   0.88691
   D14        2.95747   0.00312   0.00000   0.04349   0.04278   3.00026
   D15       -1.26553  -0.00257   0.00000   0.00930   0.01005  -1.25548
         Item               Value     Threshold  Converged?
 Maximum Force            0.018725     0.000450     NO 
 RMS     Force            0.006030     0.000300     NO 
 Maximum Displacement     0.172281     0.001800     NO 
 RMS     Displacement     0.050765     0.001200     NO 
 Predicted change in Energy=-3.361086D-03
 GradGradGradGradGradGradGradGradGradGradGradGradGradGradGradGradGradGrad

                          Input orientation:                          
 ---------------------------------------------------------------------
 Center     Atomic      Atomic             Coordinates (Angstroms)
 Number     Number       Type             X           Y           Z
 ---------------------------------------------------------------------
      1          6           0        1.010721    2.185087    1.609437
      2          8           0        1.632130    2.096636    2.903379
      3          6           0        1.319044    0.829735    0.925231
      4          8           0        2.729272    0.611927    0.812499
      5          1           0        1.444685    3.033689    1.046580
      6          1           0       -0.074694    2.351418    1.735368
      7          1           0        1.695460    2.974932    3.318342
      8          1           0        0.940734    0.800127   -0.112341
      9          1           0        0.872080   -0.013725    1.490103
     10          1           0        3.183867    0.746775    1.675203
 ---------------------------------------------------------------------
                    Distance matrix (angstroms):
                    1          2          3          4          5
     1  C    0.000000
     2  O    1.438145   0.000000
     3  C    1.549251   2.369838   0.000000
     4  O    2.462389   2.789240   1.431395   0.000000
     5  H    1.106914   2.088279   2.210865   2.751343   0.000000
     6  H    1.105283   2.083846   2.216833   3.426330   1.802342
     7  H    2.003267   0.973452   3.235821   3.596082   2.286317
     8  H    2.210776   3.354629   1.104785   2.022280   2.566293
     9  H    2.206408   2.651160   1.109181   2.073583   3.132303
    10  H    2.606843   2.395502   2.011692   0.984428   2.941071
                    6          7          8          9         10
     6  H    0.000000
     7  H    2.455203   0.000000
     8  H    2.617561   4.131461   0.000000
     9  H    2.559382   3.598956   1.798581   0.000000
    10  H    3.632729   3.143238   2.868764   2.440692   0.000000
 Stoichiometry    C2H6O2
 Framework group  C1[X(C2H6O2)]
 Deg. of freedom    24
 Full point group                 C1      NOp   1
 Largest Abelian subgroup         C1      NOp   1
 Largest concise Abelian subgroup C1      NOp   1
                         Standard orientation:                         
 ---------------------------------------------------------------------
 Center     Atomic      Atomic             Coordinates (Angstroms)
 Number     Number       Type             X           Y           Z
 ---------------------------------------------------------------------
      1          6           0        0.713963    0.620635   -0.266971
      2          8           0        1.315906   -0.589229    0.225121
      3          6           0       -0.739259    0.589962    0.269111
      4          8           0       -1.441434   -0.567825   -0.194968
      5          1           0        0.740037    0.624637   -1.373571
      6          1           0        1.279973    1.491217    0.111671
      7          1           0        2.148190   -0.777760   -0.243247
      8          1           0       -1.328806    1.449003   -0.098357
      9          1           0       -0.756154    0.596415    1.378144
     10          1           0       -0.927240   -1.390662   -0.028708
 ---------------------------------------------------------------------
 Rotational constants (GHZ):     14.8267114      5.5719776      4.5593857
 Standard basis: VSTO-6G (5D, 7F)
 There are    22 symmetry adapted cartesian basis functions of A   symmetry.
 There are    22 symmetry adapted basis functions of A   symmetry.
    22 basis functions,   132 primitive gaussians,    22 cartesian basis functions
    13 alpha electrons       13 beta electrons
       nuclear repulsion energy        99.6958768374 Hartrees.
 Integral buffers will be    131072 words long.
 Regular integral format.
 Two-electron integral symmetry is turned off.
 Do NDO integrals.
 One-electron integrals computed using PRISM.
 NBasis=    22 RedAO= F EigKep=  0.00D+00  NBF=    22
 NBsUse=    22 1.00D-04 EigRej=  0.00D+00 NBFU=    22
 Initial guess from the checkpoint file:  "1-2-ethanediol-opt.chk"
 B after Tr=     0.000000    0.000000   -0.000000
         Rot=    0.999967   -0.002213    0.003088    0.007183 Ang=  -0.93 deg.
 Overlap will be assumed to be unity.
 Keep J ints in memory in canonical form, NReq=887849.
 Requested convergence on RMS density matrix=1.00D-08 within 128 cycles.
 Requested convergence on MAX density matrix=1.00D-06.
 Requested convergence on             energy=1.00D-06.
 No special actions if energy rises.
 SCF Done:  E(RPM6) = -0.150122553273     A.U. after   11 cycles
            NFock= 10  Conv=0.81D-08     -V/T= 0.9892
 Calling FoFJK, ICntrl=      2127 FMM=F ISym2X=0 I1Cent= 0 IOpClX= 0 NMat=1 NMatS=1 NMatT=0.
 ***** Axes restored to original set *****
 -------------------------------------------------------------------
 Center     Atomic                   Forces (Hartrees/Bohr)
 Number     Number              X              Y              Z
 -------------------------------------------------------------------
      1        6           0.002514015   -0.003185636   -0.007377257
      2        8          -0.000110471   -0.003845108    0.000491906
      3        6          -0.000457149    0.004409145    0.009688706
      4        8          -0.002961296    0.001263340   -0.005326919
      5        1           0.000525489   -0.001798856    0.000622070
      6        1           0.001032133   -0.001545620    0.000712398
      7        1          -0.000421456    0.000967981   -0.000845720
      8        1           0.002912758    0.001073242   -0.000394470
      9        1           0.001668825    0.001633522    0.000970040
     10        1          -0.004702848    0.001027990    0.001459244
 -------------------------------------------------------------------
 Cartesian Forces:  Max     0.009688706 RMS     0.003105763

 GradGradGradGradGradGradGradGradGradGradGradGradGradGradGradGradGradGrad
 Berny optimization.
 Using GEDIIS/GDIIS optimizer.
 FormGI is forming the generalized inverse of G from B-inverse, IUseBI=4.
 Internal  Forces:  Max     0.011759283 RMS     0.002974490
 Search for a local minimum.
 Step number   2 out of a maximum of   48 on scan point     1 out of    37
 All quantities printed in internal units (Hartrees-Bohrs-Radians)
 Mixed Optimization -- RFO/linear search
 Update second derivatives using D2CorX and points    1    2
 DE= -2.18D-03 DEPred=-3.36D-03 R= 6.50D-01
 TightC=F SS=  1.41D+00  RLast= 2.11D-01 DXNew= 5.0454D-01 6.3234D-01
 Trust test= 6.50D-01 RLast= 2.11D-01 DXMaxT set to 5.05D-01
 ITU=  1  0
 Use linear search instead of GDIIS.
     Eigenvalues ---    0.01297   0.01481   0.01954   0.05001   0.05385
     Eigenvalues ---    0.05658   0.11130   0.11638   0.13202   0.13814
     Eigenvalues ---    0.15986   0.18710   0.21755   0.22277   0.33035
     Eigenvalues ---    0.33471   0.33602   0.34051   0.36155   0.40904
     Eigenvalues ---    0.47734   0.52955   0.536681000.000001000.00000
     Eigenvalues --- 1000.000001000.000001000.000001000.000001000.00000
     Eigenvalues --- 1000.000001000.000001000.000001000.000001000.00000
     Eigenvalues --- 1000.000001000.000001000.00000
 RFO step:  Lambda=-6.19117079D-04 EMin= 1.29686354D-02
 Quartic linear search produced a step of -0.23387.
 Iteration  1 RMS(Cart)=  0.02556329 RMS(Int)=  0.00031729
 Iteration  2 RMS(Cart)=  0.00028981 RMS(Int)=  0.00011907
 Iteration  3 RMS(Cart)=  0.00000004 RMS(Int)=  0.00011907
 Iteration  1 RMS(Cart)=  0.00000107 RMS(Int)=  0.00000101
 Iteration  2 RMS(Cart)=  0.00000067 RMS(Int)=  0.00000112
 Variable       Old X    -DE/DX   Delta X   Delta X   Delta X     New X
                                 (Linear)    (Quad)   (Total)
    R1        2.71770  -0.00037  -0.00367   0.00430   0.00063   2.71833
    R2        2.92766  -0.01176  -0.01251  -0.01281  -0.02531   2.90235
    R3        2.09176  -0.00149  -0.00313   0.00087  -0.00227   2.08950
    R4        2.08868  -0.00117  -0.00165  -0.00042  -0.00207   2.08661
    R5        1.83956   0.00049  -0.00237   0.00392   0.00155   1.84111
    R6        2.70494  -0.00759  -0.00672  -0.00437  -0.01109   2.69385
    R7        2.08774  -0.00066  -0.00427   0.00432   0.00005   2.08780
    R8        2.09605  -0.00142  -0.00290   0.00067  -0.00223   2.09382
    R9        1.86030  -0.00075  -0.00534   0.00619   0.00085   1.86115
    A1        1.83129  -0.00307   0.00446  -0.02011  -0.01576   1.81553
    A2        1.91267   0.00151   0.00556  -0.00559  -0.00011   1.91257
    A3        1.90823   0.00045   0.00845  -0.01194  -0.00356   1.90467
    A4        1.94776   0.00012  -0.00932   0.01162   0.00242   1.95018
    A5        1.95779   0.00008  -0.00662   0.00820   0.00171   1.95950
    A6        1.90452   0.00085  -0.00222   0.01556   0.01371   1.91823
    A7        1.93495  -0.00231  -0.00939   0.00147  -0.00792   1.92703
    A8        1.94333  -0.00250  -0.00130  -0.01215  -0.01355   1.92977
    A9        1.94988   0.00104  -0.00680   0.01477   0.00793   1.95781
   A10        1.93923  -0.00013  -0.00882   0.01202   0.00320   1.94243
   A11        1.83312  -0.00100   0.00937  -0.02491  -0.01552   1.81760
   A12        1.89801   0.00136   0.01098  -0.01484  -0.00385   1.89416
   A13        1.89644   0.00129  -0.00272   0.02325   0.02087   1.91731
   A14        1.94453  -0.00925  -0.02632  -0.00910  -0.03542   1.90912
    D1        2.88312   0.00014  -0.00095  -0.00165  -0.00259   2.88054
    D2        0.78965   0.00095   0.00462  -0.00114   0.00341   0.79307
    D3       -1.29705  -0.00128  -0.00166  -0.00950  -0.01111  -1.30815
    D4       -1.03697  -0.00140   0.00000   0.00000  -0.00000  -1.03697
    D5       -3.08054   0.00080  -0.00651   0.02960   0.02306  -3.05748
    D6        1.08157  -0.00149   0.00697  -0.01899  -0.01197   1.06960
    D7        1.03299  -0.00137   0.00432  -0.01263  -0.00821   1.02478
    D8       -1.01059   0.00084  -0.00219   0.01697   0.01485  -0.99574
    D9       -3.13166  -0.00145   0.01129  -0.03163  -0.02018   3.13134
   D10       -3.10684  -0.00011  -0.00930   0.02229   0.01287  -3.09397
   D11        1.13277   0.00210  -0.01581   0.05189   0.03593   1.16870
   D12       -0.98831  -0.00019  -0.00233   0.00330   0.00090  -0.98741
   D13        0.88691  -0.00008  -0.00686   0.00484  -0.00207   0.88484
   D14        3.00026  -0.00081  -0.01001   0.00059  -0.00914   2.99112
   D15       -1.25548   0.00080  -0.00235   0.00781   0.00524  -1.25024
         Item               Value     Threshold  Converged?
 Maximum Force            0.011759     0.000450     NO 
 RMS     Force            0.002991     0.000300     NO 
 Maximum Displacement     0.084980     0.001800     NO 
 RMS     Displacement     0.025603     0.001200     NO 
 Predicted change in Energy=-5.351015D-04
 GradGradGradGradGradGradGradGradGradGradGradGradGradGradGradGradGradGrad

                          Input orientation:                          
 ---------------------------------------------------------------------
 Center     Atomic      Atomic             Coordinates (Angstroms)
 Number     Number       Type             X           Y           Z
 ---------------------------------------------------------------------
      1          6           0        1.011415    2.180462    1.600836
      2          8           0        1.643686    2.074998    2.888596
      3          6           0        1.312088    0.833369    0.927197
      4          8           0        2.718954    0.629887    0.820231
      5          1           0        1.451277    3.025896    1.040151
      6          1           0       -0.071242    2.345475    1.741723
      7          1           0        1.716733    2.953154    3.304186
      8          1           0        0.954420    0.800596   -0.117606
      9          1           0        0.877074   -0.009130    1.500457
     10          1           0        3.138898    0.781892    1.698028
 ---------------------------------------------------------------------
                    Distance matrix (angstroms):
                    1          2          3          4          5
     1  C    0.000000
     2  O    1.438477   0.000000
     3  C    1.535855   2.344927   0.000000
     4  O    2.435018   2.742751   1.425524   0.000000
     5  H    1.105714   2.087577   2.199842   2.719600   0.000000
     6  H    1.104186   2.080734   2.205339   3.402585   1.809210
     7  H    1.998982   0.974274   3.210499   3.545709   2.280704
     8  H    2.204613   3.337130   1.104814   2.005557   2.557191
     9  H    2.196005   2.618819   1.108002   2.064842   3.122975
    10  H    2.547867   2.307647   1.983447   0.984878   2.883820
                    6          7          8          9         10
     6  H    0.000000
     7  H    2.451004   0.000000
     8  H    2.625974   4.113792   0.000000
     9  H    2.549839   3.568416   1.811012   0.000000
    10  H    3.570953   3.052323   2.840567   2.404287   0.000000
 Stoichiometry    C2H6O2
 Framework group  C1[X(C2H6O2)]
 Deg. of freedom    24
 Full point group                 C1      NOp   1
 Largest Abelian subgroup         C1      NOp   1
 Largest concise Abelian subgroup C1      NOp   1
                         Standard orientation:                         
 ---------------------------------------------------------------------
 Center     Atomic      Atomic             Coordinates (Angstroms)
 Number     Number       Type             X           Y           Z
 ---------------------------------------------------------------------
      1          6           0        0.701748    0.628079   -0.268131
      2          8           0        1.294638   -0.586045    0.225425
      3          6           0       -0.734950    0.587484    0.273262
      4          8           0       -1.415176   -0.573193   -0.198161
      5          1           0        0.722913    0.628076   -1.373642
      6          1           0        1.270504    1.491814    0.118786
      7          1           0        2.124364   -0.776095   -0.248542
      8          1           0       -1.345501    1.428795   -0.100953
      9          1           0       -0.747296    0.577152    1.381147
     10          1           0       -0.861473   -1.369217   -0.025696
 ---------------------------------------------------------------------
 Rotational constants (GHZ):     14.8065891      5.7324742      4.6703386
 Standard basis: VSTO-6G (5D, 7F)
 There are    22 symmetry adapted cartesian basis functions of A   symmetry.
 There are    22 symmetry adapted basis functions of A   symmetry.
    22 basis functions,   132 primitive gaussians,    22 cartesian basis functions
    13 alpha electrons       13 beta electrons
       nuclear repulsion energy       100.0783441208 Hartrees.
 Integral buffers will be    131072 words long.
 Regular integral format.
 Two-electron integral symmetry is turned off.
 Do NDO integrals.
 One-electron integrals computed using PRISM.
 NBasis=    22 RedAO= F EigKep=  0.00D+00  NBF=    22
 NBsUse=    22 1.00D-04 EigRej=  0.00D+00 NBFU=    22
 Initial guess from the checkpoint file:  "1-2-ethanediol-opt.chk"
 B after Tr=    -0.000000    0.000000   -0.000000
         Rot=    0.999996   -0.001405    0.000245   -0.002623 Ang=  -0.34 deg.
 Overlap will be assumed to be unity.
 Keep J ints in memory in canonical form, NReq=887849.
 Requested convergence on RMS density matrix=1.00D-08 within 128 cycles.
 Requested convergence on MAX density matrix=1.00D-06.
 Requested convergence on             energy=1.00D-06.
 No special actions if energy rises.
 SCF Done:  E(RPM6) = -0.150710896348     A.U. after   11 cycles
            NFock= 10  Conv=0.26D-08     -V/T= 0.9892
 Calling FoFJK, ICntrl=      2127 FMM=F ISym2X=0 I1Cent= 0 IOpClX= 0 NMat=1 NMatS=1 NMatT=0.
 ***** Axes restored to original set *****
 -------------------------------------------------------------------
 Center     Atomic                   Forces (Hartrees/Bohr)
 Number     Number              X              Y              Z
 -------------------------------------------------------------------
      1        6          -0.000256147    0.000744945   -0.004123290
      2        8           0.000251553   -0.001515390    0.002192098
      3        6          -0.003063330   -0.000319988    0.002241823
      4        8           0.002082356    0.000297764   -0.002730980
      5        1           0.000041342   -0.000690885    0.000388981
      6        1           0.000272859   -0.000273070    0.000400493
      7        1           0.000044711    0.000653067    0.000051333
      8        1           0.000201821    0.000289861   -0.000348402
      9        1           0.000062556    0.000688586    0.000334455
     10        1           0.000362279    0.000125111    0.001593488
 -------------------------------------------------------------------
 Cartesian Forces:  Max     0.004123290 RMS     0.001367179

 GradGradGradGradGradGradGradGradGradGradGradGradGradGradGradGradGradGrad
 Berny optimization.
 Using GEDIIS/GDIIS optimizer.
 FormGI is forming the generalized inverse of G from B-inverse, IUseBI=4.
 Internal  Forces:  Max     0.002437629 RMS     0.000746235
 Search for a local minimum.
 Step number   3 out of a maximum of   48 on scan point     1 out of    37
 All quantities printed in internal units (Hartrees-Bohrs-Radians)
 Mixed Optimization -- En-DIIS/RFO-DIIS
 Update second derivatives using D2CorX and points    1    2    3
 DE= -5.88D-04 DEPred=-5.35D-04 R= 1.10D+00
 TightC=F SS=  1.41D+00  RLast= 8.12D-02 DXNew= 8.4853D-01 2.4353D-01
 Trust test= 1.10D+00 RLast= 8.12D-02 DXMaxT set to 5.05D-01
 ITU=  1  1  0
 Use linear search instead of GDIIS.
     Eigenvalues ---    0.01295   0.01480   0.01996   0.04728   0.05490
     Eigenvalues ---    0.05634   0.11075   0.11886   0.13118   0.13700
     Eigenvalues ---    0.16009   0.18167   0.21379   0.22069   0.31195
     Eigenvalues ---    0.33428   0.33520   0.33734   0.34420   0.40829
     Eigenvalues ---    0.50156   0.53619   0.560691000.000001000.00000
     Eigenvalues --- 1000.000001000.000001000.000001000.000001000.00000
     Eigenvalues --- 1000.000001000.000001000.000001000.000001000.00000
     Eigenvalues --- 1000.000001000.000001000.00000
 RFO step:  Lambda=-6.99108168D-05 EMin= 1.29471370D-02
 Quartic linear search produced a step of  0.09534.
 Iteration  1 RMS(Cart)=  0.00599079 RMS(Int)=  0.00002312
 Iteration  2 RMS(Cart)=  0.00002172 RMS(Int)=  0.00000920
 Iteration  3 RMS(Cart)=  0.00000000 RMS(Int)=  0.00000920
 Iteration  1 RMS(Cart)=  0.00000113 RMS(Int)=  0.00000107
 Iteration  2 RMS(Cart)=  0.00000071 RMS(Int)=  0.00000119
 Variable       Old X    -DE/DX   Delta X   Delta X   Delta X     New X
                                 (Linear)    (Quad)   (Total)
    R1        2.71833   0.00220   0.00006   0.00640   0.00646   2.72479
    R2        2.90235  -0.00150  -0.00241  -0.00368  -0.00609   2.89625
    R3        2.08950  -0.00071  -0.00022  -0.00199  -0.00221   2.08729
    R4        2.08661  -0.00026  -0.00020  -0.00065  -0.00084   2.08577
    R5        1.84111   0.00061   0.00015   0.00150   0.00164   1.84276
    R6        2.69385   0.00244  -0.00106   0.00732   0.00626   2.70011
    R7        2.08780   0.00026   0.00001   0.00128   0.00128   2.08908
    R8        2.09382  -0.00038  -0.00021  -0.00091  -0.00113   2.09269
    R9        1.86115   0.00159   0.00008   0.00393   0.00401   1.86516
    A1        1.81553  -0.00051  -0.00150  -0.00390  -0.00541   1.81012
    A2        1.91257   0.00048  -0.00001  -0.00090  -0.00092   1.91165
    A3        1.90467  -0.00036  -0.00034  -0.00314  -0.00348   1.90119
    A4        1.95018  -0.00002   0.00023   0.00027   0.00049   1.95066
    A5        1.95950   0.00017   0.00016   0.00246   0.00261   1.96211
    A6        1.91823   0.00021   0.00131   0.00453   0.00582   1.92405
    A7        1.92703  -0.00039  -0.00076  -0.00159  -0.00235   1.92468
    A8        1.92977  -0.00053  -0.00129  -0.00308  -0.00438   1.92539
    A9        1.95781  -0.00003   0.00076   0.00011   0.00084   1.95865
   A10        1.94243  -0.00035   0.00030  -0.00298  -0.00269   1.93973
   A11        1.81760  -0.00022  -0.00148  -0.00117  -0.00266   1.81494
   A12        1.89416   0.00079  -0.00037   0.00229   0.00191   1.89607
   A13        1.91731   0.00037   0.00199   0.00509   0.00707   1.92438
   A14        1.90912  -0.00061  -0.00338  -0.00080  -0.00418   1.90494
    D1        2.88054   0.00001  -0.00025  -0.00527  -0.00553   2.87501
    D2        0.79307   0.00007   0.00033  -0.00300  -0.00269   0.79038
    D3       -1.30815  -0.00025  -0.00106  -0.00606  -0.00710  -1.31526
    D4       -1.03697  -0.00087  -0.00000   0.00000  -0.00000  -1.03697
    D5       -3.05748  -0.00025   0.00220   0.00334   0.00554  -3.05194
    D6        1.06960  -0.00046  -0.00114  -0.00117  -0.00231   1.06728
    D7        1.02478  -0.00061  -0.00078  -0.00322  -0.00401   1.02077
    D8       -0.99574   0.00001   0.00142   0.00012   0.00154  -0.99420
    D9        3.13134  -0.00020  -0.00192  -0.00439  -0.00632   3.12502
   D10       -3.09397  -0.00022   0.00123   0.00483   0.00606  -3.08791
   D11        1.16870   0.00041   0.00343   0.00817   0.01160   1.18030
   D12       -0.98741   0.00019   0.00009   0.00366   0.00375  -0.98366
   D13        0.88484   0.00017  -0.00020   0.00811   0.00790   0.89274
   D14        2.99112  -0.00025  -0.00087   0.00597   0.00512   2.99623
   D15       -1.25024   0.00042   0.00050   0.01226   0.01276  -1.23748
         Item               Value     Threshold  Converged?
 Maximum Force            0.002438     0.000450     NO 
 RMS     Force            0.000719     0.000300     NO 
 Maximum Displacement     0.014584     0.001800     NO 
 RMS     Displacement     0.006000     0.001200     NO 
 Predicted change in Energy=-4.042725D-05
 GradGradGradGradGradGradGradGradGradGradGradGradGradGradGradGradGradGrad

                          Input orientation:                          
 ---------------------------------------------------------------------
 Center     Atomic      Atomic             Coordinates (Angstroms)
 Number     Number       Type             X           Y           Z
 ---------------------------------------------------------------------
      1          6           0        1.008763    2.179588    1.596832
      2          8           0        1.645206    2.068971    2.885929
      3          6           0        1.309301    0.834413    0.926655
      4          8           0        2.720506    0.636455    0.822288
      5          1           0        1.450945    3.023463    1.037931
      6          1           0       -0.072630    2.344128    1.744335
      7          1           0        1.724175    2.948125    3.300366
      8          1           0        0.956596    0.800958   -0.120528
      9          1           0        0.875924   -0.005183    1.504246
     10          1           0        3.134514    0.785683    1.705745
 ---------------------------------------------------------------------
                    Distance matrix (angstroms):
                    1          2          3          4          5
     1  C    0.000000
     2  O    1.441897   0.000000
     3  C    1.532630   2.340025   0.000000
     4  O    2.431305   2.732579   1.428838   0.000000
     5  H    1.104546   2.088993   2.196449   2.712213   0.000000
     6  H    1.103740   2.080843   2.203991   3.401166   1.811570
     7  H    2.001123   0.975144   3.205371   3.532331   2.280119
     8  H    2.202878   3.334790   1.105493   2.006824   2.554592
     9  H    2.190763   2.608247   1.107406   2.068634   3.117819
    10  H    2.544336   2.292967   1.985134   0.987000   2.878895
                    6          7          8          9         10
     6  H    0.000000
     7  H    2.452458   0.000000
     8  H    2.630285   4.111207   0.000000
     9  H    2.544928   3.559157   1.815562   0.000000
    10  H    3.565951   3.034472   2.842329   2.401520   0.000000
 Stoichiometry    C2H6O2
 Framework group  C1[X(C2H6O2)]
 Deg. of freedom    24
 Full point group                 C1      NOp   1
 Largest Abelian subgroup         C1      NOp   1
 Largest concise Abelian subgroup C1      NOp   1
                         Standard orientation:                         
 ---------------------------------------------------------------------
 Center     Atomic      Atomic             Coordinates (Angstroms)
 Number     Number       Type             X           Y           Z
 ---------------------------------------------------------------------
      1          6           0        0.699343    0.631525   -0.269622
      2          8           0        1.289112   -0.587320    0.226017
      3          6           0       -0.732634    0.589906    0.275049
      4          8           0       -1.410149   -0.575261   -0.199227
      5          1           0        0.717722    0.628130   -1.374010
      6          1           0        1.272815    1.490715    0.119175
      7          1           0        2.115711   -0.782026   -0.253283
      8          1           0       -1.347499    1.428175   -0.100930
      9          1           0       -0.738495    0.576570    1.382360
     10          1           0       -0.852211   -1.369504   -0.020197
 ---------------------------------------------------------------------
 Rotational constants (GHZ):     14.7238922      5.7691098      4.6896662
 Standard basis: VSTO-6G (5D, 7F)
 There are    22 symmetry adapted cartesian basis functions of A   symmetry.
 There are    22 symmetry adapted basis functions of A   symmetry.
    22 basis functions,   132 primitive gaussians,    22 cartesian basis functions
    13 alpha electrons       13 beta electrons
       nuclear repulsion energy       100.1111382178 Hartrees.
 Integral buffers will be    131072 words long.
 Regular integral format.
 Two-electron integral symmetry is turned off.
 Do NDO integrals.
 One-electron integrals computed using PRISM.
 NBasis=    22 RedAO= F EigKep=  0.00D+00  NBF=    22
 NBsUse=    22 1.00D-04 EigRej=  0.00D+00 NBFU=    22
 Initial guess from the checkpoint file:  "1-2-ethanediol-opt.chk"
 B after Tr=     0.000000   -0.000000    0.000000
         Rot=    1.000000   -0.000002   -0.000226   -0.000025 Ang=  -0.03 deg.
 Overlap will be assumed to be unity.
 Keep J ints in memory in canonical form, NReq=887849.
 Requested convergence on RMS density matrix=1.00D-08 within 128 cycles.
 Requested convergence on MAX density matrix=1.00D-06.
 Requested convergence on             energy=1.00D-06.
 No special actions if energy rises.
 SCF Done:  E(RPM6) = -0.150759369995     A.U. after   10 cycles
            NFock=  9  Conv=0.48D-08     -V/T= 0.9892
 Calling FoFJK, ICntrl=      2127 FMM=F ISym2X=0 I1Cent= 0 IOpClX= 0 NMat=1 NMatS=1 NMatT=0.
 ***** Axes restored to original set *****
 -------------------------------------------------------------------
 Center     Atomic                   Forces (Hartrees/Bohr)
 Number     Number              X              Y              Z
 -------------------------------------------------------------------
      1        6           0.000301499    0.001313130   -0.001442675
      2        8          -0.000428067   -0.000601639    0.001099586
      3        6          -0.000967918   -0.001271018    0.000754112
      4        8           0.000438972    0.000296078   -0.001736433
      5        1          -0.000019668   -0.000129277    0.000264883
      6        1           0.000145793   -0.000015509    0.000201655
      7        1           0.000050105    0.000303532   -0.000052445
      8        1           0.000133966   -0.000068839    0.000109082
      9        1           0.000178673    0.000168523   -0.000057959
     10        1           0.000166644    0.000005019    0.000860194
 -------------------------------------------------------------------
 Cartesian Forces:  Max     0.001736433 RMS     0.000662828

 GradGradGradGradGradGradGradGradGradGradGradGradGradGradGradGradGradGrad
 Berny optimization.
 Using GEDIIS/GDIIS optimizer.
 FormGI is forming the generalized inverse of G from B-inverse, IUseBI=4.
 Internal  Forces:  Max     0.000840614 RMS     0.000344456
 Search for a local minimum.
 Step number   4 out of a maximum of   48 on scan point     1 out of    37
 All quantities printed in internal units (Hartrees-Bohrs-Radians)
 Mixed Optimization -- En-DIIS/RFO-DIIS
 Swapping is turned off.
 Update second derivatives using D2CorX and points    1    2    3    4
 DE= -4.85D-05 DEPred=-4.04D-05 R= 1.20D+00
 TightC=F SS=  1.41D+00  RLast= 3.10D-02 DXNew= 8.4853D-01 9.2888D-02
 Trust test= 1.20D+00 RLast= 3.10D-02 DXMaxT set to 5.05D-01
 ITU=  1  1  1  0
     Eigenvalues ---    0.01227   0.01401   0.02021   0.04314   0.05530
     Eigenvalues ---    0.05630   0.11088   0.12246   0.13088   0.13734
     Eigenvalues ---    0.15926   0.17038   0.21888   0.22122   0.32660
     Eigenvalues ---    0.33470   0.33615   0.34277   0.35799   0.40787
     Eigenvalues ---    0.50152   0.52501   0.538891000.000001000.00000
     Eigenvalues --- 1000.000001000.000001000.000001000.000001000.00000
     Eigenvalues --- 1000.000001000.000001000.000001000.000001000.00000
     Eigenvalues --- 1000.000001000.000001000.00000
 En-DIIS/RFO-DIIS IScMMF=        0 using points:     4    3
 RFO step:  Lambda=-6.22277755D-06.
 DidBck=F Rises=F RFO-DIIS coefs:    1.27445   -0.27445
 Iteration  1 RMS(Cart)=  0.00358011 RMS(Int)=  0.00002070
 Iteration  2 RMS(Cart)=  0.00001668 RMS(Int)=  0.00000338
 Iteration  3 RMS(Cart)=  0.00000000 RMS(Int)=  0.00000338
 Iteration  1 RMS(Cart)=  0.00000079 RMS(Int)=  0.00000075
 Variable       Old X    -DE/DX   Delta X   Delta X   Delta X     New X
                                 (Linear)    (Quad)   (Total)
    R1        2.72479   0.00079   0.00177   0.00193   0.00371   2.72850
    R2        2.89625   0.00079  -0.00167   0.00301   0.00134   2.89759
    R3        2.08729  -0.00024  -0.00061  -0.00072  -0.00133   2.08596
    R4        2.08577  -0.00012  -0.00023  -0.00042  -0.00065   2.08511
    R5        1.84276   0.00026   0.00045   0.00057   0.00102   1.84377
    R6        2.70011   0.00062   0.00172   0.00088   0.00260   2.70271
    R7        2.08908  -0.00014   0.00035  -0.00055  -0.00020   2.08888
    R8        2.09269  -0.00023  -0.00031  -0.00079  -0.00110   2.09160
    R9        1.86516   0.00084   0.00110   0.00179   0.00289   1.86805
    A1        1.81012   0.00023  -0.00148   0.00075  -0.00073   1.80939
    A2        1.91165   0.00014  -0.00025  -0.00187  -0.00213   1.90952
    A3        1.90119  -0.00051  -0.00095  -0.00235  -0.00330   1.89789
    A4        1.95066   0.00008   0.00013   0.00104   0.00117   1.95183
    A5        1.96211   0.00003   0.00072   0.00137   0.00208   1.96419
    A6        1.92405   0.00003   0.00160   0.00081   0.00239   1.92644
    A7        1.92468  -0.00027  -0.00064  -0.00205  -0.00269   1.92199
    A8        1.92539  -0.00010  -0.00120  -0.00095  -0.00216   1.92323
    A9        1.95865   0.00002   0.00023   0.00136   0.00158   1.96024
   A10        1.93973   0.00012  -0.00074   0.00110   0.00036   1.94009
   A11        1.81494  -0.00032  -0.00073  -0.00131  -0.00204   1.81290
   A12        1.89607   0.00027   0.00053  -0.00134  -0.00082   1.89526
   A13        1.92438  -0.00000   0.00194   0.00089   0.00283   1.92720
   A14        1.90494  -0.00034  -0.00115  -0.00333  -0.00448   1.90046
    D1        2.87501   0.00006  -0.00152  -0.00553  -0.00704   2.86796
    D2        0.79038  -0.00022  -0.00074  -0.00625  -0.00699   0.78339
    D3       -1.31526  -0.00002  -0.00195  -0.00465  -0.00660  -1.32186
    D4       -1.03697  -0.00075  -0.00000   0.00000  -0.00000  -1.03697
    D5       -3.05194  -0.00031   0.00152   0.00141   0.00293  -3.04901
    D6        1.06728  -0.00041  -0.00063  -0.00159  -0.00223   1.06505
    D7        1.02077  -0.00041  -0.00110  -0.00127  -0.00237   1.01840
    D8       -0.99420   0.00003   0.00042   0.00014   0.00056  -0.99364
    D9        3.12502  -0.00007  -0.00173  -0.00286  -0.00460   3.12042
   D10       -3.08791  -0.00029   0.00166   0.00167   0.00333  -3.08458
   D11        1.18030   0.00015   0.00318   0.00308   0.00626   1.18657
   D12       -0.98366   0.00005   0.00103   0.00007   0.00111  -0.98256
   D13        0.89274   0.00025   0.00217   0.00710   0.00926   0.90200
   D14        2.99623   0.00004   0.00140   0.00746   0.00886   3.00510
   D15       -1.23748  -0.00000   0.00350   0.00720   0.01070  -1.22678
         Item               Value     Threshold  Converged?
 Maximum Force            0.000841     0.000450     NO 
 RMS     Force            0.000284     0.000300     YES
 Maximum Displacement     0.008754     0.001800     NO 
 RMS     Displacement     0.003580     0.001200     NO 
 Predicted change in Energy=-9.354104D-06
 GradGradGradGradGradGradGradGradGradGradGradGradGradGradGradGradGradGrad

                          Input orientation:                          
 ---------------------------------------------------------------------
 Center     Atomic      Atomic             Coordinates (Angstroms)
 Number     Number       Type             X           Y           Z
 ---------------------------------------------------------------------
      1          6           0        1.006939    2.179728    1.595872
      2          8           0        1.645002    2.068326    2.886295
      3          6           0        1.308366    0.834192    0.925197
      4          8           0        2.721515    0.639761    0.821686
      5          1           0        1.449659    3.024043    1.039451
      6          1           0       -0.073549    2.344016    1.747648
      7          1           0        1.728493    2.949571    3.296654
      8          1           0        0.958681    0.799995   -0.122863
      9          1           0        0.878045   -0.005733    1.503482
     10          1           0        3.130148    0.782702    1.710378
 ---------------------------------------------------------------------
                    Distance matrix (angstroms):
                    1          2          3          4          5
     1  C    0.000000
     2  O    1.443859   0.000000
     3  C    1.533340   2.341435   0.000000
     4  O    2.431179   2.731719   1.430213   0.000000
     5  H    1.103844   2.088633   2.197377   2.711059   0.000000
     6  H    1.103395   2.079890   2.205829   3.402098   1.812220
     7  H    2.001489   0.975683   3.205487   3.528000   2.275579
     8  H    2.204550   3.336875   1.105386   2.006348   2.557034
     9  H    2.191207   2.608086   1.106826   2.068790   3.117950
    10  H    2.544172   2.289382   1.984453   0.988527   2.880590
                    6          7          8          9         10
     6  H    0.000000
     7  H    2.452238   0.000000
     8  H    2.635965   4.111737   0.000000
     9  H    2.546855   3.559852   1.816783   0.000000
    10  H    3.564094   3.029230   2.841890   2.395079   0.000000
 Stoichiometry    C2H6O2
 Framework group  C1[X(C2H6O2)]
 Deg. of freedom    24
 Full point group                 C1      NOp   1
 Largest Abelian subgroup         C1      NOp   1
 Largest concise Abelian subgroup C1      NOp   1
                         Standard orientation:                         
 ---------------------------------------------------------------------
 Center     Atomic      Atomic             Coordinates (Angstroms)
 Number     Number       Type             X           Y           Z
 ---------------------------------------------------------------------
      1          6           0        0.698824    0.633264   -0.269721
      2          8           0        1.289229   -0.587321    0.226587
      3          6           0       -0.733618    0.590814    0.275656
      4          8           0       -1.408847   -0.576524   -0.200683
      5          1           0        0.718200    0.627756   -1.373382
      6          1           0        1.274711    1.489804    0.120374
      7          1           0        2.112601   -0.783448   -0.258748
      8          1           0       -1.351153    1.426531   -0.101313
      9          1           0       -0.739451    0.574909    1.382352
     10          1           0       -0.849196   -1.369257   -0.012129
 ---------------------------------------------------------------------
 Rotational constants (GHZ):     14.6927501      5.7708991      4.6892798
 Standard basis: VSTO-6G (5D, 7F)
 There are    22 symmetry adapted cartesian basis functions of A   symmetry.
 There are    22 symmetry adapted basis functions of A   symmetry.
    22 basis functions,   132 primitive gaussians,    22 cartesian basis functions
    13 alpha electrons       13 beta electrons
       nuclear repulsion energy       100.0972813471 Hartrees.
 Integral buffers will be    131072 words long.
 Regular integral format.
 Two-electron integral symmetry is turned off.
 Do NDO integrals.
 One-electron integrals computed using PRISM.
 NBasis=    22 RedAO= F EigKep=  0.00D+00  NBF=    22
 NBsUse=    22 1.00D-04 EigRej=  0.00D+00 NBFU=    22
 Initial guess from the checkpoint file:  "1-2-ethanediol-opt.chk"
 B after Tr=    -0.000000   -0.000000   -0.000000
         Rot=    1.000000   -0.000029    0.000065   -0.000262 Ang=  -0.03 deg.
 Overlap will be assumed to be unity.
 Keep J ints in memory in canonical form, NReq=887849.
 Requested convergence on RMS density matrix=1.00D-08 within 128 cycles.
 Requested convergence on MAX density matrix=1.00D-06.
 Requested convergence on             energy=1.00D-06.
 No special actions if energy rises.
 SCF Done:  E(RPM6) = -0.150769480968     A.U. after   10 cycles
            NFock=  9  Conv=0.39D-08     -V/T= 0.9892
 Calling FoFJK, ICntrl=      2127 FMM=F ISym2X=0 I1Cent= 0 IOpClX= 0 NMat=1 NMatS=1 NMatT=0.
 ***** Axes restored to original set *****
 -------------------------------------------------------------------
 Center     Atomic                   Forces (Hartrees/Bohr)
 Number     Number              X              Y              Z
 -------------------------------------------------------------------
      1        6           0.000838050    0.000596204   -0.000442297
      2        8          -0.000816783   -0.000344657    0.000290958
      3        6          -0.000114573   -0.000701127    0.000626865
      4        8          -0.000168898    0.000477116   -0.000848693
      5        1          -0.000041655   -0.000025120   -0.000015718
      6        1           0.000044193   -0.000068185   -0.000039215
      7        1           0.000107066    0.000073716   -0.000030314
      8        1          -0.000092463   -0.000019704    0.000231113
      9        1          -0.000036699    0.000068621   -0.000069139
     10        1           0.000281761   -0.000056863    0.000296441
 -------------------------------------------------------------------
 Cartesian Forces:  Max     0.000848693 RMS     0.000377287

 GradGradGradGradGradGradGradGradGradGradGradGradGradGradGradGradGradGrad
 Berny optimization.
 Using GEDIIS/GDIIS optimizer.
 FormGI is forming the generalized inverse of G from B-inverse, IUseBI=4.
 Internal  Forces:  Max     0.000735835 RMS     0.000219333
 Search for a local minimum.
 Step number   5 out of a maximum of   48 on scan point     1 out of    37
 All quantities printed in internal units (Hartrees-Bohrs-Radians)
 Mixed Optimization -- En-DIIS/RFO-DIIS
 Swapping is turned off.
 Update second derivatives using D2CorX and points    1    2    3    4    5
 DE= -1.01D-05 DEPred=-9.35D-06 R= 1.08D+00
 TightC=F SS=  1.41D+00  RLast= 2.50D-02 DXNew= 8.4853D-01 7.4875D-02
 Trust test= 1.08D+00 RLast= 2.50D-02 DXMaxT set to 5.05D-01
 ITU=  1  1  1  1  0
     Eigenvalues ---    0.00926   0.01403   0.02029   0.04959   0.05541
     Eigenvalues ---    0.05648   0.11221   0.12449   0.13074   0.13779
     Eigenvalues ---    0.15782   0.19358   0.21806   0.22006   0.31771
     Eigenvalues ---    0.33467   0.33621   0.34276   0.35496   0.40430
     Eigenvalues ---    0.49614   0.51253   0.536961000.000001000.00000
     Eigenvalues --- 1000.000001000.000001000.000001000.000001000.00000
     Eigenvalues --- 1000.000001000.000001000.000001000.000001000.00000
     Eigenvalues --- 1000.000001000.000001000.00000
 En-DIIS/RFO-DIIS IScMMF=        0 using points:     5    4    3
 RFO step:  Lambda=-8.83091855D-07.
 DidBck=F Rises=F RFO-DIIS coefs:    1.04291    0.00226   -0.04517
 Iteration  1 RMS(Cart)=  0.00182850 RMS(Int)=  0.00000560
 Iteration  2 RMS(Cart)=  0.00000481 RMS(Int)=  0.00000062
 Iteration  3 RMS(Cart)=  0.00000000 RMS(Int)=  0.00000062
 Iteration  1 RMS(Cart)=  0.00000062 RMS(Int)=  0.00000059
 Variable       Old X    -DE/DX   Delta X   Delta X   Delta X     New X
                                 (Linear)    (Quad)   (Total)
    R1        2.72850  -0.00006   0.00045   0.00001   0.00046   2.72896
    R2        2.89759   0.00007  -0.00022   0.00023   0.00001   2.89761
    R3        2.08596  -0.00003  -0.00016  -0.00019  -0.00034   2.08562
    R4        2.08511  -0.00006  -0.00007  -0.00024  -0.00031   2.08481
    R5        1.84377   0.00006   0.00012   0.00017   0.00029   1.84406
    R6        2.70271   0.00009   0.00039   0.00014   0.00053   2.70324
    R7        2.08888  -0.00019   0.00005  -0.00063  -0.00058   2.08830
    R8        2.09160  -0.00007  -0.00010  -0.00033  -0.00043   2.09117
    R9        1.86805   0.00037   0.00030   0.00084   0.00115   1.86919
    A1        1.80939   0.00008  -0.00028   0.00042   0.00014   1.80953
    A2        1.90952   0.00031  -0.00013   0.00018   0.00005   1.90957
    A3        1.89789  -0.00031  -0.00030  -0.00008  -0.00038   1.89751
    A4        1.95183   0.00000   0.00007  -0.00033  -0.00026   1.95157
    A5        1.96419  -0.00011   0.00021  -0.00031  -0.00011   1.96408
    A6        1.92644   0.00003   0.00037   0.00015   0.00052   1.92696
    A7        1.92199  -0.00001  -0.00022  -0.00040  -0.00062   1.92137
    A8        1.92323  -0.00009  -0.00029  -0.00036  -0.00065   1.92259
    A9        1.96024  -0.00013   0.00011  -0.00036  -0.00025   1.95999
   A10        1.94009   0.00009  -0.00011   0.00001  -0.00009   1.94000
   A11        1.81290  -0.00016  -0.00021   0.00103   0.00082   1.81372
   A12        1.89526   0.00033   0.00005   0.00031   0.00036   1.89562
   A13        1.92720  -0.00005   0.00044  -0.00057  -0.00013   1.92708
   A14        1.90046   0.00028  -0.00038   0.00098   0.00060   1.90105
    D1        2.86796   0.00007  -0.00055  -0.00571  -0.00626   2.86170
    D2        0.78339  -0.00012  -0.00042  -0.00564  -0.00606   0.77733
    D3       -1.32186  -0.00015  -0.00060  -0.00588  -0.00649  -1.32835
    D4       -1.03697  -0.00074  -0.00000   0.00000   0.00000  -1.03697
    D5       -3.04901  -0.00041   0.00038  -0.00083  -0.00046  -3.04947
    D6        1.06505  -0.00032  -0.00020   0.00017  -0.00003   1.06502
    D7        1.01840  -0.00032  -0.00028   0.00030   0.00001   1.01842
    D8       -0.99364   0.00001   0.00009  -0.00054  -0.00044  -0.99408
    D9        3.12042   0.00010  -0.00048   0.00046  -0.00002   3.12040
   D10       -3.08458  -0.00036   0.00042  -0.00000   0.00041  -3.08416
   D11        1.18657  -0.00003   0.00079  -0.00084  -0.00004   1.18652
   D12       -0.98256   0.00005   0.00022   0.00016   0.00038  -0.98218
   D13        0.90200   0.00023   0.00075   0.00408   0.00483   0.90683
   D14        3.00510  -0.00005   0.00061   0.00407   0.00468   3.00978
   D15       -1.22678  -0.00003   0.00104   0.00408   0.00512  -1.22166
         Item               Value     Threshold  Converged?
 Maximum Force            0.000375     0.000450     YES
 RMS     Force            0.000100     0.000300     YES
 Maximum Displacement     0.005718     0.001800     NO 
 RMS     Displacement     0.001828     0.001200     NO 
 Predicted change in Energy=-1.633735D-06
 GradGradGradGradGradGradGradGradGradGradGradGradGradGradGradGradGradGrad

                          Input orientation:                          
 ---------------------------------------------------------------------
 Center     Atomic      Atomic             Coordinates (Angstroms)
 Number     Number       Type             X           Y           Z
 ---------------------------------------------------------------------
      1          6           0        1.006055    2.179617    1.595945
      2          8           0        1.643802    2.068183    2.886794
      3          6           0        1.308386    0.834503    0.924812
      4          8           0        2.722088    0.641616    0.822066
      5          1           0        1.448545    3.024066    1.039905
      6          1           0       -0.074404    2.342978    1.747746
      7          1           0        1.731518    2.950397    3.294542
      8          1           0        0.958646    0.800662   -0.122917
      9          1           0        0.878388   -0.005641    1.502585
     10          1           0        3.130275    0.780219    1.712323
 ---------------------------------------------------------------------
                    Distance matrix (angstroms):
                    1          2          3          4          5
     1  C    0.000000
     2  O    1.444102   0.000000
     3  C    1.533347   2.341761   0.000000
     4  O    2.430865   2.731465   1.430494   0.000000
     5  H    1.103664   2.088741   2.197061   2.710246   0.000000
     6  H    1.103232   2.079705   2.205635   3.401747   1.812262
     7  H    2.001408   0.975835   3.204944   3.524888   2.273520
     8  H    2.204144   3.336826   1.105079   2.006991   2.556498
     9  H    2.190974   2.608187   1.106599   2.069124   3.117415
    10  H    2.546403   2.290816   1.985547   0.989134   2.883610
                    6          7          8          9         10
     6  H    0.000000
     7  H    2.454157   0.000000
     8  H    2.635396   4.110683   0.000000
     9  H    2.546356   3.560492   1.816266   0.000000
    10  H    3.565591   3.028136   2.843325   2.394277   0.000000
 Stoichiometry    C2H6O2
 Framework group  C1[X(C2H6O2)]
 Deg. of freedom    24
 Full point group                 C1      NOp   1
 Largest Abelian subgroup         C1      NOp   1
 Largest concise Abelian subgroup C1      NOp   1
                         Standard orientation:                         
 ---------------------------------------------------------------------
 Center     Atomic      Atomic             Coordinates (Angstroms)
 Number     Number       Type             X           Y           Z
 ---------------------------------------------------------------------
      1          6           0        0.698730    0.633488   -0.269675
      2          8           0        1.289393   -0.587091    0.227050
      3          6           0       -0.733786    0.591146    0.275540
      4          8           0       -1.408288   -0.576833   -0.201101
      5          1           0        0.717953    0.627667   -1.373156
      6          1           0        1.274490    1.489833    0.120575
      7          1           0        2.109868   -0.785761   -0.262443
      8          1           0       -1.350784    1.426857   -0.101423
      9          1           0       -0.739649    0.575532    1.382014
     10          1           0       -0.850381   -1.370540   -0.008347
 ---------------------------------------------------------------------
 Rotational constants (GHZ):     14.6828478      5.7723989      4.6896739
 Standard basis: VSTO-6G (5D, 7F)
 There are    22 symmetry adapted cartesian basis functions of A   symmetry.
 There are    22 symmetry adapted basis functions of A   symmetry.
    22 basis functions,   132 primitive gaussians,    22 cartesian basis functions
    13 alpha electrons       13 beta electrons
       nuclear repulsion energy       100.0950134003 Hartrees.
 Integral buffers will be    131072 words long.
 Regular integral format.
 Two-electron integral symmetry is turned off.
 Do NDO integrals.
 One-electron integrals computed using PRISM.
 NBasis=    22 RedAO= F EigKep=  0.00D+00  NBF=    22
 NBsUse=    22 1.00D-04 EigRej=  0.00D+00 NBFU=    22
 Initial guess from the checkpoint file:  "1-2-ethanediol-opt.chk"
 B after Tr=     0.000000    0.000000    0.000000
         Rot=    1.000000    0.000117   -0.000000   -0.000010 Ang=   0.01 deg.
 Overlap will be assumed to be unity.
 Keep J ints in memory in canonical form, NReq=887849.
 Requested convergence on RMS density matrix=1.00D-08 within 128 cycles.
 Requested convergence on MAX density matrix=1.00D-06.
 Requested convergence on             energy=1.00D-06.
 No special actions if energy rises.
 SCF Done:  E(RPM6) = -0.150771792960     A.U. after    8 cycles
            NFock=  7  Conv=0.90D-08     -V/T= 0.9892
 Calling FoFJK, ICntrl=      2127 FMM=F ISym2X=0 I1Cent= 0 IOpClX= 0 NMat=1 NMatS=1 NMatT=0.
 ***** Axes restored to original set *****
 -------------------------------------------------------------------
 Center     Atomic                   Forces (Hartrees/Bohr)
 Number     Number              X              Y              Z
 -------------------------------------------------------------------
      1        6           0.000952228    0.000503228   -0.000313452
      2        8          -0.000884188   -0.000262838    0.000190171
      3        6           0.000167238   -0.000615134    0.000832652
      4        8          -0.000230574    0.000443035   -0.000742403
      5        1          -0.000034999    0.000045216   -0.000046522
      6        1          -0.000024272   -0.000029548   -0.000021728
      7        1           0.000116699    0.000012468   -0.000019089
      8        1          -0.000033800   -0.000043331    0.000089452
      9        1          -0.000047325   -0.000022723   -0.000024007
     10        1           0.000018993   -0.000030375    0.000054926
 -------------------------------------------------------------------
 Cartesian Forces:  Max     0.000952228 RMS     0.000369039

 GradGradGradGradGradGradGradGradGradGradGradGradGradGradGradGradGradGrad
 Berny optimization.
 Using GEDIIS/GDIIS optimizer.
 FormGI is forming the generalized inverse of G from B-inverse, IUseBI=4.
 Internal  Forces:  Max     0.000761495 RMS     0.000211164
 Search for a local minimum.
 Step number   6 out of a maximum of   48 on scan point     1 out of    37
 All quantities printed in internal units (Hartrees-Bohrs-Radians)
 Mixed Optimization -- En-DIIS/RFO-DIIS
 Swapping is turned off.
 Update second derivatives using D2CorX and points    1    2    3    4    5
                                                      6
 DE= -2.31D-06 DEPred=-1.63D-06 R= 1.42D+00
 TightC=F SS=  1.41D+00  RLast= 1.40D-02 DXNew= 8.4853D-01 4.1924D-02
 Trust test= 1.42D+00 RLast= 1.40D-02 DXMaxT set to 5.05D-01
 ITU=  1  1  1  1  1  0
     Eigenvalues ---    0.00396   0.01492   0.02029   0.04608   0.05541
     Eigenvalues ---    0.05609   0.11224   0.12488   0.13071   0.13772
     Eigenvalues ---    0.16530   0.19210   0.21451   0.22090   0.33457
     Eigenvalues ---    0.33620   0.33771   0.33957   0.38538   0.41028
     Eigenvalues ---    0.49008   0.53576   0.636051000.000001000.00000
     Eigenvalues --- 1000.000001000.000001000.000001000.000001000.00000
     Eigenvalues --- 1000.000001000.000001000.000001000.000001000.00000
     Eigenvalues --- 1000.000001000.000001000.00000
 En-DIIS/RFO-DIIS IScMMF=        0 using points:     6    5    4    3
 RFO step:  Lambda=-4.78110689D-07.
 DidBck=F Rises=F RFO-DIIS coefs:    2.01752   -0.92563   -0.16306    0.07117
 Iteration  1 RMS(Cart)=  0.00379337 RMS(Int)=  0.00002521
 Iteration  2 RMS(Cart)=  0.00002253 RMS(Int)=  0.00000071
 Iteration  3 RMS(Cart)=  0.00000000 RMS(Int)=  0.00000071
 Iteration  1 RMS(Cart)=  0.00000028 RMS(Int)=  0.00000026
 Variable       Old X    -DE/DX   Delta X   Delta X   Delta X     New X
                                 (Linear)    (Quad)   (Total)
    R1        2.72896  -0.00017   0.00035  -0.00013   0.00022   2.72918
    R2        2.89761   0.00012   0.00057   0.00007   0.00064   2.89825
    R3        2.08562   0.00004  -0.00031   0.00007  -0.00024   2.08538
    R4        2.08481   0.00002  -0.00031   0.00009  -0.00022   2.08459
    R5        1.84406   0.00001   0.00027   0.00013   0.00040   1.84446
    R6        2.70324  -0.00022   0.00033  -0.00034  -0.00001   2.70323
    R7        2.08830  -0.00007  -0.00070  -0.00007  -0.00077   2.08752
    R8        2.09117   0.00002  -0.00046   0.00012  -0.00033   2.09084
    R9        1.86919   0.00005   0.00115   0.00025   0.00139   1.87059
    A1        1.80953   0.00005   0.00046   0.00007   0.00053   1.81007
    A2        1.90957   0.00032  -0.00008   0.00057   0.00048   1.91005
    A3        1.89751  -0.00032  -0.00044  -0.00017  -0.00061   1.89691
    A4        1.95157   0.00002  -0.00019  -0.00036  -0.00055   1.95102
    A5        1.96408  -0.00008  -0.00010  -0.00010  -0.00020   1.96388
    A6        1.92696   0.00000   0.00033   0.00003   0.00036   1.92732
    A7        1.92137   0.00006  -0.00071   0.00054  -0.00017   1.92120
    A8        1.92259  -0.00004  -0.00054  -0.00036  -0.00091   1.92168
    A9        1.95999  -0.00006  -0.00017   0.00012  -0.00005   1.95993
   A10        1.94000   0.00009   0.00013  -0.00022  -0.00009   1.93991
   A11        1.81372  -0.00026   0.00084   0.00018   0.00102   1.81474
   A12        1.89562   0.00031   0.00016   0.00062   0.00078   1.89640
   A13        1.92708  -0.00004  -0.00037  -0.00030  -0.00067   1.92641
   A14        1.90105   0.00000   0.00049  -0.00081  -0.00031   1.90074
    D1        2.86170   0.00008  -0.00662  -0.00811  -0.01474   2.84697
    D2        0.77733  -0.00014  -0.00662  -0.00800  -0.01462   0.76272
    D3       -1.32835  -0.00014  -0.00670  -0.00827  -0.01498  -1.34332
    D4       -1.03697  -0.00076   0.00000   0.00000   0.00000  -1.03696
    D5       -3.04947  -0.00038  -0.00059  -0.00007  -0.00066  -3.05012
    D6        1.06502  -0.00034  -0.00007   0.00040   0.00032   1.06534
    D7        1.01842  -0.00034   0.00008   0.00053   0.00062   1.01903
    D8       -0.99408   0.00004  -0.00051   0.00047  -0.00004  -0.99413
    D9        3.12040   0.00008   0.00001   0.00093   0.00094   3.12134
   D10       -3.08416  -0.00038   0.00030   0.00021   0.00050  -3.08366
   D11        1.18652   0.00000  -0.00029   0.00014  -0.00015   1.18637
   D12       -0.98218   0.00004   0.00022   0.00061   0.00083  -0.98135
   D13        0.90683   0.00020   0.00520   0.00237   0.00757   0.91441
   D14        3.00978  -0.00005   0.00521   0.00242   0.00763   3.01741
   D15       -1.22166  -0.00008   0.00528   0.00246   0.00774  -1.21392
         Item               Value     Threshold  Converged?
 Maximum Force            0.000215     0.000450     YES
 RMS     Force            0.000060     0.000300     YES
 Maximum Displacement     0.014355     0.001800     NO 
 RMS     Displacement     0.003791     0.001200     NO 
 Predicted change in Energy=-1.848379D-06
 GradGradGradGradGradGradGradGradGradGradGradGradGradGradGradGradGradGrad

                          Input orientation:                          
 ---------------------------------------------------------------------
 Center     Atomic      Atomic             Coordinates (Angstroms)
 Number     Number       Type             X           Y           Z
 ---------------------------------------------------------------------
      1          6           0        1.004350    2.179368    1.596430
      2          8           0        1.640924    2.068070    2.888000
      3          6           0        1.308784    0.834939    0.924099
      4          8           0        2.722971    0.644833    0.822950
      5          1           0        1.446049    3.024403    1.040906
      6          1           0       -0.076312    2.340970    1.747816
      7          1           0        1.739115    2.951859    3.290418
      8          1           0        0.959493    0.801568   -0.123362
      9          1           0        0.878955   -0.006012    1.500483
     10          1           0        3.128972    0.776602    1.716060
 ---------------------------------------------------------------------
                    Distance matrix (angstroms):
                    1          2          3          4          5
     1  C    0.000000
     2  O    1.444218   0.000000
     3  C    1.533687   2.342613   0.000000
     4  O    2.430376   2.731458   1.430488   0.000000
     5  H    1.103535   2.089092   2.196869   2.709315   0.000000
     6  H    1.103115   2.079277   2.205704   3.401212   1.812287
     7  H    2.001553   0.976045   3.204059   3.518344   2.269681
     8  H    2.204094   3.337166   1.104669   2.007468   2.556022
     9  H    2.191076   2.609141   1.106423   2.069553   3.117085
    10  H    2.548741   2.292514   1.985872   0.989872   2.888022
                    6          7          8          9         10
     6  H    0.000000
     7  H    2.459386   0.000000
     8  H    2.635139   4.109192   0.000000
     9  H    2.545984   3.562688   1.815364   0.000000
[...]
           A10        112.19746 112.35750 112.55507 112.75417 112.88385
           A11        109.22419 109.46070 109.65648 109.83649 110.01619
           A12        102.61906 102.51515 102.48422 102.55182 102.64988
           A13        109.69164 109.71676 109.76632 109.75985 109.74081
           A14        109.89109 110.02832 110.14970 110.23773 110.31953
           D1          68.80502  70.01396  71.47294  72.66184  73.22498
           D2         -55.90415 -54.77948 -53.41644 -52.29302 -51.74830
           D3        -172.15191-170.88516-169.41037-168.24313-167.71178
           D4          90.58657 100.58657 110.58654 120.58654 130.58654
           D5         -31.57872 -21.66537 -11.64302  -1.58754   8.43034
           D6        -155.33810-145.48195-135.51712-125.43840-115.34554
           D7        -146.21817-136.21461-126.16888-116.12211-106.07284
           D8          91.61655 101.53345 111.60155 121.70381 131.77096
           D9         -32.14284 -22.28313 -12.27255  -2.14705   7.99508
           D10        -23.24536 -13.42199  -3.48644   6.53475  16.61867
           D11       -145.41064-135.67393-125.71601-115.63932-105.53753
           D12         90.82997 100.50949 110.40990 120.50982 130.68659
           D13        -59.23740 -63.09270 -66.05720 -68.21346 -69.64689
           D14         64.44667  60.47215  57.25761  54.82024  53.15384
           D15       -179.20938 176.89258 173.80214 171.46906 169.90934
                          21        22        23        24        25
     Eigenvalues --    -0.15224  -0.15223  -0.15224  -0.15226  -0.15227
           R1           1.43232   1.43200   1.43164   1.43120   1.43086
           R2           1.53687   1.53696   1.53695   1.53691   1.53687
           R3           1.10221   1.10232   1.10264   1.10313   1.10377
           R4           1.10793   1.10746   1.10693   1.10656   1.10614
           R5           0.97749   0.97784   0.97809   0.97846   0.97870
           R6           1.43071   1.43052   1.43049   1.43059   1.43088
           R7           1.10579   1.10553   1.10504   1.10436   1.10369
           R8           1.10557   1.10558   1.10563   1.10594   1.10620
           R9           0.98000   0.97970   0.97930   0.97904   0.97863
           A1         109.94047 109.71913 109.57471 109.50367 109.52384
           A2         110.13462 110.29802 110.43267 110.54269 110.58958
           A3         103.25101 103.24155 103.22690 103.19761 103.15654
           A4         112.80303 112.69767 112.47346 112.15993 111.79082
           A5         111.48109 111.61515 111.79352 112.01709 112.26324
           A6         108.80760 108.86065 108.95490 109.06515 109.19401
           A7         110.59458 110.55817 110.52529 110.50330 110.48404
           A8         109.95325 109.81203 109.66983 109.57471 109.50070
           A9         111.01679 111.03880 111.20622 111.48266 111.83857
           A10        112.92761 112.85767 112.70167 112.46982 112.22389
           A11        110.19746 110.36475 110.49905 110.57601 110.58753
           A12        102.78883 102.90923 103.03198 103.11208 103.18482
           A13        109.66369 109.57707 109.44905 109.32655 109.18014
           A14        110.37564 110.42705 110.45633 110.48265 110.49296
           D1          73.20670  72.79215  72.27986  71.82311  71.55866
           D2         -51.69220 -51.93152 -52.15122 -52.23646 -52.07960
           D3        -167.73906-168.10695-168.48780-168.73429-168.72579
           D4         140.58653 150.58660 160.58657 170.58658-179.41351
           D5          18.38057  28.25092  38.06629  47.84843  57.64405
           D6        -105.25521 -95.23589 -85.26394 -75.35787 -65.45455
           D7         -96.06334 -86.08986 -76.17890 -66.30603 -56.48466
           D8         141.73070 151.57446 161.30083 170.95581-179.42710
           D9          18.09492  28.08765  37.97059  47.74952  57.47429
           D10         26.70745  36.77361  46.77605  56.72762  66.62566
           D11        -95.49851 -85.56206 -75.74422 -66.01053 -56.31677
           D12        140.86571 150.95112 160.92554 170.78318-179.41538
           D13        -70.53874 -71.01697 -71.28415 -71.44469 -71.64110
           D14         52.15179  51.71801  51.65524  51.83008  52.04023
           D15        168.97065 168.57469 168.48937 168.59989 168.68463
                          26        27        28        29        30
     Eigenvalues --    -0.15226  -0.15224  -0.15223  -0.15225  -0.15233
           R1           1.43058   1.43055   1.43058   1.43083   1.43098
           R2           1.53687   1.53688   1.53686   1.53673   1.53644
           R3           1.10444   1.10506   1.10549   1.10571   1.10568
           R4           1.10592   1.10567   1.10571   1.10572   1.10595
           R5           0.97907   0.97931   0.97972   0.98003   0.98056
           R6           1.43127   1.43169   1.43207   1.43235   1.43254
           R7           1.10307   1.10265   1.10238   1.10231   1.10230
           R8           1.10666   1.10701   1.10757   1.10800   1.10860
           R9           0.97838   0.97796   0.97776   0.97736   0.97721
           A1         109.58966 109.70984 109.83092 109.98679 110.14807
           A2         110.58610 110.49691 110.37289 110.18849 110.00770
           A3         103.09068 103.00648 102.89648 102.77934 102.64659
           A4         111.44611 111.17409 111.03787 111.02626 111.13402
           A5         112.50994 112.71974 112.86105 112.91077 112.86909
           A6         109.32142 109.45195 109.55999 109.65454 109.71675
           A7         110.47120 110.44631 110.41822 110.36622 110.30864
           A8         109.51765 109.58389 109.76005 109.96924 110.25226
           A9         112.19141 112.49656 112.69596 112.78937 112.79248
           A10        111.97161 111.77072 111.59637 111.48468 111.36979
           A11        110.53178 110.42612 110.28451 110.12429 109.94363
           A12        103.21294 103.24835 103.24819 103.27081 103.25135
           A13        109.05868 108.92974 108.84719 108.78169 108.80315
           A14        110.51158 110.52720 110.56267 110.59461 110.64442
           D1          71.40350  71.29316  71.06115  70.56096  69.49715
           D2         -51.84213 -51.63140 -51.69080 -52.15796 -53.34433
           D3        -168.59902-168.45427-168.52458-168.95733-170.06678
           D4        -169.41358-159.41364-149.41372-139.41382-129.41375
           D5          67.46128  77.33748  87.25126  97.23782 107.25983
           D6         -55.55333 -45.58446 -35.57911 -25.49158 -15.41369
           D7         -46.67691 -36.89014 -27.05546 -17.18993  -7.23554
           D8        -169.80205-160.13902-150.39048-140.53829-130.56197
           D9          67.18334  76.93904  86.77914  96.73231 106.76452
           D10         76.52488  86.43297  96.41072 106.42853 116.51615
           D11        -46.60026 -36.81592 -26.92430 -16.91983  -6.81028
           D12       -169.61487-159.73786-149.75467-139.64923-129.48379
           D13        -71.94969 -72.40642 -72.94650 -73.34934 -73.21875
           D14         52.15200  52.05587  51.79423  51.54509  51.75121
           D15        168.64565 168.37182 167.95162 167.56787 167.70910
                          31        32        33        34        35
     Eigenvalues --    -0.15247  -0.15268  -0.15290  -0.15307  -0.15317
           R1           1.43122   1.43119   1.43116   1.43112   1.43096
           R2           1.53580   1.53501   1.53405   1.53324   1.53268
           R3           1.10540   1.10511   1.10489   1.10476   1.10499
           R4           1.10617   1.10675   1.10710   1.10723   1.10726
           R5           0.98108   0.98165   0.98233   0.98337   0.98458
           R6           1.43250   1.43264   1.43265   1.43271   1.43301
           R7           1.10252   1.10279   1.10305   1.10322   1.10313
           R8           1.10900   1.10946   1.10970   1.10982   1.10980
           R9           0.97700   0.97701   0.97708   0.97720   0.97752
           A1         110.30848 110.52361 110.72250 110.87755 110.97753
           A2         109.80614 109.63935 109.43129 109.17582 108.87837
           A3         102.54713 102.50096 102.53657 102.65139 102.89673
           A4         111.32851 111.53575 111.72243 111.85618 111.91967
           A5         112.73110 112.53136 112.34002 112.19197 112.15512
           A6         109.77104 109.73566 109.69391 109.68275 109.60928
           A7         110.22331 110.14516 110.02871 109.86641 109.68520
           A8         110.53538 110.78327 110.93826 110.97086 110.75106
           A9         112.69148 112.56307 112.42450 112.33271 112.32522
           A10        111.30984 111.25299 111.23951 111.23895 111.32031
           A11        109.78365 109.68043 109.63902 109.66852 109.81108
           A12        103.21915 103.12799 103.00503 102.82901 102.67653
           A13        108.87561 109.01039 109.17630 109.38176 109.53221
           A14        110.69758 110.71144 110.72831 110.75610 110.71726
           D1          67.96665  65.67015  62.57550  58.54623  53.64395
           D2         -55.09142 -57.68051 -61.00241 -65.12908 -69.97345
           D3        -171.73760-174.19121-177.39510 178.54141 173.78478
           D4        -119.41381-109.41371 -99.41357 -89.41342 -79.41346
           D5         117.32963 127.37239 137.41183 147.41604 157.39857
           D6          -5.31984   4.68293  14.61688  24.42044  34.15139
           D7           2.75142  12.83146  22.83536  32.71130  42.44451
           D8        -120.50514-110.38244-100.33924 -90.45925 -80.74346
           D9         116.84539 126.92811 136.86580 146.54516 156.00937
           D10        126.62030 136.66202 146.60898 156.46012 166.11684
           D11          3.36373  13.44812  23.43438  33.28957  42.92887
           D12       -119.28573-109.24133 -99.36058 -89.70602 -80.31831
           D13        -72.52671 -71.47183 -70.09906 -68.76895 -68.22206
           D14         52.39973  53.39087  54.66542  55.92199  56.40691
           D15        168.35432 169.40850 170.79252 172.20737 172.84795
                          36        37
     Eigenvalues --    -0.15315  -0.15304
           R1           1.43098   1.43099
           R2           1.53242   1.53276
           R3           1.10524   1.10543
           R4           1.10691   1.10643
           R5           0.98626   0.98845
           R6           1.43344   1.43411
           R7           1.10277   1.10220
           R8           1.10970   1.10938
           R9           0.97818   0.97885
           A1         110.88070 110.69157
           A2         108.52841 108.12648
           A3         103.25602 103.66356
           A4         111.99520 112.05638
           A5         112.23672 112.39538
           A6         109.54237 109.50704
           A7         109.50374 109.39537
           A8         110.28478 109.60121
           A9         112.43388 112.63212
           A10        111.44878 111.63311
           A11        110.04180 110.30886
           A12        102.54162 102.45772
           A13        109.64979 109.74326
           A14        110.68004 110.60812
           D1          48.06944  41.53728
           D2         -75.34010 -81.55695
           D3         168.46657 162.26418
           D4         -69.41352 -59.41352
           D5         167.36497 177.38144
           D6          43.78661  53.38995
           D7          51.97909  61.37441
           D8         -71.24243 -61.83063
           D9         165.17921 174.17788
           D10        175.68225-174.80164
           D11         52.46074  61.99332
           D12        -71.11762 -61.99817
           D13        -68.58979 -69.72335
           D14         56.01464  54.84241
           D15        172.62032 171.62733
                          Input orientation:                          
 ---------------------------------------------------------------------
 Center     Atomic      Atomic             Coordinates (Angstroms)
 Number     Number       Type             X           Y           Z
 ---------------------------------------------------------------------
      1          6           0        1.497156    2.157834    2.198279
      2          8           0        0.829997    3.134955    1.393386
      3          6           0        2.101723    1.055380    1.321667
      4          8           0        1.062827    0.417052    0.566751
      5          1           0        0.768612    1.756501    2.926379
      6          1           0        2.269608    2.742640    2.732616
      7          1           0        0.322857    2.679668    0.677455
      8          1           0        2.663596    0.308879    1.906378
      9          1           0        2.751711    1.475289    0.526735
     10          1           0        0.485213   -0.111598    1.154154
 ---------------------------------------------------------------------
                    Distance matrix (angstroms):
                    1          2          3          4          5
     1  C    0.000000
     2  O    1.430985   0.000000
     3  C    1.532760   2.438660   0.000000
     4  O    2.425045   2.850357   1.434107   0.000000
     5  H    1.105429   2.062515   2.200875   2.729199   0.000000
     6  H    1.106434   2.004975   2.205858   3.399361   1.806378
     7  H    1.991028   0.988451   2.493529   2.383117   2.471557
     8  H    2.205543   3.407631   1.102203   2.090158   2.593641
     9  H    2.198598   2.683013   1.109380   1.993437   3.125707
    10  H    2.695282   3.273563   2.000750   0.978851   2.590538
                    6          7          8          9         10
     6  H    0.000000
     7  H    2.831518   0.000000
     8  H    2.600209   3.551049   0.000000
     9  H    2.589308   2.715249   1.808781   0.000000
    10  H    3.717833   2.836330   2.342647   2.837053   0.000000
 Stoichiometry    C2H6O2
 Framework group  C1[X(C2H6O2)]
 Deg. of freedom    24
 Full point group                 C1      NOp   1
 Largest Abelian subgroup         C1      NOp   1
 Largest concise Abelian subgroup C1      NOp   1
                         Standard orientation:                         
 ---------------------------------------------------------------------
 Center     Atomic      Atomic             Coordinates (Angstroms)
 Number     Number       Type             X           Y           Z
 ---------------------------------------------------------------------
      1          6           0        0.717907   -0.581480    0.301755
      2          8           0        1.450572    0.555234   -0.166007
      3          6           0       -0.690736   -0.603797   -0.302048
      4          8           0       -1.390212    0.593371    0.064265
      5          1           0        0.695537   -0.545456    1.406371
      6          1           0        1.331359   -1.441397   -0.027513
      7          1           0        0.858042    1.346340   -0.175809
      8          1           0       -1.268193   -1.492272    0.001281
      9          1           0       -0.662383   -0.535219   -1.408943
     10          1           0       -1.600264    0.590828    1.020310
 ---------------------------------------------------------------------
 Rotational constants (GHZ):     14.9562690      5.5001412      4.5871892

 **********************************************************************

            Population analysis using the SCF density.

 **********************************************************************

 Orbital symmetries:
       Occupied  (A) (A) (A) (A) (A) (A) (A) (A) (A) (A) (A) (A)
                 (A)
       Virtual   (A) (A) (A) (A) (A) (A) (A) (A) (A)
 The electronic state is 1-A.
 Alpha  occ. eigenvalues --   -1.12892  -1.07729  -0.96128  -0.83402  -0.68128
 Alpha  occ. eigenvalues --   -0.64357  -0.59890  -0.57367  -0.52884  -0.47337
 Alpha  occ. eigenvalues --   -0.46427  -0.41038  -0.38371
 Alpha virt. eigenvalues --    0.07670   0.09707   0.11929   0.16988   0.18156
 Alpha virt. eigenvalues --    0.18789   0.19044   0.20355   0.21531
          Condensed to atoms (all electrons):
               1          2          3          4          5          6
     1  C    4.052204   0.000000   0.000000   0.000000   0.000000   0.000000
     2  O    0.000000   6.537090   0.000000   0.000000   0.000000   0.000000
     3  C    0.000000   0.000000   4.067667   0.000000   0.000000   0.000000
     4  O    0.000000   0.000000   0.000000   6.537008   0.000000   0.000000
     5  H    0.000000   0.000000   0.000000   0.000000   0.877722   0.000000
     6  H    0.000000   0.000000   0.000000   0.000000   0.000000   0.848232
     7  H    0.000000   0.000000   0.000000   0.000000   0.000000   0.000000
     8  H    0.000000   0.000000   0.000000   0.000000   0.000000   0.000000
     9  H    0.000000   0.000000   0.000000   0.000000   0.000000   0.000000
    10  H    0.000000   0.000000   0.000000   0.000000   0.000000   0.000000
               7          8          9         10
     1  C    0.000000   0.000000   0.000000   0.000000
     2  O    0.000000   0.000000   0.000000   0.000000
     3  C    0.000000   0.000000   0.000000   0.000000
     4  O    0.000000   0.000000   0.000000   0.000000
     5  H    0.000000   0.000000   0.000000   0.000000
     6  H    0.000000   0.000000   0.000000   0.000000
     7  H    0.677661   0.000000   0.000000   0.000000
     8  H    0.000000   0.874996   0.000000   0.000000
     9  H    0.000000   0.000000   0.832973   0.000000
    10  H    0.000000   0.000000   0.000000   0.694447
 Mulliken charges:
               1
     1  C   -0.052204
     2  O   -0.537090
     3  C   -0.067667
     4  O   -0.537008
     5  H    0.122278
     6  H    0.151768
     7  H    0.322339
     8  H    0.125004
     9  H    0.167027
    10  H    0.305553
 Sum of Mulliken charges =   0.00000
 Mulliken charges with hydrogens summed into heavy atoms:
               1
     1  C    0.221842
     2  O   -0.214751
     3  C    0.224364
     4  O   -0.231455
 Charge=              0.0000 electrons
 Dipole moment (field-independent basis, Debye):
    X=             -1.3405    Y=             -1.8215    Z=              1.5247  Tot=              2.7276
 N-N= 9.992935305645D+01 E-N=-1.686981877168D+02  KE=-1.394761692983D+01
 1\1\GINC-GTX1080DELTA\Scan\RPM6\ZDO\C2H6O2\MVEROT\18-Apr-2022\0\\#n PM
 6 Opt=modredundant\\Optimisation de geometrie\\0,1\C,1.4971559465,2.15
 78338437,2.1982786839\O,0.8299974577,3.1349549814,1.3933861046\C,2.101
 7225784,1.0553799471,1.3216669744\O,1.0628274302,0.4170516692,0.566751
 4814\H,0.7686124143,1.7565009148,2.9263785571\H,2.2696077646,2.7426403
 787,2.7326163811\H,0.3228566898,2.6796680476,0.6774550674\H,2.66359596
 5,0.3088794094,1.9063779948\H,2.7517105552,1.475288578,0.5267352306\H,
 0.4852131982,-0.11159777,1.1541535248\\Version=AM64L-G09RevD.01\State=
 1-A\HF=-0.1519427,-0.1519261,-0.1521017,-0.152367,-0.1526082,-0.152767
 5,-0.1528035,-0.152668,-0.1523213,-0.15179,-0.1524831,-0.1528447,-0.15
 30582,-0.1531602,-0.1531608,-0.1530572,-0.152871,-0.1526513,-0.1524531
 ,-0.152314,-0.152244,-0.1522291,-0.1522437,-0.152263,-0.1522705,-0.152
 2612,-0.1522414,-0.1522288,-0.1522489,-0.1523267,-0.1524737,-0.152677,
 -0.1528958,-0.1530744,-0.1531662,-0.1531535,-0.1530395\RMSD=3.745e-09,
 6.662e-09,5.684e-09,6.155e-09,6.558e-09,3.779e-09,3.796e-09,9.373e-09,
 3.334e-09,3.878e-09,8.546e-09,7.048e-09,6.507e-09,1.454e-09,1.819e-09,
 1.905e-09,9.738e-09,8.537e-09,7.207e-09,5.746e-09,3.982e-09,3.236e-09,
 2.780e-09,3.075e-09,2.903e-09,2.966e-09,3.399e-09,3.900e-09,3.492e-09,
 2.749e-09,5.085e-09,3.210e-09,5.969e-09,8.721e-09,8.776e-09,4.954e-09,
 5.483e-09\PG=C01 [X(C2H6O2)]\\@


 I KNOW YOU BELIEVE YOU UNDERSTAND WHAT YOU THINK I SAID,
 BUT I AM NOT SURE YOU REALIZE THAT WHAT YOU HEARD IS NOT WHAT I MEANT.
 Job cpu time:       0 days  0 hours  1 minutes 27.8 seconds.
 File lengths (MBytes):  RWF=     72 Int=      0 D2E=      0 Chk=      4 Scr=      2
 Normal termination of Gaussian 09 at Mon Apr 18 00:24:29 2022.
