 Entering Gaussian System, Link 0=g09
 Input=/scratch/mverot/1-4-butanediol-redundant-opt/1-4-butanediol-redundant-opt.com
 Output=/scratch/mverot/1-4-butanediol-redundant-opt/1-4-butanediol-redundant-opt.log
 Initial command:
 /opt/g09/l1.exe "/scratch/mverot/1-4-butanediol-redundant-opt/Gau-1484734.inp" -scrdir="/scratch/mverot/1-4-butanediol-redundant-opt/"
 Entering Link 1 = /opt/g09/l1.exe PID=   1484736.
  
 Copyright (c) 1988,1990,1992,1993,1995,1998,2003,2009,2013,
            Gaussian, Inc.  All Rights Reserved.
  
 This is part of the Gaussian(R) 09 program.  It is based on
 the Gaussian(R) 03 system (copyright 2003, Gaussian, Inc.),
 the Gaussian(R) 98 system (copyright 1998, Gaussian, Inc.),
 the Gaussian(R) 94 system (copyright 1995, Gaussian, Inc.),
 the Gaussian 92(TM) system (copyright 1992, Gaussian, Inc.),
 the Gaussian 90(TM) system (copyright 1990, Gaussian, Inc.),
 the Gaussian 88(TM) system (copyright 1988, Gaussian, Inc.),
 the Gaussian 86(TM) system (copyright 1986, Carnegie Mellon
 University), and the Gaussian 82(TM) system (copyright 1983,
 Carnegie Mellon University). Gaussian is a federally registered
 trademark of Gaussian, Inc.
  
 This software contains proprietary and confidential information,
 including trade secrets, belonging to Gaussian, Inc.
  
 This software is provided under written license and may be
 used, copied, transmitted, or stored only in accord with that
 written license.
  
 The following legend is applicable only to US Government
 contracts under FAR:
  
                    RESTRICTED RIGHTS LEGEND
  
 Use, reproduction and disclosure by the US Government is
 subject to restrictions as set forth in subparagraphs (a)
 and (c) of the Commercial Computer Software - Restricted
 Rights clause in FAR 52.227-19.
  
 Gaussian, Inc.
 340 Quinnipiac St., Bldg. 40, Wallingford CT 06492
  
  
 ---------------------------------------------------------------
 Warning -- This program may not be used in any manner that
 competes with the business of Gaussian, Inc. or will provide
 assistance to any competitor of Gaussian, Inc.  The licensee
 of this program is prohibited from giving any competitor of
 Gaussian, Inc. access to this program.  By using this program,
 the user acknowledges that Gaussian, Inc. is engaged in the
 business of creating and licensing software in the field of
 computational chemistry and represents and warrants to the
 licensee that it is not a competitor of Gaussian, Inc. and that
 it will not use this program in any manner prohibited above.
 ---------------------------------------------------------------
  

 Cite this work as:
 Gaussian 09, Revision D.01,
 M. J. Frisch, G. W. Trucks, H. B. Schlegel, G. E. Scuseria, 
 M. A. Robb, J. R. Cheeseman, G. Scalmani, V. Barone, B. Mennucci, 
 G. A. Petersson, H. Nakatsuji, M. Caricato, X. Li, H. P. Hratchian, 
 A. F. Izmaylov, J. Bloino, G. Zheng, J. L. Sonnenberg, M. Hada, 
 M. Ehara, K. Toyota, R. Fukuda, J. Hasegawa, M. Ishida, T. Nakajima, 
 Y. Honda, O. Kitao, H. Nakai, T. Vreven, J. A. Montgomery, Jr., 
 J. E. Peralta, F. Ogliaro, M. Bearpark, J. J. Heyd, E. Brothers, 
 K. N. Kudin, V. N. Staroverov, T. Keith, R. Kobayashi, J. Normand, 
 K. Raghavachari, A. Rendell, J. C. Burant, S. S. Iyengar, J. Tomasi, 
 M. Cossi, N. Rega, J. M. Millam, M. Klene, J. E. Knox, J. B. Cross, 
 V. Bakken, C. Adamo, J. Jaramillo, R. Gomperts, R. E. Stratmann, 
 O. Yazyev, A. J. Austin, R. Cammi, C. Pomelli, J. W. Ochterski, 
 R. L. Martin, K. Morokuma, V. G. Zakrzewski, G. A. Voth, 
 P. Salvador, J. J. Dannenberg, S. Dapprich, A. D. Daniels, 
 O. Farkas, J. B. Foresman, J. V. Ortiz, J. Cioslowski, 
 and D. J. Fox, Gaussian, Inc., Wallingford CT, 2013.
 
 ******************************************
 Gaussian 09:  AM64L-G09RevD.01 24-Apr-2013
                18-Apr-2022 
 ******************************************
 %chk=1-4-butanediol-opt
 -----------------------
 #n AM1 Opt=modredundant
 -----------------------
 1/14=-1,18=120,19=15,26=1,38=1/1,3;
 2/9=110,12=2,17=6,18=5,40=1/2;
 3/5=2,16=1,25=1,41=700000,71=1/1,2,3;
 4/35=1/1;
 5/5=2,35=1,38=5/2;
 6/7=2,8=2,9=2,10=2,28=1/1;
 7//1,2,3,16;
 1/14=-1,18=20,19=15,26=1/3(2);
 2/9=110/2;
 99//99;
 2/9=110/2;
 3/5=2,16=1,25=1,41=700000,71=1,135=20/1,2,3;
 4/5=5,16=3,35=1/1;
 5/5=2,35=1,38=5/2;
 7//1,2,3,16;
 1/14=-1,18=20,19=15,26=1/3(-5);
 2/9=110/2;
 6/7=2,8=2,9=2,10=2,19=2,28=1/1;
 99/9=1/99;
 -------------------------
 Optimisation de geometrie
 -------------------------
 Symbolic Z-matrix:
 Charge =  0 Multiplicity = 1
 C                     1.6107    1.2545    1.9562 
 C                     1.1287    2.3802    1.0303 
 O                     1.4973    3.6767    1.461 
 C                     3.1202    0.9463    1.9456 
 C                     4.0514    2.0104    2.5215 
 O                     4.1945    3.0862    1.5783 
 H                     1.0825    0.3332    1.6712 
 H                     1.2915    1.4946    2.98 
 H                     0.0328    2.3688    1.0055 
 H                     1.4756    2.182     0.0004 
 H                     2.4724    3.7128    1.402 
 H                     3.4548    0.7229    0.923 
 H                     3.2871    0.0321    2.5311 
 H                     5.0392    1.5667    2.7112 
 H                     3.6576    2.3857    3.4778 
 H                     4.7634    3.7635    1.976 
 
 The following ModRedundant input section has been read:
 D       2       1       4       5 S  36 10.000                                
 

 GradGradGradGradGradGradGradGradGradGradGradGradGradGradGradGradGradGrad
 Berny optimization.
 Initialization pass.
                           ----------------------------
                           !    Initial Parameters    !
                           ! (Angstroms and Degrees)  !
 --------------------------                            --------------------------
 ! Name  Definition              Value          Derivative Info.                !
 --------------------------------------------------------------------------------
 ! R1    R(1,2)                  1.5352         estimate D2E/DX2                !
 ! R2    R(1,4)                  1.5407         estimate D2E/DX2                !
 ! R3    R(1,7)                  1.0996         estimate D2E/DX2                !
 ! R4    R(1,8)                  1.099          estimate D2E/DX2                !
 ! R5    R(2,3)                  1.415          estimate D2E/DX2                !
 ! R6    R(2,9)                  1.0962         estimate D2E/DX2                !
 ! R7    R(2,10)                 1.1047         estimate D2E/DX2                !
 ! R8    R(3,11)                 0.9776         estimate D2E/DX2                !
 ! R9    R(4,5)                  1.5268         estimate D2E/DX2                !
 ! R10   R(4,12)                 1.0989         estimate D2E/DX2                !
 ! R11   R(4,13)                 1.0984         estimate D2E/DX2                !
 ! R12   R(5,6)                  1.4379         estimate D2E/DX2                !
 ! R13   R(5,14)                 1.0994         estimate D2E/DX2                !
 ! R14   R(5,15)                 1.1002         estimate D2E/DX2                !
 ! R15   R(6,16)                 0.9698         estimate D2E/DX2                !
 ! A1    A(2,1,4)              116.7531         estimate D2E/DX2                !
 ! A2    A(2,1,7)              107.8932         estimate D2E/DX2                !
 ! A3    A(2,1,8)              108.0877         estimate D2E/DX2                !
 ! A4    A(4,1,7)              107.5333         estimate D2E/DX2                !
 ! A5    A(4,1,8)              109.554          estimate D2E/DX2                !
 ! A6    A(7,1,8)              106.559          estimate D2E/DX2                !
 ! A7    A(1,2,3)              113.9843         estimate D2E/DX2                !
 ! A8    A(1,2,9)              108.6562         estimate D2E/DX2                !
 ! A9    A(1,2,10)             109.3984         estimate D2E/DX2                !
 ! A10   A(3,2,9)              106.0708         estimate D2E/DX2                !
 ! A11   A(3,2,10)             111.4914         estimate D2E/DX2                !
 ! A12   A(9,2,10)             106.9162         estimate D2E/DX2                !
 ! A13   A(2,3,11)             105.9801         estimate D2E/DX2                !
 ! A14   A(1,4,5)              117.1002         estimate D2E/DX2                !
 ! A15   A(1,4,12)             110.2059         estimate D2E/DX2                !
 ! A16   A(1,4,13)             108.1622         estimate D2E/DX2                !
 ! A17   A(5,4,12)             107.8776         estimate D2E/DX2                !
 ! A18   A(5,4,13)             106.6391         estimate D2E/DX2                !
 ! A19   A(12,4,13)            106.2946         estimate D2E/DX2                !
 ! A20   A(4,5,6)              109.5557         estimate D2E/DX2                !
 ! A21   A(4,5,14)             109.3787         estimate D2E/DX2                !
 ! A22   A(4,5,15)             110.3221         estimate D2E/DX2                !
 ! A23   A(6,5,14)             109.0102         estimate D2E/DX2                !
 ! A24   A(6,5,15)             110.5225         estimate D2E/DX2                !
 ! A25   A(14,5,15)            108.0171         estimate D2E/DX2                !
 ! A26   A(5,6,16)             108.174          estimate D2E/DX2                !
 ! D1    D(4,1,2,3)            -71.948          estimate D2E/DX2                !
 ! D2    D(4,1,2,9)            170.0178         estimate D2E/DX2                !
 ! D3    D(4,1,2,10)            53.6277         estimate D2E/DX2                !
 ! D4    D(7,1,2,3)            166.9021         estimate D2E/DX2                !
 ! D5    D(7,1,2,9)             48.8678         estimate D2E/DX2                !
 ! D6    D(7,1,2,10)           -67.5223         estimate D2E/DX2                !
 ! D7    D(8,1,2,3)             52.0354         estimate D2E/DX2                !
 ! D8    D(8,1,2,9)            -65.9989         estimate D2E/DX2                !
 ! D9    D(8,1,2,10)           177.611          estimate D2E/DX2                !
 ! D10   D(2,1,4,5)             68.0507         Scan                            !
 ! D11   D(2,1,4,12)           -55.715          estimate D2E/DX2                !
 ! D12   D(2,1,4,13)          -171.5252         estimate D2E/DX2                !
 ! D13   D(7,1,4,5)           -170.6099         estimate D2E/DX2                !
 ! D14   D(7,1,4,12)            65.6244         estimate D2E/DX2                !
 ! D15   D(7,1,4,13)           -50.1858         estimate D2E/DX2                !
 ! D16   D(8,1,4,5)            -55.1806         estimate D2E/DX2                !
 ! D17   D(8,1,4,12)          -178.9464         estimate D2E/DX2                !
 ! D18   D(8,1,4,13)            65.2435         estimate D2E/DX2                !
 ! D19   D(1,2,3,11)            65.689          estimate D2E/DX2                !
 ! D20   D(9,2,3,11)          -174.8043         estimate D2E/DX2                !
 ! D21   D(10,2,3,11)          -58.7729         estimate D2E/DX2                !
 ! D22   D(1,4,5,6)            -76.1976         estimate D2E/DX2                !
 ! D23   D(1,4,5,14)           164.3712         estimate D2E/DX2                !
 ! D24   D(1,4,5,15)            45.6919         estimate D2E/DX2                !
 ! D25   D(12,4,5,6)            48.744          estimate D2E/DX2                !
 ! D26   D(12,4,5,14)          -70.6872         estimate D2E/DX2                !
 ! D27   D(12,4,5,15)          170.6335         estimate D2E/DX2                !
 ! D28   D(13,4,5,6)           162.5783         estimate D2E/DX2                !
 ! D29   D(13,4,5,14)           43.1471         estimate D2E/DX2                !
 ! D30   D(13,4,5,15)          -75.5322         estimate D2E/DX2                !
 ! D31   D(4,5,6,16)           178.0428         estimate D2E/DX2                !
 ! D32   D(14,5,6,16)          -62.2996         estimate D2E/DX2                !
 ! D33   D(15,5,6,16)           56.2735         estimate D2E/DX2                !
 --------------------------------------------------------------------------------
 Trust Radius=3.00D-01 FncErr=1.00D-07 GrdErr=1.00D-07
 Number of optimizations in scan=  37
 Number of steps in this run=     84 maximum allowed number of steps=    100.
 GradGradGradGradGradGradGradGradGradGradGradGradGradGradGradGradGradGrad

                          Input orientation:                          
 ---------------------------------------------------------------------
 Center     Atomic      Atomic             Coordinates (Angstroms)
 Number     Number       Type             X           Y           Z
 ---------------------------------------------------------------------
      1          6           0        1.610700    1.254500    1.956200
      2          6           0        1.128700    2.380200    1.030300
      3          8           0        1.497300    3.676700    1.461000
      4          6           0        3.120200    0.946300    1.945600
      5          6           0        4.051400    2.010400    2.521500
      6          8           0        4.194500    3.086200    1.578300
      7          1           0        1.082500    0.333200    1.671200
      8          1           0        1.291500    1.494600    2.980000
      9          1           0        0.032800    2.368800    1.005500
     10          1           0        1.475600    2.182000    0.000400
     11          1           0        2.472400    3.712800    1.402000
     12          1           0        3.454800    0.722900    0.923000
     13          1           0        3.287100    0.032100    2.531100
     14          1           0        5.039200    1.566700    2.711200
     15          1           0        3.657600    2.385700    3.477800
     16          1           0        4.763400    3.763500    1.976000
 ---------------------------------------------------------------------
                    Distance matrix (angstroms):
                    1          2          3          4          5
     1  C    0.000000
     2  C    1.535192   0.000000
     3  O    2.474901   1.415020   0.000000
     4  C    1.540678   2.619144   3.213056   0.000000
     5  C    2.616862   3.301909   3.228722   1.526795   0.000000
     6  O    3.189664   3.193410   2.763573   2.422437   1.437863
     7  H    1.099552   2.145483   3.375683   2.145555   3.514310
     8  H    1.098955   2.147585   2.666697   2.171350   2.844876
     9  H    2.152966   1.096240   2.015650   3.526944   4.309971
    10  H    2.168793   1.104680   2.089964   2.831160   3.608343
    11  H    2.663251   1.928604   0.977550   2.892865   2.577729
    12  H    2.179634   2.858128   3.584157   1.098897   2.137473
    13  H    2.152926   3.524864   4.199001   1.098375   2.120829
    14  H    3.524501   4.333499   4.308150   2.157221   1.099366
    15  H    2.790104   3.519321   3.225067   2.169864   1.100199
    16  H    4.029267   4.002363   3.307593   3.261540   1.969232
                    6          7          8          9         10
     6  O    0.000000
     7  H    4.155982   0.000000
     8  H    3.595186   1.762240   0.000000
     9  H    4.261750   2.385098   2.499440   0.000000
    10  H    3.271049   2.522729   3.063401   1.768274   0.000000
    11  H    1.841015   3.664149   2.967325   2.813396   2.302486
    12  H    2.561593   2.517832   3.083283   3.798141   2.626289
    13  H    3.325467   2.385446   2.514525   4.286968   3.782598
    14  H    2.075057   4.273008   3.758019   5.349469   4.519544
    15  H    2.094531   3.756022   2.576877   4.387679   4.110344
    16  H    0.969818   5.040723   4.267319   5.026493   4.148948
                   11         12         13         14         15
    11  H    0.000000
    12  H    3.183403   0.000000
    13  H    3.935245   1.758213   0.000000
    14  H    3.592800   2.533768   2.336084   0.000000
    15  H    2.734015   3.055002   2.563775   1.779678   0.000000
    16  H    2.362356   3.473686   4.051042   2.332920   2.318735
                   16
    16  H    0.000000
 Stoichiometry    C4H10O2
 Framework group  C1[X(C4H10O2)]
 Deg. of freedom    42
 Full point group                 C1      NOp   1
 Largest Abelian subgroup         C1      NOp   1
 Largest concise Abelian subgroup C1      NOp   1
                         Standard orientation:                         
 ---------------------------------------------------------------------
 Center     Atomic      Atomic             Coordinates (Angstroms)
 Number     Number       Type             X           Y           Z
 ---------------------------------------------------------------------
      1          6           0        0.830011    1.152271    0.212354
      2          6           0        1.646795   -0.045249   -0.293241
      3          8           0        1.303057   -1.274744    0.317060
      4          6           0       -0.644568    1.221794   -0.228637
      5          6           0       -1.588870    0.160941    0.331710
      6          8           0       -1.371828   -1.085645   -0.351200
      7          1           0        1.324059    2.070107   -0.137655
      8          1           0        0.886718    1.165023    1.309771
      9          1           0        2.703422    0.126014   -0.056702
     10          1           0        1.569165   -0.103974   -1.393623
     11          1           0        0.386969   -1.467934    0.035876
     12          1           0       -0.714763    1.190762   -1.324851
     13          1           0       -1.048228    2.196018    0.078564
     14          1           0       -2.629383    0.479027    0.174364
     15          1           0       -1.429669    0.040813    1.413682
     16          1           0       -1.958328   -1.751287    0.040574
 ---------------------------------------------------------------------
 Rotational constants (GHZ):      4.5593886      2.8857863      1.9677595
 Standard basis: VSTO-6G (5D, 7F)
 There are    34 symmetry adapted cartesian basis functions of A   symmetry.
 There are    34 symmetry adapted basis functions of A   symmetry.
    34 basis functions,   204 primitive gaussians,    34 cartesian basis functions
    19 alpha electrons       19 beta electrons
       nuclear repulsion energy       181.3179396057 Hartrees.
 Integral buffers will be    131072 words long.
 Regular integral format.
 Two-electron integral symmetry is turned off.
 Do NDO integrals.
 One-electron integrals computed using PRISM.
 NBasis=    34 RedAO= F EigKep=  0.00D+00  NBF=    34
 NBsUse=    34 1.00D-04 EigRej=  0.00D+00 NBFU=    34
 Simple Huckel Guess.
 Overlap will be assumed to be unity.
 Keep J ints in memory in canonical form, NReq=895124.
 Requested convergence on RMS density matrix=1.00D-08 within 128 cycles.
 Requested convergence on MAX density matrix=1.00D-06.
 Requested convergence on             energy=1.00D-06.
 No special actions if energy rises.
 SCF Done:  E(RAM1) = -0.186823177163     A.U. after   13 cycles
            NFock= 12  Conv=0.31D-08     -V/T= 0.9925

 **********************************************************************

            Population analysis using the SCF density.

 **********************************************************************

 Orbital symmetries:
       Occupied  (A) (A) (A) (A) (A) (A) (A) (A) (A) (A) (A) (A)
                 (A) (A) (A) (A) (A) (A) (A)
       Virtual   (A) (A) (A) (A) (A) (A) (A) (A) (A) (A) (A) (A)
                 (A) (A) (A)
 The electronic state is 1-A.
 Alpha  occ. eigenvalues --   -1.43184  -1.36601  -1.24806  -1.07067  -0.90619
 Alpha  occ. eigenvalues --   -0.78999  -0.69185  -0.65095  -0.60869  -0.57242
 Alpha  occ. eigenvalues --   -0.56529  -0.53692  -0.50444  -0.49088  -0.46651
 Alpha  occ. eigenvalues --   -0.43872  -0.42303  -0.41437  -0.39057
 Alpha virt. eigenvalues --    0.11121   0.13012   0.13758   0.14278   0.14990
 Alpha virt. eigenvalues --    0.15557   0.16102   0.16569   0.17311   0.17557
 Alpha virt. eigenvalues --    0.18026   0.18948   0.19119   0.21684   0.25165
          Condensed to atoms (all electrons):
               1          2          3          4          5          6
     1  C    4.190757   0.000000   0.000000   0.000000   0.000000   0.000000
     2  C    0.000000   4.007201   0.000000   0.000000   0.000000   0.000000
     3  O    0.000000   0.000000   6.344319   0.000000   0.000000   0.000000
     4  C    0.000000   0.000000   0.000000   4.158145   0.000000   0.000000
     5  C    0.000000   0.000000   0.000000   0.000000   4.016696   0.000000
     6  O    0.000000   0.000000   0.000000   0.000000   0.000000   6.345674
     7  H    0.000000   0.000000   0.000000   0.000000   0.000000   0.000000
     8  H    0.000000   0.000000   0.000000   0.000000   0.000000   0.000000
     9  H    0.000000   0.000000   0.000000   0.000000   0.000000   0.000000
    10  H    0.000000   0.000000   0.000000   0.000000   0.000000   0.000000
    11  H    0.000000   0.000000   0.000000   0.000000   0.000000   0.000000
    12  H    0.000000   0.000000   0.000000   0.000000   0.000000   0.000000
    13  H    0.000000   0.000000   0.000000   0.000000   0.000000   0.000000
    14  H    0.000000   0.000000   0.000000   0.000000   0.000000   0.000000
    15  H    0.000000   0.000000   0.000000   0.000000   0.000000   0.000000
    16  H    0.000000   0.000000   0.000000   0.000000   0.000000   0.000000
               7          8          9         10         11         12
     1  C    0.000000   0.000000   0.000000   0.000000   0.000000   0.000000
     2  C    0.000000   0.000000   0.000000   0.000000   0.000000   0.000000
     3  O    0.000000   0.000000   0.000000   0.000000   0.000000   0.000000
     4  C    0.000000   0.000000   0.000000   0.000000   0.000000   0.000000
     5  C    0.000000   0.000000   0.000000   0.000000   0.000000   0.000000
     6  O    0.000000   0.000000   0.000000   0.000000   0.000000   0.000000
     7  H    0.917370   0.000000   0.000000   0.000000   0.000000   0.000000
     8  H    0.000000   0.913121   0.000000   0.000000   0.000000   0.000000
     9  H    0.000000   0.000000   0.909125   0.000000   0.000000   0.000000
    10  H    0.000000   0.000000   0.000000   0.940525   0.000000   0.000000
    11  H    0.000000   0.000000   0.000000   0.000000   0.776945   0.000000
    12  H    0.000000   0.000000   0.000000   0.000000   0.000000   0.906387
    13  H    0.000000   0.000000   0.000000   0.000000   0.000000   0.000000
    14  H    0.000000   0.000000   0.000000   0.000000   0.000000   0.000000
    15  H    0.000000   0.000000   0.000000   0.000000   0.000000   0.000000
    16  H    0.000000   0.000000   0.000000   0.000000   0.000000   0.000000
              13         14         15         16
     1  C    0.000000   0.000000   0.000000   0.000000
     2  C    0.000000   0.000000   0.000000   0.000000
     3  O    0.000000   0.000000   0.000000   0.000000
     4  C    0.000000   0.000000   0.000000   0.000000
     5  C    0.000000   0.000000   0.000000   0.000000
     6  O    0.000000   0.000000   0.000000   0.000000
     7  H    0.000000   0.000000   0.000000   0.000000
     8  H    0.000000   0.000000   0.000000   0.000000
     9  H    0.000000   0.000000   0.000000   0.000000
    10  H    0.000000   0.000000   0.000000   0.000000
    11  H    0.000000   0.000000   0.000000   0.000000
    12  H    0.000000   0.000000   0.000000   0.000000
    13  H    0.916572   0.000000   0.000000   0.000000
    14  H    0.000000   0.935596   0.000000   0.000000
    15  H    0.000000   0.000000   0.930225   0.000000
    16  H    0.000000   0.000000   0.000000   0.791341
 Mulliken charges:
               1
     1  C   -0.190757
     2  C   -0.007201
     3  O   -0.344319
     4  C   -0.158145
     5  C   -0.016696
     6  O   -0.345674
     7  H    0.082630
     8  H    0.086879
     9  H    0.090875
    10  H    0.059475
    11  H    0.223055
    12  H    0.093613
    13  H    0.083428
    14  H    0.064404
    15  H    0.069775
    16  H    0.208659
 Sum of Mulliken charges =   0.00000
 Mulliken charges with hydrogens summed into heavy atoms:
               1
     1  C   -0.021248
     2  C    0.143149
     3  O   -0.121264
     4  C    0.018895
     5  C    0.117483
     6  O   -0.137015
 Charge=              0.0000 electrons
 Dipole moment (field-independent basis, Debye):
    X=             -2.1341    Y=              1.4988    Z=              0.2564  Tot=              2.6204
 N-N= 1.813179396057D+02 E-N=-3.108469995114D+02  KE=-2.502767836561D+01
 Calling FoFJK, ICntrl=      2127 FMM=F ISym2X=0 I1Cent= 0 IOpClX= 0 NMat=1 NMatS=1 NMatT=0.
 ***** Axes restored to original set *****
 -------------------------------------------------------------------
 Center     Atomic                   Forces (Hartrees/Bohr)
 Number     Number              X              Y              Z
 -------------------------------------------------------------------
      1        6           0.024978766    0.014898326   -0.005882678
      2        6           0.017422448   -0.006381957    0.011520058
      3        8           0.004936706   -0.009552938   -0.001967223
      4        6          -0.016055775    0.022507797   -0.002206406
      5        6          -0.011990953    0.008786823   -0.016258769
      6        8           0.009227516   -0.013478831    0.007468212
      7        1          -0.006164304   -0.012662669   -0.006304013
      8        1          -0.001386831    0.005009509    0.014775377
      9        1          -0.019294624    0.002878300    0.002831234
     10        1           0.008164086    0.000309225   -0.011213367
     11        1          -0.017043877    0.006052616   -0.000303426
     12        1           0.001366446   -0.000471817   -0.016403529
     13        1           0.000488848   -0.013113752    0.010991465
     14        1           0.015350878   -0.006452571    0.000647989
     15        1          -0.006956720    0.008074746    0.011072795
     16        1          -0.003042610   -0.006402808    0.001232282
 -------------------------------------------------------------------
 Cartesian Forces:  Max     0.024978766 RMS     0.010777827

 GradGradGradGradGradGradGradGradGradGradGradGradGradGradGradGradGradGrad
 Berny optimization.
 FormGI is forming the generalized inverse of G from B-inverse, IUseBI=4.
 Internal  Forces:  Max     0.030071057 RMS     0.009189603
 Search for a local minimum.
 Step number   1 out of a maximum of   84 on scan point     1 out of    37
 All quantities printed in internal units (Hartrees-Bohrs-Radians)
 Mixed Optimization -- RFO/linear search
 Second derivative matrix not updated -- first step.
 ITU=  0
     Eigenvalues ---    0.00300   0.00412   0.01191   0.01282   0.01493
     Eigenvalues ---    0.03095   0.04594   0.04690   0.04708   0.05131
     Eigenvalues ---    0.05871   0.05894   0.08955   0.09054   0.11250
     Eigenvalues ---    0.11278   0.11807   0.12687   0.13729   0.14096
     Eigenvalues ---    0.16000   0.16000   0.21997   0.22001   0.22010
     Eigenvalues ---    0.22052   0.28459   0.28949   0.29721   0.33170
     Eigenvalues ---    0.33660   0.33732   0.33752   0.33798   0.33804
     Eigenvalues ---    0.33862   0.34101   0.39880   0.43219   0.51864
     Eigenvalues ---    0.534141000.000001000.000001000.000001000.00000
     Eigenvalues --- 1000.000001000.000001000.000001000.000001000.00000
     Eigenvalues --- 1000.000001000.000001000.000001000.000001000.00000
     Eigenvalues --- 1000.000001000.000001000.000001000.000001000.00000
     Eigenvalues --- 1000.000001000.000001000.000001000.000001000.00000
     Eigenvalues --- 1000.000001000.000001000.000001000.000001000.00000
     Eigenvalues --- 1000.000001000.000001000.000001000.00000
 RFO step:  Lambda=-2.91244624D-02 EMin= 3.00421198D-03
 Linear search not attempted -- first point.
 Iteration  1 RMS(Cart)=  0.22760524 RMS(Int)=  0.01722458
 Iteration  2 RMS(Cart)=  0.02620553 RMS(Int)=  0.00082361
 Iteration  3 RMS(Cart)=  0.00037852 RMS(Int)=  0.00080535
 Iteration  4 RMS(Cart)=  0.00000040 RMS(Int)=  0.00080535
 Iteration  1 RMS(Cart)=  0.00025563 RMS(Int)=  0.00015582
 Iteration  2 RMS(Cart)=  0.00016903 RMS(Int)=  0.00017239
 Iteration  3 RMS(Cart)=  0.00011177 RMS(Int)=  0.00019822
 Iteration  4 RMS(Cart)=  0.00007391 RMS(Int)=  0.00021962
 Iteration  5 RMS(Cart)=  0.00004887 RMS(Int)=  0.00023513
 Iteration  6 RMS(Cart)=  0.00003231 RMS(Int)=  0.00024586
 Iteration  7 RMS(Cart)=  0.00002137 RMS(Int)=  0.00025314
 Iteration  8 RMS(Cart)=  0.00001413 RMS(Int)=  0.00025803
 Iteration  9 RMS(Cart)=  0.00000934 RMS(Int)=  0.00026129
 Iteration 10 RMS(Cart)=  0.00000618 RMS(Int)=  0.00026346
 Iteration 11 RMS(Cart)=  0.00000408 RMS(Int)=  0.00026490
 Iteration 12 RMS(Cart)=  0.00000270 RMS(Int)=  0.00026585
 Iteration 13 RMS(Cart)=  0.00000179 RMS(Int)=  0.00026648
 Iteration 14 RMS(Cart)=  0.00000118 RMS(Int)=  0.00026690
 Iteration 15 RMS(Cart)=  0.00000078 RMS(Int)=  0.00026718
 Variable       Old X    -DE/DX   Delta X   Delta X   Delta X     New X
                                 (Linear)    (Quad)   (Total)
    R1        2.90109  -0.00361   0.00000  -0.01132  -0.01132   2.88977
    R2        2.91146  -0.01124   0.00000  -0.03584  -0.03584   2.87562
    R3        2.07785   0.01521   0.00000   0.04149   0.04149   2.11935
    R4        2.07672   0.01526   0.00000   0.04157   0.04157   2.11830
    R5        2.67400  -0.00705   0.00000  -0.01529  -0.01529   2.65871
    R6        2.07159   0.01919   0.00000   0.05186   0.05186   2.12345
    R7        2.08754   0.01296   0.00000   0.03592   0.03593   2.12347
    R8        1.84730  -0.01676   0.00000  -0.03060  -0.03060   1.81671
    R9        2.88522  -0.00345   0.00000  -0.01058  -0.01058   2.87464
   R10        2.07662   0.01578   0.00000   0.04297   0.04297   2.11958
   R11        2.07563   0.01685   0.00000   0.04581   0.04581   2.12144
   R12        2.71717  -0.01997   0.00000  -0.04666  -0.04666   2.67051
   R13        2.07750   0.01651   0.00000   0.04503   0.04503   2.12253
   R14        2.07908   0.01487   0.00000   0.04066   0.04066   2.11973
   R15        1.83269  -0.00575   0.00000  -0.01021  -0.01021   1.82248
    A1        2.03773   0.03007   0.00000   0.12400   0.12408   2.16181
    A2        1.88309  -0.01015   0.00000  -0.03472  -0.03189   1.85121
    A3        1.88649  -0.00779   0.00000  -0.02843  -0.03093   1.85555
    A4        1.87681  -0.01247   0.00000  -0.06862  -0.06743   1.80938
    A5        1.91208  -0.00713   0.00000  -0.01191  -0.01354   1.89854
    A6        1.85981   0.00588   0.00000   0.01135   0.00988   1.86969
    A7        1.98940   0.01441   0.00000   0.05619   0.05504   2.04444
    A8        1.89641  -0.00456   0.00000  -0.03614  -0.03517   1.86124
    A9        1.90936  -0.00113   0.00000   0.02108   0.01942   1.92878
   A10        1.85128  -0.01008   0.00000  -0.08055  -0.07977   1.77152
   A11        1.94589  -0.00322   0.00000   0.01155   0.00918   1.95507
   A12        1.86604   0.00369   0.00000   0.02131   0.02161   1.88765
   A13        1.84970   0.01081   0.00000   0.05718   0.05718   1.90688
   A14        2.04378   0.02316   0.00000   0.09454   0.09463   2.13842
   A15        1.92346  -0.00578   0.00000  -0.01168  -0.01307   1.91039
   A16        1.88779  -0.01111   0.00000  -0.06792  -0.06731   1.82047
   A17        1.88282  -0.00529   0.00000  -0.01657  -0.01820   1.86462
   A18        1.86120  -0.00738   0.00000  -0.02031  -0.01773   1.84347
   A19        1.85519   0.00515   0.00000   0.01601   0.01505   1.87024
   A20        1.91211   0.00463   0.00000   0.01632   0.01568   1.92779
   A21        1.90902  -0.00202   0.00000  -0.02063  -0.02080   1.88821
   A22        1.92548   0.00060   0.00000   0.02031   0.01976   1.94525
   A23        1.90259  -0.00602   0.00000  -0.05547  -0.05561   1.84698
   A24        1.92898   0.00062   0.00000   0.02215   0.02148   1.95046
   A25        1.88525   0.00200   0.00000   0.01573   0.01605   1.90130
   A26        1.88799  -0.00792   0.00000  -0.04190  -0.04190   1.84609
    D1       -1.25573  -0.01062   0.00000  -0.18150  -0.18177  -1.43750
    D2        2.96737  -0.00376   0.00000  -0.09029  -0.08989   2.87748
    D3        0.93598  -0.00498   0.00000  -0.10712  -0.10619   0.82979
    D4        2.91299  -0.00681   0.00000  -0.14886  -0.14952   2.76347
    D5        0.85290   0.00006   0.00000  -0.05765  -0.05764   0.79526
    D6       -1.17849  -0.00117   0.00000  -0.07449  -0.07395  -1.25243
    D7        0.90819  -0.00455   0.00000  -0.13001  -0.13095   0.77724
    D8       -1.15190   0.00232   0.00000  -0.03880  -0.03907  -1.19097
    D9        3.09990   0.00109   0.00000  -0.05563  -0.05537   3.04452
   D10        1.18771   0.00668   0.00000   0.00000   0.00000   1.18771
   D11       -0.97241   0.00073   0.00000  -0.04144  -0.04115  -1.01357
   D12       -2.99368   0.00401   0.00000  -0.01570  -0.01638  -3.01006
   D13       -2.97770   0.00398   0.00000  -0.01520  -0.01620  -2.99391
   D14        1.14536  -0.00197   0.00000  -0.05663  -0.05736   1.08800
   D15       -0.87591   0.00132   0.00000  -0.03089  -0.03258  -0.90849
   D16       -0.96308   0.00045   0.00000  -0.04527  -0.04548  -1.00856
   D17       -3.12320  -0.00550   0.00000  -0.08670  -0.08664   3.07335
   D18        1.13871  -0.00222   0.00000  -0.06096  -0.06186   1.07686
   D19        1.14649   0.00579   0.00000   0.09606   0.09675   1.24324
   D20       -3.05091   0.00174   0.00000   0.02969   0.02923  -3.02168
   D21       -1.02578  -0.00136   0.00000   0.01436   0.01413  -1.01165
   D22       -1.32990  -0.00999   0.00000  -0.16802  -0.16780  -1.49770
   D23        2.86882  -0.00421   0.00000  -0.09763  -0.09738   2.77144
   D24        0.79747  -0.00578   0.00000  -0.11647  -0.11596   0.68152
   D25        0.85074  -0.00490   0.00000  -0.12687  -0.12704   0.72370
   D26       -1.23372   0.00088   0.00000  -0.05648  -0.05661  -1.29034
   D27        2.97812  -0.00069   0.00000  -0.07533  -0.07519   2.90292
   D28        2.83753  -0.00503   0.00000  -0.12607  -0.12645   2.71108
   D29        0.75306   0.00074   0.00000  -0.05568  -0.05602   0.69704
   D30       -1.31829  -0.00083   0.00000  -0.07453  -0.07461  -1.39289
   D31        3.10743   0.00248   0.00000   0.03230   0.03236   3.13979
   D32       -1.08733  -0.00085   0.00000  -0.01662  -0.01632  -1.10365
   D33        0.98216  -0.00173   0.00000  -0.01824  -0.01861   0.96355
         Item               Value     Threshold  Converged?
 Maximum Force            0.030028     0.000450     NO 
 RMS     Force            0.009155     0.000300     NO 
 Maximum Displacement     0.975215     0.001800     NO 
 RMS     Displacement     0.239817     0.001200     NO 
 Predicted change in Energy=-1.918207D-02
 GradGradGradGradGradGradGradGradGradGradGradGradGradGradGradGradGradGrad

                          Input orientation:                          
 ---------------------------------------------------------------------
 Center     Atomic      Atomic             Coordinates (Angstroms)
 Number     Number       Type             X           Y           Z
 ---------------------------------------------------------------------
      1          6           0        1.653605    1.307407    1.906725
      2          6           0        1.033459    2.376788    1.006555
      3          8           0        1.054849    3.702659    1.476725
      4          6           0        3.144810    1.010240    1.966784
      5          6           0        4.152522    1.994977    2.540235
      6          8           0        4.563439    2.914579    1.549007
      7          1           0        1.201679    0.332137    1.586733
      8          1           0        1.285370    1.517116    2.944495
      9          1           0       -0.070286    2.168724    0.973107
     10          1           0        1.437188    2.293971   -0.038828
     11          1           0        1.956338    4.035250    1.446538
     12          1           0        3.511143    0.728752    0.944713
     13          1           0        3.219167    0.092832    2.609518
     14          1           0        5.075333    1.423738    2.829485
     15          1           0        3.747128    2.515256    3.447542
     16          1           0        5.193954    3.502173    1.981767
 ---------------------------------------------------------------------
                    Distance matrix (angstroms):
                    1          2          3          4          5
     1  C    0.000000
     2  C    1.529203   0.000000
     3  O    2.506120   1.406930   0.000000
     4  C    1.521713   2.692081   3.443431   0.000000
     5  C    2.668084   3.496642   3.693617   1.521195   0.000000
     6  O    3.343366   3.611680   3.596735   2.411131   1.413171
     7  H    1.121509   2.132018   3.375512   2.092850   3.518760
     8  H    1.120956   2.134973   2.642743   2.161102   2.934679
     9  H    2.141333   1.123682   1.967871   3.558977   4.507569
    10  H    2.192103   1.123690   2.104159   2.930259   3.756860
    11  H    2.782903   1.948279   0.961359   3.291475   3.190941
    12  H    2.170428   2.976368   3.893654   1.121635   2.135506
    13  H    2.102403   3.544470   4.358709   1.122619   2.119931
    14  H    3.545877   4.535210   4.815365   2.154565   1.123193
    15  H    2.866332   3.652615   3.541527   2.195565   1.121714
    16  H    4.166137   4.418965   4.174620   3.226289   1.915230
                    6          7          8          9         10
     6  O    0.000000
     7  H    4.239323   0.000000
     8  H    3.827013   1.804077   0.000000
     9  H    4.728569   2.316782   2.479670   0.000000
    10  H    3.560873   2.558653   3.086546   1.819938   0.000000
    11  H    2.839609   3.781827   3.005841   2.795579   2.346888
    12  H    2.500068   2.429633   3.094304   3.860176   2.778228
    13  H    3.300607   2.274558   2.424946   4.219913   3.877396
    14  H    2.030830   4.212033   3.792858   5.520737   4.713876
    15  H    2.104818   3.835092   2.703626   4.562407   4.188026
    16  H    0.964415   5.113065   4.488244   5.523378   4.433491
                   11         12         13         14         15
    11  H    0.000000
    12  H    3.688113   0.000000
    13  H    4.299991   1.805885   0.000000
    14  H    4.296588   2.545990   2.294569   0.000000
    15  H    3.085665   3.084063   2.617091   1.826893   0.000000
    16  H    3.324575   3.405760   3.989669   2.247797   2.283814
                   16
    16  H    0.000000
 Stoichiometry    C4H10O2
 Framework group  C1[X(C4H10O2)]
 Deg. of freedom    42
 Full point group                 C1      NOp   1
 Largest Abelian subgroup         C1      NOp   1
 Largest concise Abelian subgroup C1      NOp   1
                         Standard orientation:                         
 ---------------------------------------------------------------------
 Center     Atomic      Atomic             Coordinates (Angstroms)
 Number     Number       Type             X           Y           Z
 ---------------------------------------------------------------------
      1          6           0        0.761692    1.109758    0.144710
      2          6           0        1.724765    0.040288   -0.372191
      3          8           0        1.797312   -1.162794    0.353606
      4          6           0       -0.731299    1.119825   -0.149376
      5          6           0       -1.682565    0.074063    0.412327
      6          8           0       -1.713178   -1.065234   -0.423209
      7          1           0        1.122025    2.083247   -0.279862
      8          1           0        0.911184    1.158216    1.254595
      9          1           0        2.762688    0.448126   -0.234187
     10          1           0        1.562025   -0.138882   -1.469503
     11          1           0        0.987244   -1.662965    0.220076
     12          1           0       -0.893378    1.143783   -1.258980
     13          1           0       -1.087772    2.103033    0.258673
     14          1           0       -2.722396    0.498120    0.390224
     15          1           0       -1.420711   -0.192901    1.469873
     16          1           0       -2.329533   -1.679156   -0.006912
 ---------------------------------------------------------------------
 Rotational constants (GHZ):      4.8559937      2.2076443      1.6895301
 Standard basis: VSTO-6G (5D, 7F)
 There are    34 symmetry adapted cartesian basis functions of A   symmetry.
 There are    34 symmetry adapted basis functions of A   symmetry.
    34 basis functions,   204 primitive gaussians,    34 cartesian basis functions
    19 alpha electrons       19 beta electrons
       nuclear repulsion energy       176.9130551568 Hartrees.
 Integral buffers will be    131072 words long.
 Regular integral format.
 Two-electron integral symmetry is turned off.
 Do NDO integrals.
 One-electron integrals computed using PRISM.
 NBasis=    34 RedAO= F EigKep=  0.00D+00  NBF=    34
 NBsUse=    34 1.00D-04 EigRej=  0.00D+00 NBFU=    34
 Initial guess from the checkpoint file:  "1-4-butanediol-opt.chk"
 B after Tr=     0.000000   -0.000000    0.000000
         Rot=    0.999455   -0.005557   -0.020506   -0.025249 Ang=  -3.78 deg.
 Overlap will be assumed to be unity.
 Keep J ints in memory in canonical form, NReq=895124.
 Requested convergence on RMS density matrix=1.00D-08 within 128 cycles.
 Requested convergence on MAX density matrix=1.00D-06.
 Requested convergence on             energy=1.00D-06.
 No special actions if energy rises.
 SCF Done:  E(RAM1) = -0.183338515541     A.U. after   12 cycles
            NFock= 11  Conv=0.56D-08     -V/T= 0.9926
 Calling FoFJK, ICntrl=      2127 FMM=F ISym2X=0 I1Cent= 0 IOpClX= 0 NMat=1 NMatS=1 NMatT=0.
 ***** Axes restored to original set *****
 -------------------------------------------------------------------
 Center     Atomic                   Forces (Hartrees/Bohr)
 Number     Number              X              Y              Z
 -------------------------------------------------------------------
      1        6           0.005160517    0.011695966    0.008079878
      2        6           0.006443394   -0.010707008   -0.003986600
      3        8           0.004723400   -0.000248217    0.004404382
      4        6          -0.002519241    0.004682411   -0.009916777
      5        6          -0.006783565   -0.004442398    0.003898123
      6        8          -0.007414195    0.006706833   -0.005098490
      7        1          -0.004209788   -0.001782156   -0.001755388
      8        1           0.001375371    0.000932338    0.002790359
      9        1          -0.004816194   -0.003145061   -0.002027744
     10        1           0.003032631    0.003013403    0.002381129
     11        1           0.004437032   -0.003112989   -0.000435068
     12        1          -0.001605313    0.000996874   -0.002584488
     13        1           0.002201706   -0.002698155    0.001654268
     14        1           0.000853541   -0.005053419    0.005922699
     15        1          -0.001110202    0.001914668   -0.002102191
     16        1           0.000230906    0.001246911   -0.001224093
 -------------------------------------------------------------------
 Cartesian Forces:  Max     0.011695966 RMS     0.004564725

 GradGradGradGradGradGradGradGradGradGradGradGradGradGradGradGradGradGrad
 Berny optimization.
 Using GEDIIS/GDIIS optimizer.
 FormGI is forming the generalized inverse of G from B-inverse, IUseBI=4.
 Internal  Forces:  Max     0.031351831 RMS     0.007642036
 Search for a local minimum.
 Step number   2 out of a maximum of   84 on scan point     1 out of    37
 All quantities printed in internal units (Hartrees-Bohrs-Radians)
 Mixed Optimization -- RFO/linear search
 Update second derivatives using D2CorX and points    2    1
 DE=  3.48D-03 DEPred=-1.92D-02 R=-1.82D-01
 Trust test=-1.82D-01 RLast= 5.62D-01 DXMaxT set to 1.50D-01
 ITU= -1  0
 Use linear search instead of GDIIS.
 Energy rises -- skip Quadratic/GDIIS search.
 Quartic linear search produced a step of -0.68713.
 Iteration  1 RMS(Cart)=  0.15976050 RMS(Int)=  0.00810192
 Iteration  2 RMS(Cart)=  0.01187369 RMS(Int)=  0.00017703
 Iteration  3 RMS(Cart)=  0.00009194 RMS(Int)=  0.00017211
 Iteration  4 RMS(Cart)=  0.00000001 RMS(Int)=  0.00017211
 Iteration  1 RMS(Cart)=  0.00006152 RMS(Int)=  0.00003436
 Iteration  2 RMS(Cart)=  0.00004056 RMS(Int)=  0.00003802
 Iteration  3 RMS(Cart)=  0.00002674 RMS(Int)=  0.00004371
 Iteration  4 RMS(Cart)=  0.00001763 RMS(Int)=  0.00004840
 Iteration  5 RMS(Cart)=  0.00001163 RMS(Int)=  0.00005180
 Iteration  6 RMS(Cart)=  0.00000767 RMS(Int)=  0.00005414
 Iteration  7 RMS(Cart)=  0.00000505 RMS(Int)=  0.00005572
 Iteration  8 RMS(Cart)=  0.00000333 RMS(Int)=  0.00005678
 Iteration  9 RMS(Cart)=  0.00000220 RMS(Int)=  0.00005748
 Iteration 10 RMS(Cart)=  0.00000145 RMS(Int)=  0.00005795
 Iteration 11 RMS(Cart)=  0.00000096 RMS(Int)=  0.00005826
 Variable       Old X    -DE/DX   Delta X   Delta X   Delta X     New X
                                 (Linear)    (Quad)   (Total)
    R1        2.88977  -0.01573   0.00778   0.00000   0.00778   2.89755
    R2        2.87562  -0.01685   0.02463   0.00000   0.02463   2.90025
    R3        2.11935   0.00375  -0.02851   0.00000  -0.02851   2.09083
    R4        2.11830   0.00231  -0.02857   0.00000  -0.02857   2.08973
    R5        2.65871  -0.00170   0.01050   0.00000   0.01050   2.66922
    R6        2.12345   0.00537  -0.03563   0.00000  -0.03563   2.08782
    R7        2.12347  -0.00135  -0.02469   0.00000  -0.02469   2.09878
    R8        1.81671   0.00310   0.02102   0.00000   0.02102   1.83773
    R9        2.87464  -0.00865   0.00727   0.00000   0.00727   2.88191
   R10        2.11958   0.00158  -0.02953   0.00000  -0.02953   2.09006
   R11        2.12144   0.00330  -0.03148   0.00000  -0.03148   2.08996
   R12        2.67051   0.00752   0.03206   0.00000   0.03206   2.70257
   R13        2.12253   0.00480  -0.03094   0.00000  -0.03094   2.09159
   R14        2.11973  -0.00041  -0.02794   0.00000  -0.02794   2.09180
   R15        1.82248   0.00036   0.00702   0.00000   0.00702   1.82950
    A1        2.16181  -0.03135  -0.08526   0.00000  -0.08530   2.07651
    A2        1.85121   0.00589   0.02191   0.00000   0.02130   1.87250
    A3        1.85555   0.01167   0.02126   0.00000   0.02180   1.87736
    A4        1.80938   0.01233   0.04634   0.00000   0.04611   1.85549
    A5        1.89854   0.00721   0.00930   0.00000   0.00964   1.90818
    A6        1.86969  -0.00366  -0.00679   0.00000  -0.00648   1.86321
    A7        2.04444  -0.01867  -0.03782   0.00000  -0.03760   2.00684
    A8        1.86124   0.00443   0.02417   0.00000   0.02396   1.88520
    A9        1.92878   0.00452  -0.01334   0.00000  -0.01300   1.91578
   A10        1.77152   0.00880   0.05481   0.00000   0.05465   1.82617
   A11        1.95507   0.00342  -0.00631   0.00000  -0.00579   1.94928
   A12        1.88765  -0.00096  -0.01485   0.00000  -0.01490   1.87275
   A13        1.90688  -0.00776  -0.03929   0.00000  -0.03929   1.86759
   A14        2.13842  -0.02816  -0.06503   0.00000  -0.06507   2.07335
   A15        1.91039   0.00605   0.00898   0.00000   0.00928   1.91967
   A16        1.82047   0.01029   0.04625   0.00000   0.04614   1.86662
   A17        1.86462   0.01069   0.01251   0.00000   0.01286   1.87748
   A18        1.84347   0.00627   0.01219   0.00000   0.01163   1.85510
   A19        1.87024  -0.00332  -0.01034   0.00000  -0.01014   1.86010
   A20        1.92779  -0.01064  -0.01077   0.00000  -0.01064   1.91715
   A21        1.88821   0.00074   0.01430   0.00000   0.01433   1.90255
   A22        1.94525   0.00202  -0.01358   0.00000  -0.01346   1.93178
   A23        1.84698   0.00917   0.03821   0.00000   0.03824   1.88522
   A24        1.95046   0.00024  -0.01476   0.00000  -0.01462   1.93584
   A25        1.90130  -0.00102  -0.01103   0.00000  -0.01110   1.89021
   A26        1.84609   0.00310   0.02879   0.00000   0.02879   1.87488
    D1       -1.43750   0.00592   0.12490   0.00000   0.12497  -1.31252
    D2        2.87748   0.00200   0.06177   0.00000   0.06169   2.93917
    D3        0.82979  -0.00180   0.07297   0.00000   0.07277   0.90256
    D4        2.76347   0.00538   0.10274   0.00000   0.10288   2.86635
    D5        0.79526   0.00146   0.03961   0.00000   0.03960   0.83486
    D6       -1.25243  -0.00234   0.05081   0.00000   0.05069  -1.20175
    D7        0.77724   0.00172   0.08998   0.00000   0.09018   0.86742
    D8       -1.19097  -0.00220   0.02685   0.00000   0.02690  -1.16407
    D9        3.04452  -0.00601   0.03805   0.00000   0.03798   3.08250
   D10        1.18771  -0.00109  -0.00000   0.00000  -0.00001   1.18771
   D11       -1.01357   0.00206   0.02828   0.00000   0.02822  -0.98535
   D12       -3.01006  -0.00198   0.01125   0.00000   0.01139  -2.99866
   D13       -2.99391  -0.00279   0.01113   0.00000   0.01135  -2.98256
   D14        1.08800   0.00035   0.03941   0.00000   0.03958   1.12758
   D15       -0.90849  -0.00368   0.02239   0.00000   0.02275  -0.88574
   D16       -1.00856   0.00194   0.03125   0.00000   0.03130  -0.97726
   D17        3.07335   0.00509   0.05953   0.00000   0.05953   3.13287
   D18        1.07686   0.00105   0.04250   0.00000   0.04270   1.11956
   D19        1.24324  -0.00408  -0.06648   0.00000  -0.06664   1.17660
   D20       -3.02168  -0.00163  -0.02008   0.00000  -0.01998  -3.04166
   D21       -1.01165   0.00346  -0.00971   0.00000  -0.00965  -1.02130
   D22       -1.49770   0.00603   0.11530   0.00000   0.11526  -1.38244
   D23        2.77144   0.00039   0.06691   0.00000   0.06686   2.83830
   D24        0.68152  -0.00005   0.07968   0.00000   0.07957   0.76109
   D25        0.72370   0.00157   0.08729   0.00000   0.08733   0.81103
   D26       -1.29034  -0.00406   0.03890   0.00000   0.03893  -1.25141
   D27        2.90292  -0.00450   0.05167   0.00000   0.05164   2.95456
   D28        2.71108   0.00536   0.08689   0.00000   0.08697   2.79805
   D29        0.69704  -0.00028   0.03849   0.00000   0.03857   0.73560
   D30       -1.39289  -0.00072   0.05126   0.00000   0.05128  -1.34161
   D31        3.13979  -0.00207  -0.02223   0.00000  -0.02225   3.11754
   D32       -1.10365  -0.00144   0.01121   0.00000   0.01115  -1.09250
   D33        0.96355   0.00303   0.01279   0.00000   0.01287   0.97642
         Item               Value     Threshold  Converged?
 Maximum Force            0.031333     0.000450     NO 
 RMS     Force            0.007691     0.000300     NO 
 Maximum Displacement     0.684332     0.001800     NO 
 RMS     Displacement     0.164356     0.001200     NO 
 Predicted change in Energy=-3.695134D-03
 GradGradGradGradGradGradGradGradGradGradGradGradGradGradGradGradGradGrad

                          Input orientation:                          
 ---------------------------------------------------------------------
 Center     Atomic      Atomic             Coordinates (Angstroms)
 Number     Number       Type             X           Y           Z
 ---------------------------------------------------------------------
      1          6           0        1.623050    1.267851    1.940804
      2          6           0        1.097112    2.377619    1.022725
      3          8           0        1.356425    3.692875    1.467679
      4          6           0        3.127305    0.963701    1.953115
      5          6           0        4.082443    2.004264    2.528176
      6          8           0        4.312430    3.036653    1.565589
      7          1           0        1.118591    0.328937    1.643939
      8          1           0        1.287797    1.498514    2.969045
      9          1           0       -0.004947    2.304537    0.995082
     10          1           0        1.465000    2.214555   -0.012437
     11          1           0        2.318471    3.825710    1.417205
     12          1           0        3.472644    0.722510    0.930458
     13          1           0        3.266117    0.047782    2.557243
     14          1           0        5.052807    1.519840    2.749036
     15          1           0        3.681409    2.424675    3.470366
     16          1           0        4.903045    3.686577    1.973075
 ---------------------------------------------------------------------
                    Distance matrix (angstroms):
                    1          2          3          4          5
     1  C    0.000000
     2  C    1.533318   0.000000
     3  O    2.485091   1.412489   0.000000
     4  C    1.534745   2.643193   3.289385   0.000000
     5  C    2.633615   3.364220   3.377460   1.525043   0.000000
     6  O    3.240712   3.326754   3.029551   2.419055   1.430138
     7  H    1.106421   2.140903   3.376938   2.129190   3.517530
     8  H    1.105839   2.144143   2.659705   2.168393   2.874056
     9  H    2.149298   1.104826   2.001040   3.539304   4.375763
    10  H    2.176323   1.110627   2.094747   2.862043   3.653758
    11  H    2.701927   1.935019   0.972485   3.022004   2.768306
    12  H    2.176970   2.896732   3.686470   1.106011   2.137160
    13  H    2.137343   3.533761   4.256851   1.105960   2.120155
    14  H    3.532700   4.400393   4.475176   2.156464   1.106820
    15  H    2.813297   3.559740   3.320337   2.177963   1.106930
    16  H    4.075493   4.135416   3.582455   3.250801   1.952358
                    6          7          8          9         10
     6  O    0.000000
     7  H    4.187896   0.000000
     8  H    3.672052   1.775514   0.000000
     9  H    4.416018   2.363546   2.493470   0.000000
    10  H    3.357658   2.533601   3.071377   1.784359   0.000000
    11  H    2.149535   3.703855   2.980997   2.808990   2.316918
    12  H    2.542419   2.491089   3.087325   3.821077   2.673179
    13  H    3.318358   2.350541   2.487560   4.270029   3.813422
    14  H    2.061414   4.256471   3.771492   5.410451   4.580472
    15  H    2.097827   3.781004   2.615048   4.441924   4.133586
    16  H    0.968128   5.069928   4.341612   5.191810   4.234296
                   11         12         13         14         15
    11  H    0.000000
    12  H    3.346474   0.000000
    13  H    4.058381   1.773229   0.000000
    14  H    3.816727   2.537691   2.322929   0.000000
    15  H    2.834779   3.064650   2.579899   1.794373   0.000000
    16  H    2.647333   3.452360   4.032569   2.306359   2.307958
                   16
    16  H    0.000000
 Stoichiometry    C4H10O2
 Framework group  C1[X(C4H10O2)]
 Deg. of freedom    42
 Full point group                 C1      NOp   1
 Largest Abelian subgroup         C1      NOp   1
 Largest concise Abelian subgroup C1      NOp   1
                         Standard orientation:                         
 ---------------------------------------------------------------------
 Center     Atomic      Atomic             Coordinates (Angstroms)
 Number     Number       Type             X           Y           Z
 ---------------------------------------------------------------------
      1          6           0        0.802822    1.147734    0.189235
      2          6           0        1.672678   -0.007729   -0.320001
      3          8           0        1.467197   -1.242498    0.334405
      4          6           0       -0.680414    1.190467   -0.202718
      5          6           0       -1.619513    0.128215    0.358951
      6          8           0       -1.473177   -1.088211   -0.378740
      7          1           0        1.250777    2.086957   -0.186748
      8          1           0        0.891044    1.171303    1.291297
      9          1           0        2.728882    0.243993   -0.115771
     10          1           0        1.562924   -0.103532   -1.421031
     11          1           0        0.572328   -1.542881    0.100515
     12          1           0       -0.780988    1.176421   -1.304057
     13          1           0       -1.075921    2.165534    0.137821
     14          1           0       -2.664636    0.474215    0.244701
     15          1           0       -1.423741   -0.036729    1.435873
     16          1           0       -2.066276   -1.741736    0.019268
 ---------------------------------------------------------------------
 Rotational constants (GHZ):      4.6188504      2.6470396      1.8743357
 Standard basis: VSTO-6G (5D, 7F)
 There are    34 symmetry adapted cartesian basis functions of A   symmetry.
 There are    34 symmetry adapted basis functions of A   symmetry.
    34 basis functions,   204 primitive gaussians,    34 cartesian basis functions
    19 alpha electrons       19 beta electrons
       nuclear repulsion energy       179.7325538018 Hartrees.
 Integral buffers will be    131072 words long.
 Regular integral format.
 Two-electron integral symmetry is turned off.
 Do NDO integrals.
 One-electron integrals computed using PRISM.
 NBasis=    34 RedAO= F EigKep=  0.00D+00  NBF=    34
 NBsUse=    34 1.00D-04 EigRej=  0.00D+00 NBFU=    34
 Lowest energy guess from the checkpoint file:  "1-4-butanediol-opt.chk"
 B after Tr=     0.000000   -0.000000   -0.000000
         Rot=    0.999918   -0.001715   -0.006860   -0.010652 Ang=  -1.47 deg.
 B after Tr=    -0.000000    0.000000   -0.000000
         Rot=    0.999791    0.003787    0.013747    0.014632 Ang=   2.34 deg.
 Overlap will be assumed to be unity.
 Keep J ints in memory in canonical form, NReq=895124.
 Requested convergence on RMS density matrix=1.00D-08 within 128 cycles.
 Requested convergence on MAX density matrix=1.00D-06.
 Requested convergence on             energy=1.00D-06.
 No special actions if energy rises.
 SCF Done:  E(RAM1) = -0.190176061915     A.U. after   10 cycles
            NFock=  9  Conv=0.66D-08     -V/T= 0.9924
 Calling FoFJK, ICntrl=      2127 FMM=F ISym2X=0 I1Cent= 0 IOpClX= 0 NMat=1 NMatS=1 NMatT=0.
 ***** Axes restored to original set *****
 -------------------------------------------------------------------
 Center     Atomic                   Forces (Hartrees/Bohr)
 Number     Number              X              Y              Z
 -------------------------------------------------------------------
      1        6           0.018985427    0.014088967   -0.001390047
      2        6           0.013655275   -0.007944292    0.006751275
      3        8           0.007655765   -0.005819588   -0.000023157
      4        6          -0.011709632    0.016943631   -0.004910575
      5        6          -0.009305249    0.005591860   -0.011115300
      6        8          -0.005418858   -0.004507352    0.003588636
      7        1          -0.005257438   -0.009141928   -0.004805059
      8        1          -0.000607121    0.003614760    0.010816266
      9        1          -0.014674942    0.000567265    0.001329260
     10        1           0.006714454    0.001549263   -0.006770776
     11        1          -0.004091517   -0.001036211    0.000779253
     12        1           0.000468291   -0.000102456   -0.011830626
     13        1           0.000672043   -0.009620670    0.007949805
     14        1           0.010581520   -0.006442726    0.002513542
     15        1          -0.005101984    0.006447006    0.006598825
     16        1          -0.002566034   -0.004187528    0.000518679
 -------------------------------------------------------------------
 Cartesian Forces:  Max     0.018985427 RMS     0.007754625

 GradGradGradGradGradGradGradGradGradGradGradGradGradGradGradGradGradGrad
 Berny optimization.
 Using GEDIIS/GDIIS optimizer.
 FormGI is forming the generalized inverse of G from B-inverse, IUseBI=4.
 Internal  Forces:  Max     0.022805769 RMS     0.006664792
 Search for a local minimum.
 Step number   3 out of a maximum of   84 on scan point     1 out of    37
 All quantities printed in internal units (Hartrees-Bohrs-Radians)
 Mixed Optimization -- RFO/linear search
 Update second derivatives using D2CorX and points    2    1    3
 ITU=  0 -1  0
 Use linear search instead of GDIIS.
     Eigenvalues ---    0.00330   0.00514   0.01191   0.01314   0.01537
     Eigenvalues ---    0.02937   0.04548   0.04682   0.04809   0.05601
     Eigenvalues ---    0.05835   0.05949   0.09269   0.09314   0.11298
     Eigenvalues ---    0.11699   0.11927   0.12898   0.13753   0.14172
     Eigenvalues ---    0.15530   0.16058   0.21335   0.22045   0.22077
     Eigenvalues ---    0.22983   0.28821   0.29532   0.30119   0.33222
     Eigenvalues ---    0.33673   0.33740   0.33773   0.33801   0.33845
     Eigenvalues ---    0.34041   0.39307   0.43130   0.50939   0.53348
     Eigenvalues ---    0.962861000.000001000.000001000.000001000.00000
     Eigenvalues --- 1000.000001000.000001000.000001000.000001000.00000
     Eigenvalues --- 1000.000001000.000001000.000001000.000001000.00000
     Eigenvalues --- 1000.000001000.000001000.000001000.000001000.00000
     Eigenvalues --- 1000.000001000.000001000.000001000.000001000.00000
     Eigenvalues --- 1000.000001000.000001000.000001000.000001000.00000
     Eigenvalues --- 1000.000001000.000001000.000001000.00000
 RFO step:  Lambda=-1.09110945D-02 EMin= 3.29524680D-03
 Quartic linear search produced a step of -0.11295.
 Maximum step size (   0.150) exceeded in Quadratic search.
    -- Step size scaled by   0.659
 Iteration  1 RMS(Cart)=  0.03784381 RMS(Int)=  0.00033513
 Iteration  2 RMS(Cart)=  0.00034250 RMS(Int)=  0.00006642
 Iteration  3 RMS(Cart)=  0.00000012 RMS(Int)=  0.00006642
 Iteration  1 RMS(Cart)=  0.00000052 RMS(Int)=  0.00000029
 Variable       Old X    -DE/DX   Delta X   Delta X   Delta X     New X
                                 (Linear)    (Quad)   (Total)
    R1        2.89755  -0.01359   0.00040  -0.03059  -0.03019   2.86736
    R2        2.90025  -0.02281   0.00127  -0.05870  -0.05743   2.84282
    R3        2.09083   0.01144  -0.00147   0.03552   0.03405   2.12489
    R4        2.08973   0.01100  -0.00147   0.03477   0.03330   2.12303
    R5        2.66922  -0.00549   0.00054  -0.01330  -0.01276   2.65646
    R6        2.08782   0.01457  -0.00183   0.04459   0.04275   2.13057
    R7        2.09878   0.00831  -0.00127   0.02831   0.02704   2.12582
    R8        1.83773  -0.00423   0.00108  -0.01700  -0.01591   1.82182
    R9        2.88191  -0.00872   0.00037  -0.02052  -0.02015   2.86177
   R10        2.09006   0.01111  -0.00152   0.03551   0.03399   2.12405
   R11        2.08996   0.01239  -0.00162   0.03874   0.03712   2.12708
   R12        2.70257  -0.01033   0.00165  -0.03325  -0.03160   2.67097
   R13        2.09159   0.01260  -0.00159   0.03883   0.03724   2.12883
   R14        2.09180   0.00991  -0.00144   0.03267   0.03124   2.12303
   R15        1.82950  -0.00416   0.00036  -0.00853  -0.00817   1.82133
    A1        2.07651  -0.01797  -0.00438  -0.00193  -0.00636   2.07015
    A2        1.87250   0.00394   0.00120  -0.00287  -0.00174   1.87076
    A3        1.87736   0.00684   0.00103  -0.00036   0.00064   1.87800
    A4        1.85549   0.00622   0.00241  -0.00692  -0.00454   1.85094
    A5        1.90818   0.00351   0.00044  -0.00688  -0.00644   1.90174
    A6        1.86321  -0.00134  -0.00038   0.02232   0.02196   1.88517
    A7        2.00684  -0.01033  -0.00197  -0.00905  -0.01106   1.99579
    A8        1.88520   0.00343   0.00127   0.00525   0.00632   1.89153
    A9        1.91578   0.00285  -0.00073   0.00842   0.00755   1.92334
   A10        1.82617   0.00280   0.00284  -0.01897  -0.01615   1.81002
   A11        1.94928   0.00111  -0.00038  -0.01166  -0.01202   1.93727
   A12        1.87275   0.00094  -0.00076   0.02845   0.02750   1.90024
   A13        1.86759  -0.00045  -0.00202   0.02038   0.01836   1.88595
   A14        2.07335  -0.01725  -0.00334  -0.01162  -0.01504   2.05831
   A15        1.91967   0.00264   0.00043  -0.01098  -0.01055   1.90911
   A16        1.86662   0.00494   0.00239  -0.01076  -0.00833   1.85829
   A17        1.87748   0.00718   0.00060   0.00550   0.00590   1.88338
   A18        1.85510   0.00481   0.00069   0.00810   0.00863   1.86373
   A19        1.86010  -0.00105  -0.00056   0.02471   0.02407   1.88417
   A20        1.91715  -0.00872  -0.00057  -0.01857  -0.01919   1.89796
   A21        1.90255   0.00144   0.00073   0.00112   0.00176   1.90431
   A22        1.93178   0.00248  -0.00071   0.00832   0.00751   1.93929
   A23        1.88522   0.00429   0.00196  -0.00217  -0.00024   1.88498
   A24        1.93584   0.00047  -0.00078  -0.00541  -0.00618   1.92966
   A25        1.89021   0.00026  -0.00056   0.01710   0.01647   1.90667
   A26        1.87488  -0.00487   0.00148  -0.03244  -0.03096   1.84392
    D1       -1.31252   0.00217   0.00641  -0.00068   0.00575  -1.30677
    D2        2.93917   0.00246   0.00319   0.02489   0.02815   2.96732
    D3        0.90256  -0.00216   0.00377  -0.01663  -0.01293   0.88963
    D4        2.86635   0.00298   0.00527   0.01225   0.01753   2.88388
    D5        0.83486   0.00326   0.00204   0.03782   0.03992   0.87479
    D6       -1.20175  -0.00135   0.00263  -0.00370  -0.00115  -1.20290
    D7        0.86742  -0.00073   0.00460  -0.01198  -0.00737   0.86005
    D8       -1.16407  -0.00044   0.00137   0.01359   0.01502  -1.14905
    D9        3.08250  -0.00506   0.00196  -0.02794  -0.02605   3.05645
   D10        1.18771   0.00007   0.00000   0.00000   0.00000   1.18771
   D11       -0.98535   0.00168   0.00146   0.01186   0.01325  -0.97209
   D12       -2.99866  -0.00113   0.00056  -0.00581  -0.00520  -3.00386
   D13       -2.98256  -0.00171   0.00055  -0.01080  -0.01022  -2.99277
   D14        1.12758  -0.00010   0.00201   0.00107   0.00304   1.13061
   D15       -0.88574  -0.00291   0.00111  -0.01661  -0.01541  -0.90115
   D16       -0.97726   0.00168   0.00160   0.00827   0.00986  -0.96740
   D17        3.13287   0.00330   0.00306   0.02013   0.02311  -3.12720
   D18        1.11956   0.00048   0.00216   0.00246   0.00466   1.12422
   D19        1.17660  -0.00178  -0.00340   0.00226  -0.00116   1.17544
   D20       -3.04166  -0.00133  -0.00104  -0.00894  -0.00988  -3.05155
   D21       -1.02130   0.00190  -0.00051   0.00822   0.00764  -1.01366
   D22       -1.38244   0.00241   0.00593  -0.00054   0.00541  -1.37703
   D23        2.83830   0.00144   0.00345   0.01227   0.01573   2.85404
   D24        0.76109  -0.00127   0.00411  -0.01443  -0.01035   0.75073
   D25        0.81103  -0.00097   0.00449  -0.01988  -0.01544   0.79559
   D26       -1.25141  -0.00193   0.00200  -0.00707  -0.00512  -1.25653
   D27        2.95456  -0.00465   0.00266  -0.03377  -0.03121   2.92335
   D28        2.79805   0.00342   0.00446   0.01479   0.01933   2.81738
   D29        0.73560   0.00246   0.00197   0.02760   0.02966   0.76526
   D30       -1.34161  -0.00026   0.00263   0.00090   0.00357  -1.33804
   D31        3.11754  -0.00068  -0.00114  -0.00028  -0.00138   3.11616
   D32       -1.09250  -0.00137   0.00058  -0.01078  -0.01016  -1.10266
   D33        0.97642   0.00185   0.00065   0.00557   0.00614   0.98256
         Item               Value     Threshold  Converged?
 Maximum Force            0.022806     0.000450     NO 
 RMS     Force            0.006710     0.000300     NO 
 Maximum Displacement     0.141362     0.001800     NO 
 RMS     Displacement     0.037910     0.001200     NO 
 Predicted change in Energy=-5.100395D-03
 GradGradGradGradGradGradGradGradGradGradGradGradGradGradGradGradGradGrad

                          Input orientation:                          
 ---------------------------------------------------------------------
 Center     Atomic      Atomic             Coordinates (Angstroms)
 Number     Number       Type             X           Y           Z
 ---------------------------------------------------------------------
      1          6           0        1.643361    1.268916    1.941529
      2          6           0        1.131440    2.369117    1.030585
      3          8           0        1.412246    3.671169    1.479919
      4          6           0        3.117085    0.966979    1.948586
      5          6           0        4.052590    2.012046    2.519565
      6          8           0        4.249132    3.023124    1.551663
      7          1           0        1.132331    0.316415    1.631757
      8          1           0        1.316004    1.514383    2.987832
      9          1           0        0.004818    2.327037    1.020838
     10          1           0        1.510512    2.213730   -0.017097
     11          1           0        2.366069    3.803753    1.434503
     12          1           0        3.455380    0.735026    0.902104
     13          1           0        3.249547    0.037874    2.570038
     14          1           0        5.050938    1.535958    2.733346
     15          1           0        3.640006    2.449236    3.468671
     16          1           0        4.828240    3.671838    1.967263
 ---------------------------------------------------------------------
                    Distance matrix (angstroms):
                    1          2          3          4          5
     1  C    0.000000
     2  C    1.517342   0.000000
     3  O    2.457096   1.405736   0.000000
     4  C    1.504353   2.598365   3.230909   0.000000
     5  C    2.586649   3.298132   3.287091   1.514382   0.000000
     6  O    3.165325   3.227886   2.910847   2.380506   1.413415
     7  H    1.124441   2.138923   3.369834   2.112549   3.491601
     8  H    1.123461   2.143700   2.633399   2.150250   2.820611
     9  H    2.156876   1.127450   1.999575   3.520892   4.327800
    10  H    2.178656   1.124934   2.091612   2.828317   3.596873
    11  H    2.684172   1.935365   0.964063   2.979193   2.689224
    12  H    2.156121   2.843845   3.623424   1.123998   2.145605
    13  H    2.119037   3.505850   4.214839   1.125604   2.131850
    14  H    3.508542   4.353850   4.401169   2.163186   1.126527
    15  H    2.777032   3.499084   3.226635   2.186593   1.123460
    16  H    3.989756   4.029985   3.450582   3.200729   1.913525
                    6          7          8          9         10
     6  O    0.000000
     7  H    4.128818   0.000000
     8  H    3.597516   1.818736   0.000000
     9  H    4.333649   2.384765   2.499735   0.000000
    10  H    3.258246   2.541957   3.091362   1.832283   0.000000
    11  H    2.041821   3.704395   2.959169   2.815548   2.316742
    12  H    2.507461   2.470665   3.087813   3.801970   2.610366
    13  H    3.308773   2.332501   2.468445   4.262458   3.801561
    14  H    2.061779   4.249266   3.743656   5.387190   4.534196
    15  H    2.091722   3.769829   2.550715   4.384223   4.091551
    16  H    0.963805   5.003116   4.246407   5.096038   4.131717
                   11         12         13         14         15
    11  H    0.000000
    12  H    3.299565   0.000000
    13  H    4.031354   1.819449   0.000000
    14  H    3.746787   2.557488   2.348603   0.000000
    15  H    2.755989   3.091904   2.602819   1.834532   0.000000
    16  H    2.522602   3.412356   4.007656   2.280014   2.271757
                   16
    16  H    0.000000
 Stoichiometry    C4H10O2
 Framework group  C1[X(C4H10O2)]
 Deg. of freedom    42
 Full point group                 C1      NOp   1
 Largest Abelian subgroup         C1      NOp   1
 Largest concise Abelian subgroup C1      NOp   1
                         Standard orientation:                         
 ---------------------------------------------------------------------
 Center     Atomic      Atomic             Coordinates (Angstroms)
 Number     Number       Type             X           Y           Z
 ---------------------------------------------------------------------
      1          6           0        0.781057    1.140659    0.190752
      2          6           0        1.638356   -0.004180   -0.315909
      3          8           0        1.410447   -1.230198    0.332958
      4          6           0       -0.670309    1.182733   -0.202753
      5          6           0       -1.588210    0.116077    0.356759
      6          8           0       -1.406380   -1.073846   -0.384027
      7          1           0        1.235978    2.093171   -0.196722
      8          1           0        0.855817    1.150828    1.311677
      9          1           0        2.716148    0.227055   -0.079182
     10          1           0        1.525206   -0.110634   -1.430065
     11          1           0        0.523422   -1.529676    0.102920
     12          1           0       -0.753884    1.157582   -1.323357
     13          1           0       -1.068788    2.173593    0.152769
     14          1           0       -2.657779    0.445804    0.228835
     15          1           0       -1.383680   -0.062645    1.446891
     16          1           0       -1.990336   -1.724467    0.021691
 ---------------------------------------------------------------------
 Rotational constants (GHZ):      4.6800042      2.7860554      1.9562055
 Standard basis: VSTO-6G (5D, 7F)
 There are    34 symmetry adapted cartesian basis functions of A   symmetry.
 There are    34 symmetry adapted basis functions of A   symmetry.
    34 basis functions,   204 primitive gaussians,    34 cartesian basis functions
    19 alpha electrons       19 beta electrons
       nuclear repulsion energy       181.0597977802 Hartrees.
 Integral buffers will be    131072 words long.
 Regular integral format.
 Two-electron integral symmetry is turned off.
 Do NDO integrals.
 One-electron integrals computed using PRISM.
 NBasis=    34 RedAO= F EigKep=  0.00D+00  NBF=    34
 NBsUse=    34 1.00D-04 EigRej=  0.00D+00 NBFU=    34
 Initial guess from the checkpoint file:  "1-4-butanediol-opt.chk"
 B after Tr=     0.000000   -0.000000    0.000000
         Rot=    0.999997   -0.001120    0.002051   -0.000964 Ang=  -0.29 deg.
 Overlap will be assumed to be unity.
 Keep J ints in memory in canonical form, NReq=895124.
 Requested convergence on RMS density matrix=1.00D-08 within 128 cycles.
 Requested convergence on MAX density matrix=1.00D-06.
 Requested convergence on             energy=1.00D-06.
 No special actions if energy rises.
 SCF Done:  E(RAM1) = -0.193527470982     A.U. after   11 cycles
            NFock= 10  Conv=0.42D-08     -V/T= 0.9923
 Calling FoFJK, ICntrl=      2127 FMM=F ISym2X=0 I1Cent= 0 IOpClX= 0 NMat=1 NMatS=1 NMatT=0.
 ***** Axes restored to original set *****
 -------------------------------------------------------------------
 Center     Atomic                   Forces (Hartrees/Bohr)
 Number     Number              X              Y              Z
 -------------------------------------------------------------------
      1        6          -0.003604343    0.002849317    0.007401643
      2        6           0.000257398   -0.005582683   -0.005578691
      3        8          -0.000318554    0.003144416    0.002580434
      4        6           0.003523297   -0.003814927   -0.006636807
      5        6          -0.001868655   -0.004382218    0.005471225
      6        8           0.001542489    0.005302523   -0.002876096
      7        1          -0.002452572    0.000341901    0.000523476
      8        1           0.000000328   -0.000373151    0.000491898
      9        1           0.000019155    0.000022668   -0.000955101
     10        1           0.000932295    0.001286516    0.001308813
     11        1           0.000738994   -0.000284053   -0.000486947
     12        1          -0.000479839    0.000055957   -0.000089264
     13        1           0.001965406   -0.000324519   -0.000762168
     14        1          -0.000600314   -0.000945789    0.002296953
     15        1          -0.000277523    0.000459134   -0.000838618
     16        1           0.000622439    0.002244910   -0.001850749
 -------------------------------------------------------------------
 Cartesian Forces:  Max     0.007401643 RMS     0.002705222

 GradGradGradGradGradGradGradGradGradGradGradGradGradGradGradGradGradGrad
 Berny optimization.
 Using GEDIIS/GDIIS optimizer.
 FormGI is forming the generalized inverse of G from B-inverse, IUseBI=4.
 Internal  Forces:  Max     0.008936982 RMS     0.001994616
 Search for a local minimum.
 Step number   4 out of a maximum of   84 on scan point     1 out of    37
 All quantities printed in internal units (Hartrees-Bohrs-Radians)
 Mixed Optimization -- RFO/linear search
 Update second derivatives using D2CorX and points    2    1    3    4
 DE= -3.35D-03 DEPred=-5.10D-03 R= 6.57D-01
 TightC=F SS=  1.41D+00  RLast= 1.71D-01 DXNew= 2.5227D-01 5.1236D-01
 Trust test= 6.57D-01 RLast= 1.71D-01 DXMaxT set to 2.52D-01
 ITU=  1  0 -1  0
 Use linear search instead of GDIIS.
     Eigenvalues ---    0.00327   0.00484   0.01191   0.01334   0.01521
     Eigenvalues ---    0.03033   0.04686   0.04740   0.04975   0.05776
     Eigenvalues ---    0.05889   0.06088   0.09150   0.09256   0.11202
     Eigenvalues ---    0.11553   0.11905   0.12796   0.13662   0.14109
     Eigenvalues ---    0.16010   0.16599   0.22042   0.22074   0.22140
     Eigenvalues ---    0.27243   0.28835   0.29587   0.30331   0.33289
     Eigenvalues ---    0.33719   0.33741   0.33785   0.33829   0.33843
     Eigenvalues ---    0.34029   0.42518   0.44411   0.50935   0.53516
     Eigenvalues ---    0.625381000.000001000.000001000.000001000.00000
     Eigenvalues --- 1000.000001000.000001000.000001000.000001000.00000
     Eigenvalues --- 1000.000001000.000001000.000001000.000001000.00000
     Eigenvalues --- 1000.000001000.000001000.000001000.000001000.00000
     Eigenvalues --- 1000.000001000.000001000.000001000.000001000.00000
     Eigenvalues --- 1000.000001000.000001000.000001000.000001000.00000
     Eigenvalues --- 1000.000001000.000001000.000001000.00000
 RFO step:  Lambda=-2.66870298D-03 EMin= 3.27235627D-03
 Quartic linear search produced a step of -0.09114.
 Iteration  1 RMS(Cart)=  0.08777576 RMS(Int)=  0.00350768
 Iteration  2 RMS(Cart)=  0.00447183 RMS(Int)=  0.00008480
 Iteration  3 RMS(Cart)=  0.00000921 RMS(Int)=  0.00008461
 Iteration  4 RMS(Cart)=  0.00000000 RMS(Int)=  0.00008461
 Iteration  1 RMS(Cart)=  0.00002404 RMS(Int)=  0.00001291
 Iteration  2 RMS(Cart)=  0.00001583 RMS(Int)=  0.00001429
 Iteration  3 RMS(Cart)=  0.00001043 RMS(Int)=  0.00001643
 Iteration  4 RMS(Cart)=  0.00000687 RMS(Int)=  0.00001819
 Iteration  5 RMS(Cart)=  0.00000452 RMS(Int)=  0.00001946
 Iteration  6 RMS(Cart)=  0.00000298 RMS(Int)=  0.00002034
 Iteration  7 RMS(Cart)=  0.00000196 RMS(Int)=  0.00002093
 Iteration  8 RMS(Cart)=  0.00000129 RMS(Int)=  0.00002133
 Iteration  9 RMS(Cart)=  0.00000085 RMS(Int)=  0.00002159
 Variable       Old X    -DE/DX   Delta X   Delta X   Delta X     New X
                                 (Linear)    (Quad)   (Total)
    R1        2.86736   0.00031   0.00275  -0.00424  -0.00149   2.86587
    R2        2.84282   0.00459   0.00523   0.00449   0.00972   2.85254
    R3        2.12489   0.00068  -0.00310   0.00574   0.00264   2.12752
    R4        2.12303   0.00038  -0.00304   0.00494   0.00191   2.12494
    R5        2.65646   0.00340   0.00116   0.00594   0.00710   2.66356
    R6        2.13057  -0.00001  -0.00390   0.00468   0.00078   2.13135
    R7        2.12582  -0.00108  -0.00246   0.00046  -0.00200   2.12382
    R8        1.82182   0.00072   0.00145   0.00114   0.00259   1.82441
    R9        2.86177   0.00232   0.00184   0.00390   0.00573   2.86750
   R10        2.12405  -0.00007  -0.00310   0.00385   0.00076   2.12480
   R11        2.12708   0.00008  -0.00338   0.00448   0.00110   2.12818
   R12        2.67097   0.00894   0.00288   0.01686   0.01974   2.69071
   R13        2.12883   0.00030  -0.00339   0.00494   0.00155   2.13037
   R14        2.12303  -0.00043  -0.00285   0.00276  -0.00008   2.12295
   R15        1.82133   0.00109   0.00074   0.00080   0.00154   1.82287
    A1        2.07015  -0.00673   0.00058  -0.04556  -0.04492   2.02523
[...]
           A7         112.53482 112.38426 112.22644 112.07366 112.24842
           A8         109.97627 110.07095 110.20424 110.32919 109.60501
           A9         111.38517 111.40499 111.31639 111.12052 110.42620
           A10        103.59256 103.54846 103.57097 103.65234 104.17671
           A11        110.21974 110.26506 110.29946 110.31644 110.62631
           A12        108.80531 108.84244 108.91595 109.07289 109.56502
           A13        107.62124 107.62665 107.57230 107.44920 107.18089
           A14        116.95273 116.59355 115.95289 115.12801 115.06362
           A15        108.78462 108.84529 108.94484 109.08295 109.01350
           A16        108.84002 108.75787 108.71621 108.74611 108.86438
           A17        107.42100 107.36918 107.51873 107.81939 108.05628
           A18        107.25583 107.66945 108.04194 108.29807 107.81288
           A19        107.18271 107.23370 107.34900 107.51284 107.80197
           A20        108.06451 107.97996 107.91605 107.89044 108.58820
           A21        109.44799 109.60984 109.79295 109.95193 109.59419
           A22        111.74430 111.66784 111.50603 111.30609 110.76059
           A23        109.30535 109.29877 109.33813 109.41374 109.76633
           A24        109.97116 109.94264 109.89280 109.81826 109.27970
           A25        108.28255 108.31886 108.37574 108.44502 108.84038
           A26        106.69727 106.72358 106.75148 106.77816 106.72055
           D1         -92.47304 -98.29190-103.47991-106.98741 -86.69854
           D2         152.59395 146.85972 141.65481 138.06054 158.04920
           D3          31.88371  26.02597  20.69695  16.95044  37.25308
           D4         145.69827 139.83108 134.74900 131.48904 151.97498
           D5          30.76527  24.98270  19.88372  16.53699  36.72273
           D6         -89.94498 -95.85105-101.07414-104.57311 -84.07340
           D7          30.72973  24.72901  19.32143  15.61258  35.64789
           D8         -84.20328 -90.11937 -95.54385 -99.33948 -79.60436
           D9         155.08648 149.04688 143.49829 139.55042 159.59951
           D10          8.05082  18.05071  28.05082  38.05085  48.05088
           D11       -113.80071-103.52494 -93.34968 -83.27609 -73.48737
           D12        129.72739 139.95425 149.96028 159.74499 169.15995
           D13        129.61197 139.93916 150.06879 159.96522 169.49504
           D14          7.76044  18.36351  28.66829  38.63829  47.95679
           D15       -108.71146 -98.15730 -88.02175 -78.34064 -69.39589
           D16       -114.59458-104.34346 -94.13131 -83.98278 -73.71138
           D17        123.55389 134.08089 144.46819 154.69028 164.75037
           D18          7.08199  17.56008  27.77815  37.71135  47.39769
           D19         56.13659  58.83824  61.79426  64.97335  80.48805
           D20        174.87778 177.59015-179.36055-176.06061-161.00621
           D21        -68.86016 -66.10775 -62.94579 -59.41266 -43.35205
           D22        -79.39985 -83.90224 -87.91957 -90.46783 -74.41852
           D23        161.65627 157.11933 152.98800 150.27278 165.68431
           D24         41.72235  37.08133  32.86107  30.08267  45.58333
           D25         43.15944  38.44701  34.23920  31.54257  47.63740
           D26        -75.78445 -80.53142 -84.85322 -87.71682 -72.25977
           D27        164.28164 159.43058 155.01984 152.09307 167.63925
           D28        158.10028 153.62522 149.81367 147.59608 163.90128
           D29         39.15639  34.64679  30.72125  28.33669  44.00412
           D30        -80.77752 -85.39121 -89.40569 -91.85342 -76.09686
           D31       -178.96654-178.57924-177.85093-176.68724-167.88438
           D32        -59.93211 -59.40322 -58.46971 -57.08660 -48.09453
           D33         58.81603  59.36819  60.36513  61.83390  71.19626
                          36        37
     Eigenvalues --    -0.19525  -0.19584
           R1           1.52132   1.52139
           R2           1.51222   1.51227
           R3           1.12190   1.12217
           R4           1.12249   1.12203
           R5           1.41417   1.41362
           R6           1.12431   1.12428
           R7           1.12272   1.12269
           R8           0.96528   0.96575
           R9           1.51885   1.51957
           R10          1.12275   1.12245
           R11          1.12195   1.12213
           R12          1.42146   1.42167
           R13          1.12354   1.12354
           R14          1.12401   1.12369
           R15          0.96396   0.96394
           A1         114.09426 113.81982
           A2         108.54636 108.32297
           A3         108.56621 108.80997
           A4         108.30572 108.31928
           A5         109.54727 109.78553
           A6         107.58551 107.59391
           A7         112.11801 112.21767
           A8         109.92333 109.98396
           A9         110.40611 110.44709
           A10        104.17322 104.17136
           A11        110.41578 110.33282
           A12        109.62278 109.49853
           A13        107.14137 107.16650
           A14        114.18113 113.79628
           A15        109.32831 109.63354
           A16        108.91211 108.82358
           A17        108.47833 108.77396
           A18        107.86912 107.79089
           A19        107.88898 107.84734
           A20        108.19808 107.90882
           A21        109.82798 109.98388
           A22        110.84124 111.00046
           A23        109.71433 109.55126
           A24        109.30754 109.41349
           A25        108.93747 108.96369
           A26        106.74121 106.75709
           D1         -89.95707 -88.41445
           D2         154.67428 156.12203
           D3          33.61247  35.14920
           D4         149.18274 151.04653
           D5          33.81409  35.58302
           D6         -87.24772 -85.38981
           D7          32.51211  34.35554
           D8         -82.85654 -81.10798
           D9         156.08165 157.91919
           D10         58.05076  68.05079
           D11        -63.66309 -54.00639
           D12        178.67409-171.74228
           D13        179.04477-171.40812
           D14         57.33092  66.53470
           D15        -60.33190 -51.20119
           D16        -63.88025 -54.18304
           D17        174.40590-176.24021
           D18         56.74308  66.02390
           D19         75.69363  71.81281
           D20       -165.48907-169.24739
           D21        -47.87049 -51.81478
           D22        -78.23547 -83.77390
           D23        162.02835 156.77102
           D24         41.60350  36.10801
           D25         43.94515  38.75700
           D26        -75.79103 -80.69808
           D27        163.78412 158.63891
           D28        160.56209 155.43904
           D29         40.82591  35.98396
           D30        -79.59895 -84.67906
           D31       -170.03430-173.11366
           D32        -50.22671 -53.38481
           D33         69.16827  66.00801
                          Input orientation:                          
 ---------------------------------------------------------------------
 Center     Atomic      Atomic             Coordinates (Angstroms)
 Number     Number       Type             X           Y           Z
 ---------------------------------------------------------------------
      1          6           0        2.002493    2.948946    1.293908
      2          6           0        0.975406    2.036313    1.947225
      3          8           0        0.997573    0.731424    1.404005
      4          6           0        3.362508    2.909046    1.954007
      5          6           0        4.089854    1.586236    1.780137
      6          8           0        3.622964    0.695273    2.784793
      7          1           0        1.618609    4.002390    1.340451
      8          1           0        2.097472    2.670110    0.211239
      9          1           0       -0.062940    2.407863    1.728618
     10          1           0        1.134006    1.999191    3.058040
     11          1           0        1.807555    0.307057    1.714685
     12          1           0        3.255630    3.121060    3.051057
     13          1           0        4.004701    3.714499    1.509037
     14          1           0        5.196839    1.738400    1.897468
     15          1           0        3.887249    1.145457    0.766558
     16          1           0        4.169781   -0.096664    2.729874
 ---------------------------------------------------------------------
                    Distance matrix (angstroms):
                    1          2          3          4          5
     1  C    0.000000
     2  C    1.521390   0.000000
     3  O    2.437086   1.413618   0.000000
     4  C    1.512271   2.541646   3.261511   0.000000
     5  C    2.539779   3.151234   3.230229   1.519569   0.000000
     6  O    3.150827   3.083744   2.966574   2.378831   1.421666
     7  H    1.122175   2.155769   3.330006   2.147797   3.483988
     8  H    1.122026   2.162030   2.528036   2.166713   2.757863
     9  H    2.178934   1.124277   2.010101   3.469247   4.233606
    10  H    2.183681   1.122694   2.088463   2.648196   3.246629
    11  H    2.682281   1.933100   0.965753   3.040642   2.617150
    12  H    2.165075   2.755820   3.677223   1.122449   2.160290
    13  H    2.154343   3.490694   4.237050   1.122125   2.147150
    14  H    3.468941   4.232224   4.346417   2.176782   1.123537
    15  H    2.661387   3.265950   2.987974   2.189894   1.123689
    16  H    4.004358   3.919970   3.536462   3.207485   1.934048
                    6          7          8          9         10
     6  O    0.000000
     7  H    4.128025   0.000000
     8  H    3.584730   1.810911   0.000000
     9  H    4.199328   2.349637   2.653033   0.000000
    10  H    2.823079   2.682863   3.079394   1.834954   0.000000
    11  H    2.142791   3.719037   2.815745   2.812886   2.263093
    12  H    2.467849   2.526411   3.099879   3.642856   2.399985
    13  H    3.299849   2.409303   2.532302   4.277992   3.685455
    14  H    2.086274   4.270790   3.649319   5.304899   4.233384
    15  H    2.084655   3.692986   2.415833   4.257138   3.682404
    16  H    0.963945   5.024064   4.277035   5.019073   3.703543
                   11         12         13         14         15
    11  H    0.000000
    12  H    3.435321   0.000000
    13  H    4.059607   1.814139   0.000000
    14  H    3.683667   2.647793   2.340308   0.000000
    15  H    2.434541   3.085593   2.676761   1.829088   0.000000
    16  H    2.602636   3.360444   4.005329   2.261682   2.340363
                   16
    16  H    0.000000
 Stoichiometry    C4H10O2
 Framework group  C1[X(C4H10O2)]
 Deg. of freedom    42
 Full point group                 C1      NOp   1
 Largest Abelian subgroup         C1      NOp   1
 Largest concise Abelian subgroup C1      NOp   1
                         Standard orientation:                         
 ---------------------------------------------------------------------
 Center     Atomic      Atomic             Coordinates (Angstroms)
 Number     Number       Type             X           Y           Z
 ---------------------------------------------------------------------
      1          6           0        0.766536   -1.156697   -0.192459
      2          6           0        1.523706    0.013970    0.416524
      3          8           0        1.470741    1.167249   -0.399232
      4          6           0       -0.697907   -1.198325    0.182556
      5          6           0       -1.515606   -0.063986   -0.412200
      6          8           0       -1.374154    1.068254    0.435832
      7          1           0        1.247443   -2.108280    0.157534
      8          1           0        0.871680   -1.114174   -1.308738
      9          1           0        2.619726   -0.228420    0.479659
     10          1           0        1.131003    0.243753    1.442890
     11          1           0        0.571111    1.514140   -0.344350
     12          1           0       -0.802018   -1.171483    1.299844
     13          1           0       -1.137333   -2.164832   -0.180670
     14          1           0       -2.598241   -0.359190   -0.467802
     15          1           0       -1.154226    0.194870   -1.444225
     16          1           0       -1.982217    1.739825    0.106530
 ---------------------------------------------------------------------
 Rotational constants (GHZ):      4.6201593      2.8563093      2.0307971

 **********************************************************************

            Population analysis using the SCF density.

 **********************************************************************

 Orbital symmetries:
       Occupied  (A) (A) (A) (A) (A) (A) (A) (A) (A) (A) (A) (A)
                 (A) (A) (A) (A) (A) (A) (A)
       Virtual   (A) (A) (A) (A) (A) (A) (A) (A) (A) (A) (A) (A)
                 (A) (A) (A)
 The electronic state is 1-A.
 Alpha  occ. eigenvalues --   -1.43969  -1.37514  -1.25081  -1.05830  -0.89588
 Alpha  occ. eigenvalues --   -0.78779  -0.69273  -0.65551  -0.61061  -0.56929
 Alpha  occ. eigenvalues --   -0.56184  -0.53681  -0.50862  -0.48885  -0.46151
 Alpha  occ. eigenvalues --   -0.43279  -0.42590  -0.41026  -0.39380
 Alpha virt. eigenvalues --    0.11865   0.13072   0.13680   0.14122   0.14537
 Alpha virt. eigenvalues --    0.15302   0.16058   0.16219   0.17371   0.17448
 Alpha virt. eigenvalues --    0.17780   0.18478   0.18746   0.21995   0.24725
          Condensed to atoms (all electrons):
               1          2          3          4          5          6
     1  C    4.196314   0.000000   0.000000   0.000000   0.000000   0.000000
     2  C    0.000000   4.013395   0.000000   0.000000   0.000000   0.000000
     3  O    0.000000   0.000000   6.337836   0.000000   0.000000   0.000000
     4  C    0.000000   0.000000   0.000000   4.162394   0.000000   0.000000
     5  C    0.000000   0.000000   0.000000   0.000000   4.025386   0.000000
     6  O    0.000000   0.000000   0.000000   0.000000   0.000000   6.340092
     7  H    0.000000   0.000000   0.000000   0.000000   0.000000   0.000000
     8  H    0.000000   0.000000   0.000000   0.000000   0.000000   0.000000
     9  H    0.000000   0.000000   0.000000   0.000000   0.000000   0.000000
    10  H    0.000000   0.000000   0.000000   0.000000   0.000000   0.000000
    11  H    0.000000   0.000000   0.000000   0.000000   0.000000   0.000000
    12  H    0.000000   0.000000   0.000000   0.000000   0.000000   0.000000
    13  H    0.000000   0.000000   0.000000   0.000000   0.000000   0.000000
    14  H    0.000000   0.000000   0.000000   0.000000   0.000000   0.000000
    15  H    0.000000   0.000000   0.000000   0.000000   0.000000   0.000000
    16  H    0.000000   0.000000   0.000000   0.000000   0.000000   0.000000
               7          8          9         10         11         12
     1  C    0.000000   0.000000   0.000000   0.000000   0.000000   0.000000
     2  C    0.000000   0.000000   0.000000   0.000000   0.000000   0.000000
     3  O    0.000000   0.000000   0.000000   0.000000   0.000000   0.000000
     4  C    0.000000   0.000000   0.000000   0.000000   0.000000   0.000000
     5  C    0.000000   0.000000   0.000000   0.000000   0.000000   0.000000
     6  O    0.000000   0.000000   0.000000   0.000000   0.000000   0.000000
     7  H    0.914829   0.000000   0.000000   0.000000   0.000000   0.000000
     8  H    0.000000   0.906330   0.000000   0.000000   0.000000   0.000000
     9  H    0.000000   0.000000   0.904482   0.000000   0.000000   0.000000
    10  H    0.000000   0.000000   0.000000   0.927520   0.000000   0.000000
    11  H    0.000000   0.000000   0.000000   0.000000   0.791585   0.000000
    12  H    0.000000   0.000000   0.000000   0.000000   0.000000   0.899534
    13  H    0.000000   0.000000   0.000000   0.000000   0.000000   0.000000
    14  H    0.000000   0.000000   0.000000   0.000000   0.000000   0.000000
    15  H    0.000000   0.000000   0.000000   0.000000   0.000000   0.000000
    16  H    0.000000   0.000000   0.000000   0.000000   0.000000   0.000000
              13         14         15         16
     1  C    0.000000   0.000000   0.000000   0.000000
     2  C    0.000000   0.000000   0.000000   0.000000
     3  O    0.000000   0.000000   0.000000   0.000000
     4  C    0.000000   0.000000   0.000000   0.000000
     5  C    0.000000   0.000000   0.000000   0.000000
     6  O    0.000000   0.000000   0.000000   0.000000
     7  H    0.000000   0.000000   0.000000   0.000000
     8  H    0.000000   0.000000   0.000000   0.000000
     9  H    0.000000   0.000000   0.000000   0.000000
    10  H    0.000000   0.000000   0.000000   0.000000
    11  H    0.000000   0.000000   0.000000   0.000000
    12  H    0.000000   0.000000   0.000000   0.000000
    13  H    0.914818   0.000000   0.000000   0.000000
    14  H    0.000000   0.936853   0.000000   0.000000
    15  H    0.000000   0.000000   0.930789   0.000000
    16  H    0.000000   0.000000   0.000000   0.797844
 Mulliken charges:
               1
     1  C   -0.196314
     2  C   -0.013395
     3  O   -0.337836
     4  C   -0.162394
     5  C   -0.025386
     6  O   -0.340092
     7  H    0.085171
     8  H    0.093670
     9  H    0.095518
    10  H    0.072480
    11  H    0.208415
    12  H    0.100466
    13  H    0.085182
    14  H    0.063147
    15  H    0.069211
    16  H    0.202156
 Sum of Mulliken charges =  -0.00000
 Mulliken charges with hydrogens summed into heavy atoms:
               1
     1  C   -0.017474
     2  C    0.154602
     3  O   -0.129420
     4  C    0.023254
     5  C    0.106973
     6  O   -0.137936
 Charge=             -0.0000 electrons
 Dipole moment (field-independent basis, Debye):
    X=             -2.1908    Y=             -1.0891    Z=             -0.3368  Tot=              2.4697
 N-N= 1.817183486304D+02 E-N=-3.117044742486D+02  KE=-2.501162129898D+01
 1\1\GINC-GTX1080DELTA\Scan\RAM1\ZDO\C4H10O2\MVEROT\18-Apr-2022\0\\#n A
 M1 Opt=modredundant\\Optimisation de geometrie\\0,1\C,2.0024925899,2.9
 489461861,1.2939084203\C,0.9754059043,2.0363133455,1.9472245569\O,0.99
 75732543,0.731423852,1.4040046388\C,3.3625075547,2.9090464573,1.954006
 8835\C,4.0898539972,1.5862359294,1.7801369666\O,3.6229639927,0.6952726
 492,2.7847928306\H,1.6186087893,4.0023896654,1.3404507803\H,2.09747156
 19,2.670109694,0.2112392328\H,-0.0629395401,2.4078625824,1.7286175011\
 H,1.1340063763,1.99919095,3.0580395492\H,1.8075546114,0.307056746,1.71
 46845917\H,3.2556304232,3.1210603956,3.0510567458\H,4.0047014341,3.714
 4994337,1.5090372265\H,5.1968387175,1.7383997975,1.8974683218\H,3.8872
 494339,1.1454567344,0.766557971\H,4.1697808994,-0.0966644184,2.7298737
 828\\Version=AM64L-G09RevD.01\State=1-A\HF=-0.1958396,-0.1961138,-0.19
 60844,-0.1958554,-0.1955116,-0.1950207,-0.1944267,-0.1941286,-0.194327
 3,-0.1947277,-0.195025,-0.1950622,-0.194809,-0.1943343,-0.1937479,-0.1
 931673,-0.1927411,-0.1925894,-0.1927522,-0.1931822,-0.1937264,-0.19409
 03,-0.1939404,-0.1933375,-0.192822,-0.1921835,-0.1912828,-0.1902934,-0
 .1894678,-0.1890052,-0.1890115,-0.1894923,-0.1903514,-0.191402,-0.1940
 773,-0.1952503,-0.1958396\RMSD=2.526e-09,4.364e-09,1.820e-09,9.535e-09
 ,8.837e-09,8.725e-09,1.636e-09,4.014e-09,5.154e-09,2.566e-09,3.024e-09
 ,4.337e-09,4.642e-09,2.777e-09,3.550e-09,3.265e-09,8.938e-09,3.899e-09
 ,2.619e-09,8.288e-09,3.626e-09,2.844e-09,2.685e-09,9.724e-09,3.908e-09
 ,7.429e-09,1.373e-09,5.307e-09,4.660e-09,3.530e-09,2.309e-09,4.091e-09
 ,2.079e-09,2.576e-09,4.063e-09,1.336e-09,3.436e-09\PG=C01 [X(C4H10O2)]
 \\@


 WHEN HAVING A MEETING OF THE MINDS,
 MAKE SURE YOU HAVE THE EQUIPMENT FOR IT.
 Job cpu time:       0 days  0 hours  2 minutes  7.3 seconds.
 File lengths (MBytes):  RWF=     72 Int=      0 D2E=      0 Chk=      6 Scr=      2
 Normal termination of Gaussian 09 at Mon Apr 18 00:08:44 2022.
