 Entering Gaussian System, Link 0=g09
 Input=/scratch/mverot/1-3-propanediol-opt/1-3-propanediol-opt.com
 Output=/scratch/mverot/1-3-propanediol-opt/1-3-propanediol-opt.log
 Initial command:
 /opt/g09/l1.exe "/scratch/mverot/1-3-propanediol-opt/Gau-1473571.inp" -scrdir="/scratch/mverot/1-3-propanediol-opt/"
 Entering Link 1 = /opt/g09/l1.exe PID=   1473573.
  
 Copyright (c) 1988,1990,1992,1993,1995,1998,2003,2009,2013,
            Gaussian, Inc.  All Rights Reserved.
  
 This is part of the Gaussian(R) 09 program.  It is based on
 the Gaussian(R) 03 system (copyright 2003, Gaussian, Inc.),
 the Gaussian(R) 98 system (copyright 1998, Gaussian, Inc.),
 the Gaussian(R) 94 system (copyright 1995, Gaussian, Inc.),
 the Gaussian 92(TM) system (copyright 1992, Gaussian, Inc.),
 the Gaussian 90(TM) system (copyright 1990, Gaussian, Inc.),
 the Gaussian 88(TM) system (copyright 1988, Gaussian, Inc.),
 the Gaussian 86(TM) system (copyright 1986, Carnegie Mellon
 University), and the Gaussian 82(TM) system (copyright 1983,
 Carnegie Mellon University). Gaussian is a federally registered
 trademark of Gaussian, Inc.
  
 This software contains proprietary and confidential information,
 including trade secrets, belonging to Gaussian, Inc.
  
 This software is provided under written license and may be
 used, copied, transmitted, or stored only in accord with that
 written license.
  
 The following legend is applicable only to US Government
 contracts under FAR:
  
                    RESTRICTED RIGHTS LEGEND
  
 Use, reproduction and disclosure by the US Government is
 subject to restrictions as set forth in subparagraphs (a)
 and (c) of the Commercial Computer Software - Restricted
 Rights clause in FAR 52.227-19.
  
 Gaussian, Inc.
 340 Quinnipiac St., Bldg. 40, Wallingford CT 06492
  
  
 ---------------------------------------------------------------
 Warning -- This program may not be used in any manner that
 competes with the business of Gaussian, Inc. or will provide
 assistance to any competitor of Gaussian, Inc.  The licensee
 of this program is prohibited from giving any competitor of
 Gaussian, Inc. access to this program.  By using this program,
 the user acknowledges that Gaussian, Inc. is engaged in the
 business of creating and licensing software in the field of
 computational chemistry and represents and warrants to the
 licensee that it is not a competitor of Gaussian, Inc. and that
 it will not use this program in any manner prohibited above.
 ---------------------------------------------------------------
  

 Cite this work as:
 Gaussian 09, Revision D.01,
 M. J. Frisch, G. W. Trucks, H. B. Schlegel, G. E. Scuseria, 
 M. A. Robb, J. R. Cheeseman, G. Scalmani, V. Barone, B. Mennucci, 
 G. A. Petersson, H. Nakatsuji, M. Caricato, X. Li, H. P. Hratchian, 
 A. F. Izmaylov, J. Bloino, G. Zheng, J. L. Sonnenberg, M. Hada, 
 M. Ehara, K. Toyota, R. Fukuda, J. Hasegawa, M. Ishida, T. Nakajima, 
 Y. Honda, O. Kitao, H. Nakai, T. Vreven, J. A. Montgomery, Jr., 
 J. E. Peralta, F. Ogliaro, M. Bearpark, J. J. Heyd, E. Brothers, 
 K. N. Kudin, V. N. Staroverov, T. Keith, R. Kobayashi, J. Normand, 
 K. Raghavachari, A. Rendell, J. C. Burant, S. S. Iyengar, J. Tomasi, 
 M. Cossi, N. Rega, J. M. Millam, M. Klene, J. E. Knox, J. B. Cross, 
 V. Bakken, C. Adamo, J. Jaramillo, R. Gomperts, R. E. Stratmann, 
 O. Yazyev, A. J. Austin, R. Cammi, C. Pomelli, J. W. Ochterski, 
 R. L. Martin, K. Morokuma, V. G. Zakrzewski, G. A. Voth, 
 P. Salvador, J. J. Dannenberg, S. Dapprich, A. D. Daniels, 
 O. Farkas, J. B. Foresman, J. V. Ortiz, J. Cioslowski, 
 and D. J. Fox, Gaussian, Inc., Wallingford CT, 2013.
 
 ******************************************
 Gaussian 09:  AM64L-G09RevD.01 24-Apr-2013
                17-Apr-2022 
 ******************************************
 %chk=1-3-propanediol-opt
 ----------
 #n PM3 Opt
 ----------
 1/14=-1,18=20,19=15,26=1,38=1/1,3;
 2/9=110,12=2,17=6,18=5,40=1/2;
 3/5=2,16=1,25=1,41=800000,71=1/1,2,3;
 4/35=1/1;
 5/5=2,35=1,38=5/2;
 6/7=2,8=2,9=2,10=2,28=1/1;
 7//1,2,3,16;
 1/14=-1,18=20,19=15,26=1/3(2);
 2/9=110/2;
 99//99;
 2/9=110/2;
 3/5=2,16=1,25=1,41=800000,71=1,135=20/1,2,3;
 4/5=5,16=3,35=1/1;
 5/5=2,35=1,38=5/2;
 7//1,2,3,16;
 1/14=-1,18=20,19=15,26=1/3(-5);
 2/9=110/2;
 6/7=2,8=2,9=2,10=2,19=2,28=1/1;
 99/9=1/99;
 -------------------------
 Optimisation de geometrie
 -------------------------
 Symbolic Z-matrix:
 Charge =  0 Multiplicity = 1
 C                     1.0003    2.0505    1.2298 
 O                     1.6167    3.2158    0.6619 
 C                     1.9842    0.8895    1.1354 
 C                     3.2981    1.1469    1.8851 
 O                     4.1136    2.1208    1.2591 
 H                     0.0703    1.8109    0.6924 
 H                     0.7421    2.2317    2.2855 
 H                     1.0489    3.9812    0.8361 
 H                     2.2102    0.6867    0.0812 
 H                     1.4929   -0.0037    1.5453 
 H                     3.8898    0.225     1.9226 
 H                     3.0683    1.4232    2.9315 
 H                     3.5208    2.8609    1.0374 
 

 GradGradGradGradGradGradGradGradGradGradGradGradGradGradGradGradGradGrad
 Berny optimization.
 Initialization pass.
                           ----------------------------
                           !    Initial Parameters    !
                           ! (Angstroms and Degrees)  !
 --------------------------                            --------------------------
 ! Name  Definition              Value          Derivative Info.                !
 --------------------------------------------------------------------------------
 ! R1    R(1,2)                  1.4354         estimate D2E/DX2                !
 ! R2    R(1,3)                  1.5248         estimate D2E/DX2                !
 ! R3    R(1,6)                  1.1005         estimate D2E/DX2                !
 ! R4    R(1,7)                  1.1018         estimate D2E/DX2                !
 ! R5    R(2,8)                  0.9688         estimate D2E/DX2                !
 ! R6    R(3,4)                  1.5345         estimate D2E/DX2                !
 ! R7    R(3,9)                  1.0971         estimate D2E/DX2                !
 ! R8    R(3,10)                 1.0987         estimate D2E/DX2                !
 ! R9    R(4,5)                  1.4161         estimate D2E/DX2                !
 ! R10   R(4,11)                 1.0961         estimate D2E/DX2                !
 ! R11   R(4,12)                 1.1064         estimate D2E/DX2                !
 ! R12   R(5,13)                 0.9738         estimate D2E/DX2                !
 ! A1    A(2,1,3)              108.4547         estimate D2E/DX2                !
 ! A2    A(2,1,6)              110.2701         estimate D2E/DX2                !
 ! A3    A(2,1,7)              110.2551         estimate D2E/DX2                !
 ! A4    A(3,1,6)              110.4443         estimate D2E/DX2                !
 ! A5    A(3,1,7)              109.6186         estimate D2E/DX2                !
 ! A6    A(6,1,7)              107.7975         estimate D2E/DX2                !
 ! A7    A(1,2,8)              108.576          estimate D2E/DX2                !
 ! A8    A(1,3,4)              113.2378         estimate D2E/DX2                !
 ! A9    A(1,3,9)              109.4619         estimate D2E/DX2                !
 ! A10   A(1,3,10)             107.9003         estimate D2E/DX2                !
 ! A11   A(4,3,9)              108.9109         estimate D2E/DX2                !
 ! A12   A(4,3,10)             109.6925         estimate D2E/DX2                !
 ! A13   A(9,3,10)             107.4775         estimate D2E/DX2                !
 ! A14   A(3,4,5)              113.1086         estimate D2E/DX2                !
 ! A15   A(3,4,11)             109.7463         estimate D2E/DX2                !
 ! A16   A(3,4,12)             109.0336         estimate D2E/DX2                !
 ! A17   A(5,4,11)             106.4205         estimate D2E/DX2                !
 ! A18   A(5,4,12)             111.4659         estimate D2E/DX2                !
 ! A19   A(11,4,12)            106.8466         estimate D2E/DX2                !
 ! A20   A(4,5,13)             105.8283         estimate D2E/DX2                !
 ! D1    D(3,1,2,8)           -171.8373         estimate D2E/DX2                !
 ! D2    D(6,1,2,8)             67.1123         estimate D2E/DX2                !
 ! D3    D(7,1,2,8)            -51.8083         estimate D2E/DX2                !
 ! D4    D(2,1,3,4)             60.0254         estimate D2E/DX2                !
 ! D5    D(2,1,3,9)            -61.6978         estimate D2E/DX2                !
 ! D6    D(2,1,3,10)          -178.3692         estimate D2E/DX2                !
 ! D7    D(6,1,3,4)           -179.0318         estimate D2E/DX2                !
 ! D8    D(6,1,3,9)             59.2449         estimate D2E/DX2                !
 ! D9    D(6,1,3,10)           -57.4264         estimate D2E/DX2                !
 ! D10   D(7,1,3,4)            -60.3999         estimate D2E/DX2                !
 ! D11   D(7,1,3,9)            177.8768         estimate D2E/DX2                !
 ! D12   D(7,1,3,10)            61.2055         estimate D2E/DX2                !
 ! D13   D(1,3,4,5)            -70.6852         estimate D2E/DX2                !
 ! D14   D(1,3,4,11)           170.6476         estimate D2E/DX2                !
 ! D15   D(1,3,4,12)            53.9321         estimate D2E/DX2                !
 ! D16   D(9,3,4,5)             51.3464         estimate D2E/DX2                !
 ! D17   D(9,3,4,11)           -67.3209         estimate D2E/DX2                !
 ! D18   D(9,3,4,12)           175.9636         estimate D2E/DX2                !
 ! D19   D(10,3,4,5)           168.7207         estimate D2E/DX2                !
 ! D20   D(10,3,4,11)           50.0534         estimate D2E/DX2                !
 ! D21   D(10,3,4,12)          -66.6621         estimate D2E/DX2                !
 ! D22   D(3,4,5,13)            46.2397         estimate D2E/DX2                !
 ! D23   D(11,4,5,13)          166.8172         estimate D2E/DX2                !
 ! D24   D(12,4,5,13)          -77.0447         estimate D2E/DX2                !
 --------------------------------------------------------------------------------
 Trust Radius=3.00D-01 FncErr=1.00D-07 GrdErr=1.00D-07
 Number of steps in this run=     66 maximum allowed number of steps=    100.
 GradGradGradGradGradGradGradGradGradGradGradGradGradGradGradGradGradGrad

                          Input orientation:                          
 ---------------------------------------------------------------------
 Center     Atomic      Atomic             Coordinates (Angstroms)
 Number     Number       Type             X           Y           Z
 ---------------------------------------------------------------------
      1          6           0        1.000300    2.050500    1.229800
      2          8           0        1.616700    3.215800    0.661900
      3          6           0        1.984200    0.889500    1.135400
      4          6           0        3.298100    1.146900    1.885100
      5          8           0        4.113600    2.120800    1.259100
      6          1           0        0.070300    1.810900    0.692400
      7          1           0        0.742100    2.231700    2.285500
      8          1           0        1.048900    3.981200    0.836100
      9          1           0        2.210200    0.686700    0.081200
     10          1           0        1.492900   -0.003700    1.545300
     11          1           0        3.889800    0.225000    1.922600
     12          1           0        3.068300    1.423200    2.931500
     13          1           0        3.520800    2.860900    1.037400
 ---------------------------------------------------------------------
                    Distance matrix (angstroms):
                    1          2          3          4          5
     1  C    0.000000
     2  O    1.435404   0.000000
     3  C    1.524760   2.402276   0.000000
     4  C    2.554564   2.933202   1.534483   0.000000
     5  O    3.114231   2.791090   2.462873   1.416121   0.000000
     6  H    1.100503   2.089504   2.169848   3.504586   4.094565
     7  H    1.101818   2.090324   2.160334   2.805396   3.526019
     8  H    1.971031   0.968803   3.243914   3.767301   3.610042
     9  H    2.154783   2.661917   1.097060   2.156239   2.658387
    10  H    2.135868   3.340794   1.098727   2.167508   3.385776
    11  H    3.487353   3.962478   2.166231   1.096091   2.020984
    12  H    2.750620   3.235992   2.164736   1.106392   2.091942
    13  H    2.654560   1.972955   2.501432   1.925094   0.973812
                    6          7          8          9         10
     6  H    0.000000
     7  H    1.779426   0.000000
     8  H    2.385060   2.292518   0.000000
     9  H    2.493304   3.066151   3.573825   0.000000
    10  H    2.458455   2.471560   4.071797   1.770525   0.000000
    11  H    4.314748   3.750541   4.833243   2.534754   2.437168
    12  H    3.761899   2.546015   3.874538   3.066428   2.537613
    13  H    3.623186   3.110437   2.721375   2.712773   3.546304
                   11         12         13
    11  H    0.000000
    12  H    1.768735   0.000000
    13  H    2.804944   2.420610   0.000000
 Stoichiometry    C3H8O2
 Framework group  C1[X(C3H8O2)]
 Deg. of freedom    33
 Full point group                 C1      NOp   1
 Largest Abelian subgroup         C1      NOp   1
 Largest concise Abelian subgroup C1      NOp   1
                         Standard orientation:                         
 ---------------------------------------------------------------------
 Center     Atomic      Atomic             Coordinates (Angstroms)
 Number     Number       Type             X           Y           Z
 ---------------------------------------------------------------------
      1          6           0        1.279122    0.476932    0.183540
      2          8           0        1.313242   -0.929184   -0.102915
      3          6           0       -0.033396    1.045416   -0.344677
      4          6           0       -1.272035    0.399497    0.290304
      5          8           0       -1.477722   -0.937696   -0.128032
      6          1           0        2.134825    0.983046   -0.288400
      7          1           0        1.345017    0.646545    1.270229
      8          1           0        2.081408   -1.316380    0.342709
      9          1           0       -0.079373    0.909092   -1.432263
     10          1           0       -0.037080    2.126234   -0.147141
     11          1           0       -2.170198    0.956633   -0.000073
     12          1           0       -1.192079    0.471487    1.391452
     13          1           0       -0.608824   -1.372689   -0.063945
 ---------------------------------------------------------------------
 Rotational constants (GHZ):      7.6403067      3.9465992      2.8720686
 Standard basis: VSTO-6G (5D, 7F)
 There are    28 symmetry adapted cartesian basis functions of A   symmetry.
 There are    28 symmetry adapted basis functions of A   symmetry.
    28 basis functions,   168 primitive gaussians,    28 cartesian basis functions
    16 alpha electrons       16 beta electrons
       nuclear repulsion energy       137.8053977105 Hartrees.
 Integral buffers will be    131072 words long.
 Regular integral format.
 Two-electron integral symmetry is turned off.
 Do NDO integrals.
 One-electron integrals computed using PRISM.
 NBasis=    28 RedAO= F EigKep=  0.00D+00  NBF=    28
 NBsUse=    28 1.00D-04 EigRej=  0.00D+00 NBFU=    28
 Simple Huckel Guess.
 Overlap will be assumed to be unity.
 Keep J ints in memory in canonical form, NReq=891302.
 Requested convergence on RMS density matrix=1.00D-08 within 128 cycles.
 Requested convergence on MAX density matrix=1.00D-06.
 Requested convergence on             energy=1.00D-06.
 No special actions if energy rises.
 SCF Done:  E(RPM3) = -0.160340308821     A.U. after   13 cycles
            NFock= 12  Conv=0.78D-08     -V/T= 0.9929

 **********************************************************************

            Population analysis using the SCF density.

 **********************************************************************

 Orbital symmetries:
       Occupied  (A) (A) (A) (A) (A) (A) (A) (A) (A) (A) (A) (A)
                 (A) (A) (A) (A)
       Virtual   (A) (A) (A) (A) (A) (A) (A) (A) (A) (A) (A) (A)
 The electronic state is 1-A.
 Alpha  occ. eigenvalues --   -1.47114  -1.33449  -1.16925  -0.92375  -0.77616
 Alpha  occ. eigenvalues --   -0.67762  -0.65142  -0.58023  -0.57822  -0.55953
 Alpha  occ. eigenvalues --   -0.51854  -0.49111  -0.48097  -0.44001  -0.41316
 Alpha  occ. eigenvalues --   -0.39606
 Alpha virt. eigenvalues --    0.10112   0.12047   0.12475   0.13631   0.13774
 Alpha virt. eigenvalues --    0.14681   0.15224   0.16748   0.17186   0.17717
 Alpha virt. eigenvalues --    0.19317   0.22158
          Condensed to atoms (all electrons):
               1          2          3          4          5          6
     1  C    3.923974   0.000000   0.000000   0.000000   0.000000   0.000000
     2  O    0.000000   6.328271   0.000000   0.000000   0.000000   0.000000
     3  C    0.000000   0.000000   4.162928   0.000000   0.000000   0.000000
     4  C    0.000000   0.000000   0.000000   3.918194   0.000000   0.000000
     5  O    0.000000   0.000000   0.000000   0.000000   6.329241   0.000000
     6  H    0.000000   0.000000   0.000000   0.000000   0.000000   0.970179
     7  H    0.000000   0.000000   0.000000   0.000000   0.000000   0.000000
     8  H    0.000000   0.000000   0.000000   0.000000   0.000000   0.000000
     9  H    0.000000   0.000000   0.000000   0.000000   0.000000   0.000000
    10  H    0.000000   0.000000   0.000000   0.000000   0.000000   0.000000
    11  H    0.000000   0.000000   0.000000   0.000000   0.000000   0.000000
    12  H    0.000000   0.000000   0.000000   0.000000   0.000000   0.000000
    13  H    0.000000   0.000000   0.000000   0.000000   0.000000   0.000000
               7          8          9         10         11         12
     1  C    0.000000   0.000000   0.000000   0.000000   0.000000   0.000000
     2  O    0.000000   0.000000   0.000000   0.000000   0.000000   0.000000
     3  C    0.000000   0.000000   0.000000   0.000000   0.000000   0.000000
     4  C    0.000000   0.000000   0.000000   0.000000   0.000000   0.000000
     5  O    0.000000   0.000000   0.000000   0.000000   0.000000   0.000000
     6  H    0.000000   0.000000   0.000000   0.000000   0.000000   0.000000
     7  H    0.975681   0.000000   0.000000   0.000000   0.000000   0.000000
     8  H    0.000000   0.805601   0.000000   0.000000   0.000000   0.000000
     9  H    0.000000   0.000000   0.926896   0.000000   0.000000   0.000000
    10  H    0.000000   0.000000   0.000000   0.938115   0.000000   0.000000
    11  H    0.000000   0.000000   0.000000   0.000000   0.953288   0.000000
    12  H    0.000000   0.000000   0.000000   0.000000   0.000000   0.980294
    13  H    0.000000   0.000000   0.000000   0.000000   0.000000   0.000000
              13
     1  C    0.000000
     2  O    0.000000
     3  C    0.000000
     4  C    0.000000
     5  O    0.000000
     6  H    0.000000
     7  H    0.000000
     8  H    0.000000
     9  H    0.000000
    10  H    0.000000
    11  H    0.000000
    12  H    0.000000
    13  H    0.787338
 Mulliken charges:
               1
     1  C    0.076026
     2  O   -0.328271
     3  C   -0.162928
     4  C    0.081806
     5  O   -0.329241
     6  H    0.029821
     7  H    0.024319
     8  H    0.194399
     9  H    0.073104
    10  H    0.061885
    11  H    0.046712
    12  H    0.019706
    13  H    0.212662
 Sum of Mulliken charges =   0.00000
 Mulliken charges with hydrogens summed into heavy atoms:
               1
     1  C    0.130166
     2  O   -0.133872
     3  C   -0.027939
     4  C    0.148224
     5  O   -0.116579
 Charge=              0.0000 electrons
 Dipole moment (field-independent basis, Debye):
    X=              2.5611    Y=              1.3795    Z=              1.2310  Tot=              3.1587
 N-N= 1.378053977105D+02 E-N=-2.304771570998D+02  KE=-2.253097211022D+01
 Calling FoFJK, ICntrl=      2127 FMM=F ISym2X=0 I1Cent= 0 IOpClX= 0 NMat=1 NMatS=1 NMatT=0.
 ***** Axes restored to original set *****
 -------------------------------------------------------------------
 Center     Atomic                   Forces (Hartrees/Bohr)
 Number     Number              X              Y              Z
 -------------------------------------------------------------------
      1        6           0.009673931    0.014414587   -0.002740844
      2        8          -0.012704532    0.002188814    0.007886408
      3        6           0.004149103    0.007941670    0.000473015
      4        6          -0.005328522    0.007807750   -0.005264843
      5        8          -0.016673339    0.003631223    0.003432783
      6        1          -0.002968001    0.000831409   -0.002608462
      7        1          -0.001711829    0.002648772    0.003210336
      8        1           0.010280072   -0.020273980   -0.001853939
      9        1           0.000506743   -0.003174782   -0.006710777
     10        1          -0.001264341   -0.004668172    0.001035414
     11        1           0.006358712   -0.001564242   -0.001587926
     12        1           0.002276595    0.003328836    0.001519161
     13        1           0.007405408   -0.013111885    0.003209674
 -------------------------------------------------------------------
 Cartesian Forces:  Max     0.020273980 RMS     0.007116969

 GradGradGradGradGradGradGradGradGradGradGradGradGradGradGradGradGradGrad
 Berny optimization.
 FormGI is forming the generalized inverse of G from B-inverse, IUseBI=4.
 Internal  Forces:  Max     0.022375737 RMS     0.005883102
 Search for a local minimum.
 Step number   1 out of a maximum of   66
 All quantities printed in internal units (Hartrees-Bohrs-Radians)
 Mixed Optimization -- RFO/linear search
 Second derivative matrix not updated -- first step.
 ITU=  0
     Eigenvalues ---    0.00310   0.00438   0.01223   0.01479   0.03522
     Eigenvalues ---    0.04700   0.04853   0.05263   0.05833   0.05912
     Eigenvalues ---    0.08401   0.11134   0.11726   0.12250   0.13653
     Eigenvalues ---    0.14030   0.16000   0.16000   0.21957   0.21979
     Eigenvalues ---    0.22027   0.29013   0.29913   0.32985   0.33482
     Eigenvalues ---    0.33627   0.33823   0.34009   0.34118   0.40223
     Eigenvalues ---    0.43050   0.52605   0.53622
 RFO step:  Lambda=-6.63140119D-03 EMin= 3.09803529D-03
 Linear search not attempted -- first point.
 Iteration  1 RMS(Cart)=  0.09058610 RMS(Int)=  0.00281006
 Iteration  2 RMS(Cart)=  0.00325750 RMS(Int)=  0.00035591
 Iteration  3 RMS(Cart)=  0.00000253 RMS(Int)=  0.00035590
 Iteration  4 RMS(Cart)=  0.00000000 RMS(Int)=  0.00035590
 Variable       Old X    -DE/DX   Delta X   Delta X   Delta X     New X
                                 (Linear)    (Quad)   (Total)
    R1        2.71252  -0.01811   0.00000  -0.04429  -0.04429   2.66823
    R2        2.88138  -0.00156   0.00000  -0.00511  -0.00511   2.87627
    R3        2.07965   0.00360   0.00000   0.01050   0.01050   2.09015
    R4        2.08213   0.00391   0.00000   0.01146   0.01146   2.09359
    R5        1.83077  -0.02238   0.00000  -0.04122  -0.04122   1.78955
    R6        2.89975  -0.00445   0.00000  -0.01499  -0.01499   2.88476
    R7        2.07314   0.00714   0.00000   0.02059   0.02059   2.09374
    R8        2.07629   0.00475   0.00000   0.01376   0.01376   2.09006
    R9        2.67608  -0.01479   0.00000  -0.03384  -0.03384   2.64224
   R10        2.07131   0.00469   0.00000   0.01350   0.01350   2.08481
   R11        2.09078   0.00180   0.00000   0.00534   0.00534   2.09611
   R12        1.84024  -0.01520   0.00000  -0.02854  -0.02854   1.81170
    A1        1.89289  -0.00812   0.00000  -0.03967  -0.03958   1.85331
    A2        1.92458   0.00168   0.00000  -0.00226  -0.00214   1.92244
    A3        1.92431   0.00092   0.00000  -0.00652  -0.00624   1.91808
    A4        1.92762   0.00291   0.00000   0.01729   0.01692   1.94453
    A5        1.91321   0.00406   0.00000   0.02609   0.02575   1.93896
    A6        1.88142  -0.00129   0.00000   0.00586   0.00535   1.88677
    A7        1.89501  -0.00808   0.00000  -0.04848  -0.04848   1.84653
    A8        1.97637  -0.01166   0.00000  -0.05289  -0.05283   1.92355
    A9        1.91047   0.00293   0.00000   0.00468   0.00436   1.91483
   A10        1.88322   0.00489   0.00000   0.03098   0.03117   1.91439
   A11        1.90085   0.00377   0.00000   0.01005   0.00969   1.91054
   A12        1.91450   0.00304   0.00000   0.01609   0.01651   1.93101
   A13        1.87584  -0.00261   0.00000  -0.00685  -0.00710   1.86874
   A14        1.97412  -0.00608   0.00000  -0.03368  -0.03357   1.94055
   A15        1.91543   0.00504   0.00000   0.04094   0.04036   1.95579
   A16        1.90300   0.00387   0.00000   0.02320   0.02209   1.92508
   A17        1.85739  -0.00071   0.00000  -0.01488  -0.01436   1.84303
   A18        1.94545  -0.00125   0.00000  -0.03088  -0.03086   1.91459
   A19        1.86482  -0.00057   0.00000   0.01875   0.01741   1.88223
   A20        1.84705  -0.00387   0.00000  -0.02324  -0.02324   1.82381
    D1       -2.99913  -0.00030   0.00000  -0.00070  -0.00074  -2.99987
    D2        1.17133   0.00023   0.00000   0.00449   0.00432   1.17565
    D3       -0.90422   0.00019   0.00000   0.00273   0.00294  -0.90129
    D4        1.04764  -0.00061   0.00000  -0.03831  -0.03817   1.00947
    D5       -1.07683   0.00037   0.00000  -0.01858  -0.01866  -1.09549
    D6       -3.11313  -0.00083   0.00000  -0.03023  -0.03044   3.13961
    D7       -3.12469  -0.00191   0.00000  -0.05567  -0.05568   3.10282
    D8        1.03402  -0.00093   0.00000  -0.03594  -0.03616   0.99786
    D9       -1.00228  -0.00213   0.00000  -0.04759  -0.04794  -1.05022
   D10       -1.05418   0.00080   0.00000  -0.02176  -0.02133  -1.07551
   D11        3.10454   0.00177   0.00000  -0.00203  -0.00181   3.10272
   D12        1.06824   0.00058   0.00000  -0.01368  -0.01360   1.05464
   D13       -1.23369   0.00183   0.00000   0.08727   0.08716  -1.14653
   D14        2.97836   0.00320   0.00000   0.09976   0.10025   3.07861
   D15        0.94129  -0.00120   0.00000   0.04062   0.04014   0.98143
   D16        0.89616   0.00045   0.00000   0.06491   0.06483   0.96100
   D17       -1.17497   0.00182   0.00000   0.07740   0.07792  -1.09705
   D18        3.07115  -0.00258   0.00000   0.01826   0.01782   3.08897
   D19        2.94473   0.00123   0.00000   0.07168   0.07163   3.01636
   D20        0.87360   0.00259   0.00000   0.08417   0.08472   0.95832
   D21       -1.16347  -0.00181   0.00000   0.02502   0.02462  -1.13885
   D22        0.80703  -0.00157   0.00000  -0.04656  -0.04629   0.76074
   D23        2.91151   0.00058   0.00000  -0.02582  -0.02565   2.88586
   D24       -1.34468  -0.00117   0.00000  -0.02819  -0.02863  -1.37331
         Item               Value     Threshold  Converged?
 Maximum Force            0.022376     0.000450     NO 
 RMS     Force            0.005883     0.000300     NO 
 Maximum Displacement     0.378777     0.001800     NO 
 RMS     Displacement     0.090262     0.001200     NO 
 Predicted change in Energy=-3.589241D-03
 GradGradGradGradGradGradGradGradGradGradGradGradGradGradGradGradGradGrad

                          Input orientation:                          
 ---------------------------------------------------------------------
 Center     Atomic      Atomic             Coordinates (Angstroms)
 Number     Number       Type             X           Y           Z
 ---------------------------------------------------------------------
      1          6           0        1.030808    2.053067    1.232040
      2          8           0        1.728828    3.151859    0.685168
      3          6           0        1.973098    0.861602    1.136362
      4          6           0        3.273823    1.156954    1.878813
      5          8           0        3.985294    2.189651    1.260474
      6          1           0        0.096750    1.875600    0.666877
      7          1           0        0.760884    2.264353    2.285559
      8          1           0        1.192496    3.911987    0.862217
      9          1           0        2.195904    0.645834    0.072702
     10          1           0        1.481312   -0.036818    1.553790
     11          1           0        3.954677    0.288887    1.883211
     12          1           0        3.061969    1.428100    2.933306
     13          1           0        3.320360    2.848323    1.052782
 ---------------------------------------------------------------------
                    Distance matrix (angstroms):
                    1          2          3          4          5
     1  C    0.000000
     2  O    1.411964   0.000000
     3  C    1.522056   2.347024   0.000000
     4  C    2.500490   2.791316   1.526549   0.000000
     5  O    2.957778   2.519615   2.414135   1.398212   0.000000
     6  H    1.106060   2.071919   2.183871   3.475491   3.946107
     7  H    1.107882   2.070225   2.181245   2.776083   3.384258
     8  H    1.902234   0.946991   3.160592   3.599388   3.305264
     9  H    2.163751   2.621724   1.107957   2.164530   2.645012
    10  H    2.161966   3.314125   1.106010   2.178032   3.363498
    11  H    3.476401   3.819204   2.193728   1.103232   2.000410
    12  H    2.722224   3.130932   2.176136   1.109215   2.056905
    13  H    2.430352   1.661399   2.401908   1.882876   0.958709
                    6          7          8          9         10
     6  H    0.000000
     7  H    1.792299   0.000000
     8  H    2.320709   2.219659   0.000000
     9  H    2.504360   3.094450   3.506839   0.000000
    10  H    2.522096   2.519899   4.019297   1.780526   0.000000
    11  H    4.345197   3.776859   4.668932   2.549242   2.516374
    12  H    3.758921   2.532566   3.735510   3.089509   2.558813
    13  H    3.389214   2.900289   2.386525   2.660060   3.457910
                   11         12         13
    11  H    0.000000
    12  H    1.788137   0.000000
    13  H    2.764540   2.370690   0.000000
 Stoichiometry    C3H8O2
 Framework group  C1[X(C3H8O2)]
 Deg. of freedom    33
 Full point group                 C1      NOp   1
 Largest Abelian subgroup         C1      NOp   1
 Largest concise Abelian subgroup C1      NOp   1
                         Standard orientation:                         
 ---------------------------------------------------------------------
 Center     Atomic      Atomic             Coordinates (Angstroms)
 Number     Number       Type             X           Y           Z
 ---------------------------------------------------------------------
      1          6           0        1.245978    0.462937    0.200199
      2          8           0        1.188038   -0.910912   -0.120461
      3          6           0       -0.039568    1.077997   -0.334335
      4          6           0       -1.251955    0.383937    0.281094
      5          8           0       -1.331249   -0.950972   -0.127229
      6          1           0        2.137769    0.924989   -0.263036
      7          1           0        1.322873    0.590991    1.297966
      8          1           0        1.923468   -1.310334    0.322706
      9          1           0       -0.074007    0.972724   -1.436742
     10          1           0       -0.055374    2.161100   -0.110964
     11          1           0       -2.200860    0.848264   -0.036869
     12          1           0       -1.203216    0.434029    1.388105
     13          1           0       -0.431694   -1.275914   -0.061385
 ---------------------------------------------------------------------
 Rotational constants (GHZ):      7.6415818      4.4256406      3.1187780
 Standard basis: VSTO-6G (5D, 7F)
 There are    28 symmetry adapted cartesian basis functions of A   symmetry.
 There are    28 symmetry adapted basis functions of A   symmetry.
    28 basis functions,   168 primitive gaussians,    28 cartesian basis functions
    16 alpha electrons       16 beta electrons
       nuclear repulsion energy       139.9274371358 Hartrees.
 Integral buffers will be    131072 words long.
 Regular integral format.
 Two-electron integral symmetry is turned off.
 Do NDO integrals.
 One-electron integrals computed using PRISM.
 NBasis=    28 RedAO= F EigKep=  0.00D+00  NBF=    28
 NBsUse=    28 1.00D-04 EigRej=  0.00D+00 NBFU=    28
 Initial guess from the checkpoint file:  "1-3-propanediol-opt.chk"
 B after Tr=     0.000000   -0.000000    0.000000
         Rot=    0.999962   -0.007612    0.001981   -0.003817 Ang=  -1.00 deg.
 Overlap will be assumed to be unity.
 Keep J ints in memory in canonical form, NReq=891302.
 Requested convergence on RMS density matrix=1.00D-08 within 128 cycles.
 Requested convergence on MAX density matrix=1.00D-06.
 Requested convergence on             energy=1.00D-06.
 No special actions if energy rises.
 SCF Done:  E(RPM3) = -0.157524984381     A.U. after   12 cycles
            NFock= 11  Conv=0.53D-08     -V/T= 0.9930
 Calling FoFJK, ICntrl=      2127 FMM=F ISym2X=0 I1Cent= 0 IOpClX= 0 NMat=1 NMatS=1 NMatT=0.
 ***** Axes restored to original set *****
 -------------------------------------------------------------------
 Center     Atomic                   Forces (Hartrees/Bohr)
 Number     Number              X              Y              Z
 -------------------------------------------------------------------
      1        6          -0.002846744   -0.002485721    0.000999664
      2        8          -0.030108277    0.010776884   -0.007445148
      3        6          -0.002016710   -0.005888565   -0.000064124
      4        6           0.000491035   -0.003779356    0.002983449
      5        8           0.008017830   -0.001945137    0.003157279
      6        1          -0.000415038    0.000276731    0.000150897
      7        1          -0.001124859   -0.000202263   -0.000105520
      8        1           0.000761297    0.003089751   -0.000946920
      9        1          -0.000929512   -0.002419052   -0.000244448
     10        1           0.000370974    0.000252478   -0.000665765
     11        1           0.000384280    0.000759242   -0.000492231
     12        1           0.001054180   -0.000939316    0.000410013
     13        1           0.026361543    0.002504325    0.002262852
 -------------------------------------------------------------------
 Cartesian Forces:  Max     0.030108277 RMS     0.007094698

 GradGradGradGradGradGradGradGradGradGradGradGradGradGradGradGradGradGrad
 Berny optimization.
 Using GEDIIS/GDIIS optimizer.
 FormGI is forming the generalized inverse of G from B-inverse, IUseBI=4.
 GSVD:  received Info=                   1 from GESDD.
 Internal  Forces:  Max     0.075779730 RMS     0.021204994
 Search for a local minimum.
 Step number   2 out of a maximum of   66
 All quantities printed in internal units (Hartrees-Bohrs-Radians)
 Mixed Optimization -- RFO/linear search
 Update second derivatives using D2CorX and points    2    1
 DE=  2.82D-03 DEPred=-3.59D-03 R=-7.84D-01
 Trust test=-7.84D-01 RLast= 2.79D-01 DXMaxT set to 1.50D-01
 ITU= -1  0
 Use linear search instead of GDIIS.
 Energy rises -- skip Quadratic/GDIIS search.
 Quartic linear search produced a step of -0.53757.
 Iteration  1 RMS(Cart)=  0.04802913 RMS(Int)=  0.00078738
 Iteration  2 RMS(Cart)=  0.00102706 RMS(Int)=  0.00008829
 Iteration  3 RMS(Cart)=  0.00000055 RMS(Int)=  0.00008829
 Variable       Old X    -DE/DX   Delta X   Delta X   Delta X     New X
                                 (Linear)    (Quad)   (Total)
    R1        2.66823  -0.00047   0.02381   0.00000   0.02381   2.69204
    R2        2.87627   0.02939   0.00275   0.00000   0.00275   2.87902
    R3        2.09015   0.00023  -0.00565   0.00000  -0.00565   2.08451
    R4        2.09359   0.00014  -0.00616   0.00000  -0.00616   2.08743
    R5        1.78955   0.00187   0.02216   0.00000   0.02216   1.81171
    R6        2.88476   0.03433   0.00806   0.00000   0.00806   2.89282
    R7        2.09374   0.00052  -0.01107   0.00000  -0.01107   2.08267
    R8        2.09006  -0.00062  -0.00740   0.00000  -0.00740   2.08266
    R9        2.64224   0.01551   0.01819   0.00000   0.01819   2.66043
   R10        2.08481  -0.00036  -0.00725   0.00000  -0.00725   2.07755
   R11        2.09611  -0.00004  -0.00287   0.00000  -0.00287   2.09324
   R12        1.81170  -0.01705   0.01534   0.00000   0.01534   1.82704
    A1        1.85331   0.05251   0.02128   0.00000   0.02126   1.87457
    A2        1.92244  -0.02309   0.00115   0.00000   0.00112   1.92356
    A3        1.91808  -0.01095   0.00335   0.00000   0.00328   1.92136
    A4        1.94453  -0.01315  -0.00909   0.00000  -0.00900   1.93553
    A5        1.93896  -0.01029  -0.01384   0.00000  -0.01376   1.92520
    A6        1.88677   0.00454  -0.00288   0.00000  -0.00275   1.88402
    A7        1.84653   0.00491   0.02606   0.00000   0.02606   1.87259
    A8        1.92355   0.07578   0.02840   0.00000   0.02838   1.95193
    A9        1.91483  -0.01553  -0.00235   0.00000  -0.00227   1.91257
   A10        1.91439  -0.02939  -0.01676   0.00000  -0.01681   1.89758
   A11        1.91054  -0.01622  -0.00521   0.00000  -0.00512   1.90542
   A12        1.93101  -0.02819  -0.00888   0.00000  -0.00898   1.92203
   A13        1.86874   0.01116   0.00382   0.00000   0.00388   1.87262
   A14        1.94055   0.07164   0.01805   0.00000   0.01803   1.95857
   A15        1.95579  -0.01991  -0.02169   0.00000  -0.02156   1.93424
   A16        1.92508  -0.01190  -0.01187   0.00000  -0.01160   1.91348
   A17        1.84303  -0.03095   0.00772   0.00000   0.00759   1.85062
   A18        1.91459  -0.01779   0.01659   0.00000   0.01659   1.93117
   A19        1.88223   0.00634  -0.00936   0.00000  -0.00902   1.87321
   A20        1.82381   0.03468   0.01249   0.00000   0.01249   1.83630
    D1       -2.99987  -0.00328   0.00040   0.00000   0.00041  -2.99946
    D2        1.17565  -0.00613  -0.00232   0.00000  -0.00228   1.17337
    D3       -0.90129   0.00931  -0.00158   0.00000  -0.00163  -0.90292
    D4        1.00947   0.01724   0.02052   0.00000   0.02049   1.02995
    D5       -1.09549  -0.00076   0.01003   0.00000   0.01005  -1.08544
    D6        3.13961   0.01212   0.01637   0.00000   0.01642  -3.12715
    D7        3.10282   0.01443   0.02993   0.00000   0.02993   3.13275
    D8        0.99786  -0.00357   0.01944   0.00000   0.01949   1.01735
    D9       -1.05022   0.00931   0.02577   0.00000   0.02586  -1.02436
   D10       -1.07551   0.00423   0.01147   0.00000   0.01136  -1.06415
   D11        3.10272  -0.01376   0.00098   0.00000   0.00092   3.10364
   D12        1.05464  -0.00089   0.00731   0.00000   0.00729   1.06193
   D13       -1.14653  -0.02004  -0.04685   0.00000  -0.04682  -1.19336
   D14        3.07861  -0.01557  -0.05389   0.00000  -0.05401   3.02459
   D15        0.98143  -0.00226  -0.02158   0.00000  -0.02146   0.95998
   D16        0.96100  -0.00186  -0.03485   0.00000  -0.03483   0.92617
   D17       -1.09705   0.00261  -0.04189   0.00000  -0.04202  -1.13907
   D18        3.08897   0.01592  -0.00958   0.00000  -0.00947   3.07950
   D19        3.01636  -0.01497  -0.03851   0.00000  -0.03850   2.97787
   D20        0.95832  -0.01050  -0.04554   0.00000  -0.04568   0.91263
   D21       -1.13885   0.00281  -0.01323   0.00000  -0.01313  -1.15198
   D22        0.76074   0.01195   0.02489   0.00000   0.02482   0.78556
   D23        2.88586   0.00905   0.01379   0.00000   0.01374   2.89960
   D24       -1.37331  -0.00870   0.01539   0.00000   0.01550  -1.35781
         Item               Value     Threshold  Converged?
 Maximum Force            0.075780     0.000450     NO 
 RMS     Force            0.021205     0.000300     NO 
 Maximum Displacement     0.202226     0.001800     NO 
 RMS     Displacement     0.048454     0.001200     NO 
 Predicted change in Energy=-4.059997D-03
 GradGradGradGradGradGradGradGradGradGradGradGradGradGradGradGradGradGrad

                          Input orientation:                          
 ---------------------------------------------------------------------
 Center     Atomic      Atomic             Coordinates (Angstroms)
 Number     Number       Type             X           Y           Z
 ---------------------------------------------------------------------
      1          6           0        1.014222    2.051542    1.230854
      2          8           0        1.669153    3.186705    0.672416
      3          6           0        1.978991    0.876268    1.135816
      4          6           0        3.286803    1.151323    1.882386
      5          8           0        4.054784    2.153396    1.259438
      6          1           0        0.081726    1.840611    0.680645
      7          1           0        0.750381    2.246581    2.285623
      8          1           0        1.116055    3.949835    0.848067
      9          1           0        2.203546    0.667382    0.077249
     10          1           0        1.487443   -0.019273    1.549338
     11          1           0        3.920367    0.253126    1.904823
     12          1           0        3.065354    1.425150    2.932611
     13          1           0        3.427373    2.856755    1.044035
 ---------------------------------------------------------------------
                    Distance matrix (angstroms):
                    1          2          3          4          5
     1  C    0.000000
     2  O    1.424565   0.000000
     3  C    1.523509   2.376734   0.000000
     4  C    2.529725   2.867682   1.530814   0.000000
     5  O    3.042402   2.665250   2.440339   1.407839   0.000000
     6  H    1.103073   2.081337   2.176408   3.491678   4.027161
     7  H    1.104622   2.080965   2.170091   2.792065   3.461332
     8  H    1.939179   0.958717   3.205351   3.689666   3.468796
     9  H    2.158980   2.643254   1.102099   2.160130   2.651960
    10  H    2.147939   3.328709   1.102095   2.172305   3.375763
    11  H    3.483420   3.897779   2.179132   1.099393   2.011372
    12  H    2.737788   3.187622   2.170236   1.107697   2.075771
    13  H    2.550797   1.827103   2.455313   1.905542   0.966828
                    6          7          8          9         10
     6  H    0.000000
     7  H    1.785459   0.000000
     8  H    2.355142   2.258619   0.000000
     9  H    2.498534   3.079363   3.542781   0.000000
    10  H    2.487937   2.493886   4.047657   1.775203   0.000000
    11  H    4.330575   3.763998   4.758840   2.541477   2.473801
    12  H    3.761115   2.540166   3.810397   3.077339   2.547470
    13  H    3.515388   3.013327   2.564258   2.688082   3.505737
                   11         12         13
    11  H    0.000000
    12  H    1.777931   0.000000
    13  H    2.786195   2.397346   0.000000
 Stoichiometry    C3H8O2
 Framework group  C1[X(C3H8O2)]
 Deg. of freedom    33
 Full point group                 C1      NOp   1
 Largest Abelian subgroup         C1      NOp   1
 Largest concise Abelian subgroup C1      NOp   1
                         Standard orientation:                         
 ---------------------------------------------------------------------
 Center     Atomic      Atomic             Coordinates (Angstroms)
 Number     Number       Type             X           Y           Z
 ---------------------------------------------------------------------
      1          6           0        1.264110    0.470580    0.191295
      2          8           0        1.254813   -0.921554   -0.110796
      3          6           0       -0.035886    1.060944   -0.340269
      4          6           0       -1.262647    0.393127    0.286204
      5          8           0       -1.410286   -0.944335   -0.127814
      6          1           0        2.137067    0.956244   -0.276516
      7          1           0        1.335317    0.621345    1.283261
      8          1           0        2.007623   -1.314703    0.334006
      9          1           0       -0.076686    0.938787   -1.434817
     10          1           0       -0.044770    2.142918   -0.130826
     11          1           0       -2.185435    0.908337   -0.016594
     12          1           0       -1.197158    0.455305    1.390214
     13          1           0       -0.525639   -1.329025   -0.063230
 ---------------------------------------------------------------------
 Rotational constants (GHZ):      7.6336598      4.1600239      2.9829621
 Standard basis: VSTO-6G (5D, 7F)
 There are    28 symmetry adapted cartesian basis functions of A   symmetry.
 There are    28 symmetry adapted basis functions of A   symmetry.
    28 basis functions,   168 primitive gaussians,    28 cartesian basis functions
    16 alpha electrons       16 beta electrons
       nuclear repulsion energy       138.7522479248 Hartrees.
 Integral buffers will be    131072 words long.
 Regular integral format.
 Two-electron integral symmetry is turned off.
 Do NDO integrals.
 One-electron integrals computed using PRISM.
 NBasis=    28 RedAO= F EigKep=  0.00D+00  NBF=    28
 NBsUse=    28 1.00D-04 EigRej=  0.00D+00 NBFU=    28
 Lowest energy guess from the checkpoint file:  "1-3-propanediol-opt.chk"
 B after Tr=     0.000000   -0.000000   -0.000000
         Rot=    0.999992   -0.003440    0.000917   -0.001602 Ang=  -0.45 deg.
 B after Tr=     0.000000   -0.000000   -0.000000
         Rot=    0.999988    0.004170   -0.001068    0.002218 Ang=   0.55 deg.
 Overlap will be assumed to be unity.
 Keep J ints in memory in canonical form, NReq=891302.
 Requested convergence on RMS density matrix=1.00D-08 within 128 cycles.
 Requested convergence on MAX density matrix=1.00D-06.
 Requested convergence on             energy=1.00D-06.
 No special actions if energy rises.
 SCF Done:  E(RPM3) = -0.162288090853     A.U. after   10 cycles
            NFock=  9  Conv=0.23D-08     -V/T= 0.9928
 Calling FoFJK, ICntrl=      2127 FMM=F ISym2X=0 I1Cent= 0 IOpClX= 0 NMat=1 NMatS=1 NMatT=0.
 ***** Axes restored to original set *****
 -------------------------------------------------------------------
 Center     Atomic                   Forces (Hartrees/Bohr)
 Number     Number              X              Y              Z
 -------------------------------------------------------------------
      1        6           0.004848978    0.007174991   -0.001222389
      2        8          -0.012146276    0.004247300    0.003304214
      3        6           0.001400600    0.001859327    0.000283112
      4        6          -0.003010734    0.002704826   -0.001659950
      5        8          -0.006184620    0.000979981    0.003234505
      6        1          -0.001742334    0.000595118   -0.001315706
      7        1          -0.001411893    0.001302966    0.001649689
      8        1           0.006062260   -0.010098543   -0.001501261
      9        1          -0.000172886   -0.002818356   -0.003660143
     10        1          -0.000488420   -0.002374260    0.000240943
     11        1           0.003617525   -0.000299905   -0.001117557
     12        1           0.001666879    0.001362790    0.000947734
     13        1           0.007560921   -0.004636233    0.000816809
 -------------------------------------------------------------------
 Cartesian Forces:  Max     0.012146276 RMS     0.003943169

 GradGradGradGradGradGradGradGradGradGradGradGradGradGradGradGradGradGrad
 Berny optimization.
 Using GEDIIS/GDIIS optimizer.
 FormGI is forming the generalized inverse of G from B-inverse, IUseBI=4.
 GSVD:  received Info=                   1 from GESDD.
 Internal  Forces:  Max     0.011810810 RMS     0.003333883
 Search for a local minimum.
 Step number   3 out of a maximum of   66
 All quantities printed in internal units (Hartrees-Bohrs-Radians)
 Mixed Optimization -- RFO/linear search
 Update second derivatives using D2CorX and points    2    1    3
 ITU=  0 -1  0
 Use linear search instead of GDIIS.
     Eigenvalues ---    0.00346   0.00469   0.01223   0.01492   0.03736
     Eigenvalues ---    0.04832   0.04914   0.05298   0.05768   0.06198
     Eigenvalues ---    0.08180   0.10559   0.11305   0.12082   0.13576
     Eigenvalues ---    0.13965   0.15401   0.16532   0.21379   0.21950
     Eigenvalues ---    0.28034   0.29309   0.30067   0.33006   0.33526
     Eigenvalues ---    0.33673   0.33877   0.34088   0.36020   0.41632
     Eigenvalues ---    0.48759   0.52943   0.63572
 RFO step:  Lambda=-3.31551529D-03 EMin= 3.45845263D-03
 Quartic linear search produced a step of  0.02077.
 Iteration  1 RMS(Cart)=  0.05642950 RMS(Int)=  0.00142456
 Iteration  2 RMS(Cart)=  0.00153605 RMS(Int)=  0.00024822
 Iteration  3 RMS(Cart)=  0.00000135 RMS(Int)=  0.00024822
 Iteration  4 RMS(Cart)=  0.00000000 RMS(Int)=  0.00024822
 Variable       Old X    -DE/DX   Delta X   Delta X   Delta X     New X
                                 (Linear)    (Quad)   (Total)
    R1        2.69204  -0.00817  -0.00043  -0.04425  -0.04468   2.64736
    R2        2.87902   0.00532  -0.00005   0.01553   0.01548   2.89450
    R3        2.08451   0.00202   0.00010   0.01168   0.01178   2.09628
    R4        2.08743   0.00214   0.00011   0.01260   0.01271   2.10014
    R5        1.81171  -0.01181  -0.00040  -0.04453  -0.04493   1.76678
    R6        2.89282   0.00422  -0.00014   0.00702   0.00687   2.89969
    R7        2.08267   0.00401   0.00020   0.02295   0.02315   2.10582
    R8        2.08266   0.00224   0.00013   0.01403   0.01417   2.09682
    R9        2.66043  -0.00364  -0.00033  -0.02660  -0.02692   2.63351
   R10        2.07755   0.00231   0.00013   0.01404   0.01417   2.09173
   R11        2.09324   0.00090   0.00005   0.00561   0.00566   2.09891
   R12        1.82704  -0.00846  -0.00027  -0.03168  -0.03195   1.79509
    A1        1.87457   0.00451  -0.00038   0.00219   0.00174   1.87631
    A2        1.92356  -0.00278  -0.00002  -0.02467  -0.02471   1.89885
    A3        1.92136  -0.00141  -0.00006  -0.00177  -0.00201   1.91935
    A4        1.93553  -0.00063   0.00016   0.00387   0.00395   1.93948
    A5        1.92520   0.00039   0.00025   0.02557   0.02570   1.95090
    A6        1.88402  -0.00014   0.00005  -0.00520  -0.00537   1.87866
    A7        1.87259  -0.00220  -0.00047  -0.03897  -0.03943   1.83316
    A8        1.95193   0.00468  -0.00051   0.00003  -0.00073   1.95120
    A9        1.91257  -0.00062   0.00004   0.01909   0.01884   1.93140
   A10        1.89758  -0.00154   0.00030  -0.00225  -0.00200   1.89558
   A11        1.90542  -0.00026   0.00009   0.02334   0.02320   1.92862
   A12        1.92203  -0.00233   0.00016  -0.01747  -0.01728   1.90474
   A13        1.87262  -0.00013  -0.00007  -0.02374  -0.02362   1.84900
   A14        1.95857   0.00866  -0.00032   0.02336   0.02308   1.98165
   A15        1.93424  -0.00048   0.00039   0.01825   0.01862   1.95285
   A16        1.91348  -0.00003   0.00022   0.02746   0.02745   1.94093
   A17        1.85062  -0.00544  -0.00014  -0.05199  -0.05224   1.79838
   A18        1.93117  -0.00373  -0.00030  -0.02647  -0.02726   1.90392
   A19        1.87321   0.00051   0.00017   0.00630   0.00531   1.87852
   A20        1.83630   0.00508  -0.00022   0.02022   0.01999   1.85630
    D1       -2.99946  -0.00061  -0.00001  -0.00835  -0.00829  -3.00775
    D2        1.17337  -0.00099   0.00004   0.00004   0.00013   1.17350
    D3       -0.90292   0.00178   0.00003   0.02290   0.02283  -0.88009
    D4        1.02995   0.00218  -0.00037   0.08136   0.08110   1.11105
    D5       -1.08544  -0.00014  -0.00018   0.03882   0.03863  -1.04681
    D6       -3.12715   0.00123  -0.00029   0.05789   0.05766  -3.06949
    D7        3.13275   0.00125  -0.00053   0.05489   0.05436  -3.09608
    D8        1.01735  -0.00108  -0.00035   0.01234   0.01189   1.02924
    D9       -1.02436   0.00030  -0.00046   0.03141   0.03092  -0.99344
   D10       -1.06415   0.00093  -0.00021   0.06746   0.06729  -0.99686
   D11        3.10364  -0.00140  -0.00002   0.02491   0.02482   3.12847
   D12        1.06193  -0.00002  -0.00013   0.04398   0.04385   1.10578
   D13       -1.19336  -0.00207   0.00084  -0.08228  -0.08160  -1.27496
   D14        3.02459  -0.00054   0.00096  -0.04413  -0.04306   2.98154
   D15        0.95998  -0.00086   0.00039  -0.08015  -0.07982   0.88015
   D16        0.92617   0.00003   0.00062  -0.04229  -0.04169   0.88447
   D17       -1.13907   0.00156   0.00075  -0.00414  -0.00315  -1.14222
   D18        3.07950   0.00124   0.00017  -0.04016  -0.03992   3.03958
   D19        2.97787  -0.00164   0.00069  -0.06743  -0.06692   2.91094
   D20        0.91263  -0.00011   0.00081  -0.02928  -0.02838   0.88425
   D21       -1.15198  -0.00043   0.00024  -0.06530  -0.06515  -1.21713
   D22        0.78556   0.00085  -0.00045   0.00004  -0.00045   0.78511
   D23        2.89960   0.00177  -0.00025   0.00221   0.00120   2.90081
   D24       -1.35781  -0.00255  -0.00027  -0.03281  -0.03228  -1.39009
         Item               Value     Threshold  Converged?
 Maximum Force            0.011811     0.000450     NO 
 RMS     Force            0.003334     0.000300     NO 
 Maximum Displacement     0.233435     0.001800     NO 
 RMS     Displacement     0.056462     0.001200     NO 
 Predicted change in Energy=-1.736431D-03
 GradGradGradGradGradGradGradGradGradGradGradGradGradGradGradGradGradGrad

                          Input orientation:                          
 ---------------------------------------------------------------------
 Center     Atomic      Atomic             Coordinates (Angstroms)
 Number     Number       Type             X           Y           Z
 ---------------------------------------------------------------------
      1          6           0        1.001858    2.065696    1.240062
      2          8           0        1.601319    3.186832    0.651599
      3          6           0        1.983580    0.897121    1.110575
      4          6           0        3.279820    1.152861    1.890896
      5          8           0        4.110822    2.099497    1.294729
      6          1           0        0.051155    1.849653    0.710868
      7          1           0        0.754781    2.280908    2.302007
      8          1           0        1.031939    3.900339    0.853668
      9          1           0        2.207713    0.688779    0.039065
     10          1           0        1.497073   -0.019283    1.503900
     11          1           0        3.919925    0.250886    1.934704
     12          1           0        3.065315    1.464202    2.935260
     13          1           0        3.550902    2.821908    1.035967
 ---------------------------------------------------------------------
                    Distance matrix (angstroms):
                    1          2          3          4          5
     1  C    0.000000
     2  O    1.400924   0.000000
     3  C    1.531702   2.366338   0.000000
     4  C    2.538890   2.913805   1.534451   0.000000
     5  O    3.109628   2.809540   2.450465   1.393593   0.000000
     6  H    1.109305   2.048064   2.191198   3.507458   4.109040
     7  H    1.111346   2.064260   2.200983   2.795948   3.508636
     8  H    1.875132   0.934942   3.160844   3.698303   3.594034
     9  H    2.189151   2.642571   1.114350   2.189535   2.681164
    10  H    2.159163   3.319105   1.109590   2.168380   3.371152
    11  H    3.505878   3.955006   2.201418   1.106893   1.965547
    12  H    2.737398   3.213386   2.195725   1.110695   2.046467
    13  H    2.666671   2.020342   2.483318   1.894758   0.949918
                    6          7          8          9         10
     6  H    0.000000
     7  H    1.792426   0.000000
     8  H    2.277640   2.190219   0.000000
     9  H    2.539624   3.125187   3.515699   0.000000
    10  H    2.492489   2.545359   4.000323   1.775417   0.000000
    11  H    4.361332   3.778100   4.777825   2.591692   2.475640
    12  H    3.765854   2.531124   3.795050   3.118447   2.590155
    13  H    3.646806   3.116702   2.746164   2.710758   3.536883
                   11         12         13
    11  H    0.000000
    12  H    1.789862   0.000000
    13  H    2.748466   2.384634   0.000000
 Stoichiometry    C3H8O2
 Framework group  C1[X(C3H8O2)]
 Deg. of freedom    33
 Full point group                 C1      NOp   1
 Largest Abelian subgroup         C1      NOp   1
 Largest concise Abelian subgroup C1      NOp   1
                         Standard orientation:                         
 ---------------------------------------------------------------------
 Center     Atomic      Atomic             Coordinates (Angstroms)
 Number     Number       Type             X           Y           Z
 ---------------------------------------------------------------------
      1          6           0        1.282351    0.443778    0.208536
      2          8           0        1.308455   -0.916970   -0.123534
      3          6           0       -0.014498    1.031120   -0.356552
      4          6           0       -1.254791    0.404266    0.294039
      5          8           0       -1.501049   -0.902773   -0.122024
      6          1           0        2.171318    0.937095   -0.235237
      7          1           0        1.344458    0.566626    1.311323
      8          1           0        2.045412   -1.264393    0.335060
      9          1           0       -0.051255    0.910135   -1.463705
     10          1           0       -0.019017    2.124771   -0.169207
     11          1           0       -2.183122    0.935913    0.009846
     12          1           0       -1.181064    0.424898    1.402092
     13          1           0       -0.664356   -1.352087   -0.101842
 ---------------------------------------------------------------------
 Rotational constants (GHZ):      7.8792209      3.9139283      2.9040003
 Standard basis: VSTO-6G (5D, 7F)
 There are    28 symmetry adapted cartesian basis functions of A   symmetry.
 There are    28 symmetry adapted basis functions of A   symmetry.
    28 basis functions,   168 primitive gaussians,    28 cartesian basis functions
    16 alpha electrons       16 beta electrons
       nuclear repulsion energy       138.2429923225 Hartrees.
 Integral buffers will be    131072 words long.
 Regular integral format.
 Two-electron integral symmetry is turned off.
 Do NDO integrals.
 One-electron integrals computed using PRISM.
 NBasis=    28 RedAO= F EigKep=  0.00D+00  NBF=    28
 NBsUse=    28 1.00D-04 EigRej=  0.00D+00 NBFU=    28
 Initial guess from the checkpoint file:  "1-3-propanediol-opt.chk"
 B after Tr=     0.000000    0.000000    0.000000
         Rot=    0.999972   -0.001018   -0.000543    0.007426 Ang=  -0.86 deg.
 Overlap will be assumed to be unity.
 Keep J ints in memory in canonical form, NReq=891302.
 Requested convergence on RMS density matrix=1.00D-08 within 128 cycles.
 Requested convergence on MAX density matrix=1.00D-06.
 Requested convergence on             energy=1.00D-06.
 No special actions if energy rises.
 SCF Done:  E(RPM3) = -0.161758524698     A.U. after   12 cycles
            NFock= 11  Conv=0.44D-08     -V/T= 0.9928
 Calling FoFJK, ICntrl=      2127 FMM=F ISym2X=0 I1Cent= 0 IOpClX= 0 NMat=1 NMatS=1 NMatT=0.
 ***** Axes restored to original set *****
 -------------------------------------------------------------------
 Center     Atomic                   Forces (Hartrees/Bohr)
 Number     Number              X              Y              Z
 -------------------------------------------------------------------
      1        6          -0.001296977   -0.009473520    0.001334938
      2        8           0.010246576   -0.002151290   -0.004416159
      3        6          -0.000983924   -0.001721233    0.002196663
      4        6          -0.002485870   -0.005963743    0.002309083
      5        8           0.005420943    0.001308573   -0.001648166
      6        1           0.000870270   -0.001435655    0.001607958
      7        1           0.000713445   -0.001898424   -0.001637355
      8        1          -0.006022371    0.013728843    0.001041015
      9        1          -0.000619275    0.001301996    0.003847060
     10        1           0.000846967    0.001666440   -0.001005163
     11        1          -0.002191318    0.000692526    0.000064859
     12        1          -0.000876813   -0.001307580   -0.001304230
     13        1          -0.003621651    0.005253066   -0.002390504
 -------------------------------------------------------------------
 Cartesian Forces:  Max     0.013728843 RMS     0.004010530

 GradGradGradGradGradGradGradGradGradGradGradGradGradGradGradGradGradGrad
 Berny optimization.
 Using GEDIIS/GDIIS optimizer.
 FormGI is forming the generalized inverse of G from B-inverse, IUseBI=4.
 Internal  Forces:  Max     0.014369869 RMS     0.003398795
 Search for a local minimum.
 Step number   4 out of a maximum of   66
 All quantities printed in internal units (Hartrees-Bohrs-Radians)
 Mixed Optimization -- RFO/linear search
 Update second derivatives using D2CorX and points    2    1    4    3
 DE=  5.30D-04 DEPred=-1.74D-03 R=-3.05D-01
 Trust test=-3.05D-01 RLast= 2.63D-01 DXMaxT set to 7.50D-02
 ITU= -1  0 -1  0
 Use linear search instead of GDIIS.
 Energy rises -- skip Quadratic/GDIIS search.
 Quartic linear search produced a step of -0.62504.
 Iteration  1 RMS(Cart)=  0.03523744 RMS(Int)=  0.00054158
 Iteration  2 RMS(Cart)=  0.00060511 RMS(Int)=  0.00005790
 Iteration  3 RMS(Cart)=  0.00000030 RMS(Int)=  0.00005790
 Variable       Old X    -DE/DX   Delta X   Delta X   Delta X     New X
                                 (Linear)    (Quad)   (Total)
    R1        2.64736   0.01249   0.02792   0.00000   0.02792   2.67529
    R2        2.89450  -0.00400  -0.00968   0.00000  -0.00968   2.88482
    R3        2.09628  -0.00123  -0.00736   0.00000  -0.00736   2.08892
    R4        2.10014  -0.00209  -0.00794   0.00000  -0.00794   2.09220
    R5        1.76678   0.01437   0.02808   0.00000   0.02808   1.79487
    R6        2.89969  -0.00468  -0.00430   0.00000  -0.00430   2.89540
    R7        2.10582  -0.00407  -0.01447   0.00000  -0.01447   2.09135
    R8        2.09682  -0.00210  -0.00885   0.00000  -0.00885   2.08797
    R9        2.63351   0.00726   0.01683   0.00000   0.01683   2.65034
   R10        2.09173  -0.00183  -0.00886   0.00000  -0.00886   2.08287
   R11        2.09891  -0.00142  -0.00354   0.00000  -0.00354   2.09537
   R12        1.79509   0.00678   0.01997   0.00000   0.01997   1.81506
    A1        1.87631  -0.00020  -0.00109   0.00000  -0.00107   1.87524
    A2        1.89885   0.00167   0.01545   0.00000   0.01545   1.91430
    A3        1.91935   0.00070   0.00126   0.00000   0.00130   1.92065
    A4        1.93948  -0.00085  -0.00247   0.00000  -0.00245   1.93703
    A5        1.95090  -0.00147  -0.01607   0.00000  -0.01604   1.93486
    A6        1.87866   0.00024   0.00335   0.00000   0.00340   1.88206
    A7        1.83316   0.00777   0.02465   0.00000   0.02465   1.85780
    A8        1.95120  -0.00271   0.00046   0.00000   0.00052   1.95171
    A9        1.93140   0.00017  -0.01177   0.00000  -0.01170   1.91970
   A10        1.89558   0.00137   0.00125   0.00000   0.00126   1.89684
   A11        1.92862   0.00050  -0.01450   0.00000  -0.01444   1.91418
   A12        1.90474   0.00120   0.01080   0.00000   0.01080   1.91554
   A13        1.84900  -0.00035   0.01476   0.00000   0.01472   1.86372
   A14        1.98165  -0.00335  -0.01443   0.00000  -0.01444   1.96721
   A15        1.95285  -0.00008  -0.01164   0.00000  -0.01164   1.94122
   A16        1.94093  -0.00054  -0.01716   0.00000  -0.01711   1.92382
   A17        1.79838   0.00254   0.03265   0.00000   0.03269   1.83106
   A18        1.90392   0.00179   0.01704   0.00000   0.01715   1.92107
   A19        1.87852   0.00004  -0.00332   0.00000  -0.00304   1.87547
   A20        1.85630   0.00098  -0.01250   0.00000  -0.01250   1.84380
    D1       -3.00775   0.00051   0.00518   0.00000   0.00517  -3.00258
    D2        1.17350   0.00069  -0.00008   0.00000  -0.00009   1.17341
    D3       -0.88009  -0.00099  -0.01427   0.00000  -0.01425  -0.89433
    D4        1.11105  -0.00130  -0.05069   0.00000  -0.05071   1.06034
    D5       -1.04681  -0.00012  -0.02415   0.00000  -0.02414  -1.07095
    D6       -3.06949  -0.00059  -0.03604   0.00000  -0.03605  -3.10555
    D7       -3.09608   0.00013  -0.03397   0.00000  -0.03398  -3.13006
    D8        1.02924   0.00131  -0.00743   0.00000  -0.00741   1.02184
    D9       -0.99344   0.00083  -0.01933   0.00000  -0.01932  -1.01276
   D10       -0.99686  -0.00115  -0.04206   0.00000  -0.04207  -1.03893
   D11        3.12847   0.00003  -0.01552   0.00000  -0.01550   3.11297
   D12        1.10578  -0.00044  -0.02741   0.00000  -0.02741   1.07837
   D13       -1.27496   0.00162   0.05100   0.00000   0.05104  -1.22392
   D14        2.98154   0.00065   0.02691   0.00000   0.02689   3.00842
   D15        0.88015   0.00104   0.04989   0.00000   0.04991   0.93006
   D16        0.88447   0.00026   0.02606   0.00000   0.02607   0.91054
   D17       -1.14222  -0.00071   0.00197   0.00000   0.00191  -1.14031
   D18        3.03958  -0.00032   0.02495   0.00000   0.02493   3.06452
   D19        2.91094   0.00082   0.04183   0.00000   0.04187   2.95282
   D20        0.88425  -0.00014   0.01774   0.00000   0.01772   0.90197
   D21       -1.21713   0.00025   0.04072   0.00000   0.04074  -1.17639
   D22        0.78511  -0.00072   0.00028   0.00000   0.00029   0.78540
   D23        2.90081  -0.00097  -0.00075   0.00000  -0.00058   2.90023
   D24       -1.39009   0.00103   0.02017   0.00000   0.01999  -1.37010
         Item               Value     Threshold  Converged?
 Maximum Force            0.014370     0.000450     NO 
 RMS     Force            0.003399     0.000300     NO 
 Maximum Displacement     0.145769     0.001800     NO 
 RMS     Displacement     0.035303     0.001200     NO 
 Predicted change in Energy=-1.681734D-04
 GradGradGradGradGradGradGradGradGradGradGradGradGradGradGradGradGradGrad

                          Input orientation:                          
 ---------------------------------------------------------------------
 Center     Atomic      Atomic             Coordinates (Angstroms)
 Number     Number       Type             X           Y           Z
 ---------------------------------------------------------------------
      1          6           0        1.009577    2.056801    1.234418
      2          8           0        1.643972    3.186847    0.664552
      3          6           0        1.980654    0.883865    1.126347
      4          6           0        3.284157    1.151703    1.885764
      5          8           0        4.076229    2.133338    1.272565
      6          1           0        0.070162    1.844236    0.691973
      7          1           0        0.752083    2.259264    2.291996
      8          1           0        1.084287    3.931459    0.850107
      9          1           0        2.205111    0.675260    0.062922
     10          1           0        1.490916   -0.019593    1.532224
     11          1           0        3.920312    0.252125    1.916136
     12          1           0        3.064977    1.439644    2.933874
     13          1           0        3.473764    2.844451    1.040421
 ---------------------------------------------------------------------
                    Distance matrix (angstroms):
                    1          2          3          4          5
     1  C    0.000000
     2  O    1.415700   0.000000
     3  C    1.526581   2.372834   0.000000
     4  C    2.533213   2.885026   1.532178   0.000000
     5  O    3.067844   2.719456   2.444176   1.402497   0.000000
     6  H    1.105410   2.068872   2.181966   3.497785   4.058231
     7  H    1.107143   2.074716   2.181708   2.793406   3.479230
     8  H    1.915103   0.949802   3.188670   3.693109   3.516167
     9  H    2.170336   2.642897   1.106693   2.171196   2.662764
    10  H    2.152159   3.325288   1.104905   2.170861   3.374371
    11  H    3.491987   3.919283   2.187494   1.102205   1.994356
    12  H    2.737463   3.197154   2.179862   1.108821   2.064894
    13  H    2.594271   1.899119   2.465899   1.901565   0.960488
                    6          7          8          9         10
     6  H    0.000000
     7  H    1.788110   0.000000
     8  H    2.325931   2.232854   0.000000
     9  H    2.514004   3.096632   3.532526   0.000000
    10  H    2.489663   2.513229   4.030068   1.775315   0.000000
    11  H    4.342470   3.769291   4.766231   2.560344   2.474506
    12  H    3.762809   2.536388   3.804518   3.092898   2.563526
    13  H    3.564597   3.052283   2.631997   2.696363   3.517997
                   11         12         13
    11  H    0.000000
    12  H    1.782580   0.000000
    13  H    2.772442   2.392854   0.000000
 Stoichiometry    C3H8O2
 Framework group  C1[X(C3H8O2)]
 Deg. of freedom    33
 Full point group                 C1      NOp   1
 Largest Abelian subgroup         C1      NOp   1
 Largest concise Abelian subgroup C1      NOp   1
                         Standard orientation:                         
 ---------------------------------------------------------------------
 Center     Atomic      Atomic             Coordinates (Angstroms)
 Number     Number       Type             X           Y           Z
 ---------------------------------------------------------------------
      1          6           0        1.271320    0.460039    0.197781
      2          8           0        1.274326   -0.920540   -0.115589
      3          6           0       -0.027184    1.050014   -0.346525
      4          6           0       -1.259487    0.398272    0.289265
      5          8           0       -1.445100   -0.928545   -0.125588
      6          1           0        2.150717    0.947878   -0.261134
      7          1           0        1.339159    0.600529    1.293877
      8          1           0        2.021338   -1.296780    0.334455
      9          1           0       -0.066589    0.928097   -1.445776
     10          1           0       -0.033845    2.136473   -0.145585
     11          1           0       -2.184201    0.919980   -0.006675
     12          1           0       -1.190444    0.445108    1.394943
     13          1           0       -0.577834   -1.338550   -0.077816
 ---------------------------------------------------------------------
 Rotational constants (GHZ):      7.7216946      4.0653630      2.9531267
 Standard basis: VSTO-6G (5D, 7F)
 There are    28 symmetry adapted cartesian basis functions of A   symmetry.
 There are    28 symmetry adapted basis functions of A   symmetry.
    28 basis functions,   168 primitive gaussians,    28 cartesian basis functions
    16 alpha electrons       16 beta electrons
       nuclear repulsion energy       138.5516313140 Hartrees.
 Integral buffers will be    131072 words long.
 Regular integral format.
 Two-electron integral symmetry is turned off.
 Do NDO integrals.
 One-electron integrals computed using PRISM.
 NBasis=    28 RedAO= F EigKep=  0.00D+00  NBF=    28
 NBsUse=    28 1.00D-04 EigRej=  0.00D+00 NBFU=    28
 Lowest energy guess from the checkpoint file:  "1-3-propanediol-opt.chk"
 B after Tr=     0.000000    0.000000    0.000000
         Rot=    0.999995   -0.000332   -0.000225    0.003062 Ang=  -0.35 deg.
 B after Tr=     0.000000   -0.000000   -0.000000
         Rot=    0.999990    0.000686    0.000318   -0.004366 Ang=   0.51 deg.
 Overlap will be assumed to be unity.
 Keep J ints in memory in canonical form, NReq=891302.
 Requested convergence on RMS density matrix=1.00D-08 within 128 cycles.
 Requested convergence on MAX density matrix=1.00D-06.
 Requested convergence on             energy=1.00D-06.
 No special actions if energy rises.
 SCF Done:  E(RPM3) = -0.162850577052     A.U. after    9 cycles
            NFock=  8  Conv=0.21D-08     -V/T= 0.9928
 Calling FoFJK, ICntrl=      2127 FMM=F ISym2X=0 I1Cent= 0 IOpClX= 0 NMat=1 NMatS=1 NMatT=0.
 ***** Axes restored to original set *****
 -------------------------------------------------------------------
 Center     Atomic                   Forces (Hartrees/Bohr)
 Number     Number              X              Y              Z
 -------------------------------------------------------------------
      1        6           0.002658219    0.001432944   -0.000541847
      2        8          -0.001669354    0.001169293    0.001425019
      3        6           0.000489028    0.000565469    0.000959313
      4        6          -0.002641024   -0.000541635   -0.000247286
      5        8          -0.002179573    0.001411481    0.001220527
      6        1          -0.000755864   -0.000174207   -0.000193926
      7        1          -0.000607069    0.000077838    0.000408837
      8        1           0.002016978   -0.001497549   -0.000744912
      9        1          -0.000348698   -0.001244931   -0.000802171
     10        1           0.000032800   -0.000843376   -0.000251049
     11        1           0.001436243    0.000190848   -0.000670292
     12        1           0.000745313    0.000347657    0.000070256
     13        1           0.000823002   -0.000893832   -0.000632468
 -------------------------------------------------------------------
 Cartesian Forces:  Max     0.002658219 RMS     0.001119548

 GradGradGradGradGradGradGradGradGradGradGradGradGradGradGradGradGradGrad
 Berny optimization.
 Using GEDIIS/GDIIS optimizer.
 FormGI is forming the generalized inverse of G from B-inverse, IUseBI=4.
 GSVD:  received Info=                   1 from GESDD.
 Internal  Forces:  Max     0.004508147 RMS     0.001055084
 Search for a local minimum.
 Step number   5 out of a maximum of   66
 All quantities printed in internal units (Hartrees-Bohrs-Radians)
 Mixed Optimization -- RFO/linear search
 Update second derivatives using D2CorX and points    2    1    4    3    5
 ITU=  0 -1  0 -1  0
 Use linear search instead of GDIIS.
     Eigenvalues ---    0.00361   0.00543   0.01223   0.01490   0.03929
     Eigenvalues ---    0.04788   0.05118   0.05477   0.05735   0.06177
     Eigenvalues ---    0.08198   0.11118   0.11366   0.12098   0.13584
     Eigenvalues ---    0.14003   0.16027   0.16924   0.21206   0.22007
     Eigenvalues ---    0.28243   0.29535   0.32999   0.33303   0.33540
     Eigenvalues ---    0.33794   0.33931   0.34097   0.40876   0.43606
     Eigenvalues ---    0.50781   0.53164   0.87162
 RFO step:  Lambda=-4.24516872D-04 EMin= 3.60661536D-03
 Quartic linear search produced a step of -0.01328.
 Iteration  1 RMS(Cart)=  0.03174715 RMS(Int)=  0.00055355
 Iteration  2 RMS(Cart)=  0.00065717 RMS(Int)=  0.00002426
 Iteration  3 RMS(Cart)=  0.00000022 RMS(Int)=  0.00002426
 Variable       Old X    -DE/DX   Delta X   Delta X   Delta X     New X
                                 (Linear)    (Quad)   (Total)
    R1        2.67529  -0.00038   0.00022  -0.00399  -0.00377   2.67152
    R2        2.88482  -0.00025  -0.00008   0.00545   0.00537   2.89019
    R3        2.08892   0.00077  -0.00006   0.00332   0.00326   2.09219
    R4        2.09220   0.00055  -0.00006   0.00270   0.00264   2.09484
    R5        1.79487  -0.00251   0.00022  -0.00833  -0.00810   1.78676
    R6        2.89540  -0.00158  -0.00003   0.00075   0.00072   2.89612
    R7        2.09135   0.00093  -0.00012   0.00475   0.00464   2.09599
    R8        2.08797   0.00058  -0.00007   0.00269   0.00262   2.09059
    R9        2.65034  -0.00066   0.00013  -0.00152  -0.00138   2.64895
   R10        2.08287   0.00065  -0.00007   0.00294   0.00287   2.08573
   R11        2.09537   0.00001  -0.00003   0.00044   0.00042   2.09578
   R12        1.81506  -0.00103   0.00016  -0.00521  -0.00505   1.81000
    A1        1.87524  -0.00161  -0.00001   0.00442   0.00440   1.87964
    A2        1.91430   0.00080   0.00012  -0.00207  -0.00195   1.91235
    A3        1.92065   0.00029   0.00001   0.00053   0.00052   1.92117
    A4        1.93703   0.00040  -0.00002  -0.00088  -0.00090   1.93614
    A5        1.93486   0.00057  -0.00013   0.00346   0.00333   1.93819
    A6        1.88206  -0.00042   0.00003  -0.00545  -0.00542   1.87664
    A7        1.85780   0.00134   0.00020   0.00822   0.00842   1.86622
    A8        1.95171  -0.00451   0.00000  -0.00522  -0.00522   1.94650
    A9        1.91970   0.00101  -0.00009   0.00373   0.00364   1.92334
   A10        1.89684   0.00206   0.00001   0.00657   0.00658   1.90342
   A11        1.91418   0.00147  -0.00012   0.00713   0.00702   1.92119
   A12        1.91554   0.00133   0.00009  -0.00089  -0.00080   1.91474
   A13        1.86372  -0.00119   0.00012  -0.01163  -0.01151   1.85221
   A14        1.96721  -0.00161  -0.00011   0.00779   0.00769   1.97490
   A15        1.94122   0.00142  -0.00009   0.00778   0.00769   1.94890
   A16        1.92382   0.00084  -0.00014   0.00731   0.00716   1.93097
   A17        1.83106  -0.00006   0.00026  -0.01574  -0.01550   1.81556
   A18        1.92107  -0.00033   0.00013  -0.01053  -0.01043   1.91064
   A19        1.87547  -0.00025  -0.00003   0.00204   0.00188   1.87735
   A20        1.84380   0.00074  -0.00010   0.01713   0.01703   1.86083
    D1       -3.00258   0.00010   0.00004   0.00388   0.00392  -2.99866
    D2        1.17341   0.00012  -0.00000   0.00348   0.00349   1.17690
    D3       -0.89433  -0.00002  -0.00011   0.01110   0.01099  -0.88335
    D4        1.06034  -0.00060  -0.00040  -0.00371  -0.00411   1.05623
    D5       -1.07095  -0.00011  -0.00019  -0.01186  -0.01204  -1.08300
    D6       -3.10555  -0.00043  -0.00029  -0.00375  -0.00403  -3.10958
    D7       -3.13006  -0.00040  -0.00027  -0.00400  -0.00427  -3.13433
    D8        1.02184   0.00009  -0.00006  -0.01215  -0.01221   1.00963
    D9       -1.01276  -0.00023  -0.00015  -0.00404  -0.00419  -1.01695
   D10       -1.03893  -0.00029  -0.00033  -0.00915  -0.00949  -1.04842
   D11        3.11297   0.00020  -0.00012  -0.01729  -0.01742   3.09554
   D12        1.07837  -0.00012  -0.00022  -0.00918  -0.00941   1.06896
   D13       -1.22392   0.00110   0.00041   0.05956   0.05996  -1.16395
   D14        3.00842   0.00128   0.00021   0.06915   0.06938   3.07780
   D15        0.93006   0.00015   0.00040   0.05690   0.05729   0.98736
   D16        0.91054   0.00037   0.00021   0.06576   0.06597   0.97650
   D17       -1.14031   0.00055   0.00002   0.07535   0.07538  -1.06493
   D18        3.06452  -0.00058   0.00020   0.06310   0.06330   3.12781
   D19        2.95282   0.00056   0.00033   0.05531   0.05564   3.00845
   D20        0.90197   0.00074   0.00014   0.06490   0.06505   0.96702
   D21       -1.17639  -0.00039   0.00032   0.05265   0.05297  -1.12342
   D22        0.78540  -0.00083   0.00000  -0.02141  -0.02140   0.76400
   D23        2.90023  -0.00005  -0.00001  -0.01773  -0.01782   2.88241
   D24       -1.37010  -0.00053   0.00016  -0.02864  -0.02839  -1.39849
         Item               Value     Threshold  Converged?
 Maximum Force            0.004508     0.000450     NO 
 RMS     Force            0.001055     0.000300     NO 
 Maximum Displacement     0.090751     0.001800     NO 
 RMS     Displacement     0.031790     0.001200     NO 
 Predicted change in Energy=-2.173492D-04
 GradGradGradGradGradGradGradGradGradGradGradGradGradGradGradGradGradGrad

                          Input orientation:                          
 ---------------------------------------------------------------------
 Center     Atomic      Atomic             Coordinates (Angstroms)
 Number     Number       Type             X           Y           Z
[...]
     Eigenvalues ---    0.29840   0.32180   0.33030   0.33517   0.33608
     Eigenvalues ---    0.34095   0.34109   0.34858   0.44783   0.46826
     Eigenvalues ---    0.52739   0.57592   0.76222
 En-DIIS/RFO-DIIS IScMMF=        0 using points:    14   13   12   11   10
 RFO step:  Lambda=-8.16648486D-09.
 DidBck=F Rises=F RFO-DIIS coefs:    1.08176    0.03815   -0.28071    0.09925    0.06155
 Iteration  1 RMS(Cart)=  0.00019045 RMS(Int)=  0.00000002
 Iteration  2 RMS(Cart)=  0.00000003 RMS(Int)=  0.00000001
 Variable       Old X    -DE/DX   Delta X   Delta X   Delta X     New X
                                 (Linear)    (Quad)   (Total)
    R1        2.67267  -0.00001  -0.00002  -0.00001  -0.00003   2.67264
    R2        2.88656  -0.00001  -0.00005   0.00000  -0.00004   2.88652
    R3        2.09180   0.00000   0.00001   0.00000   0.00002   2.09182
    R4        2.09390   0.00000   0.00000   0.00001   0.00001   2.09391
    R5        1.79028   0.00001   0.00003  -0.00000   0.00003   1.79031
    R6        2.89123  -0.00001  -0.00006  -0.00003  -0.00008   2.89115
    R7        2.09433  -0.00000  -0.00002   0.00001  -0.00001   2.09432
    R8        2.09052   0.00001   0.00003   0.00001   0.00005   2.09057
    R9        2.64995   0.00001   0.00001   0.00000   0.00002   2.64997
   R10        2.08542  -0.00000  -0.00001  -0.00000  -0.00001   2.08541
   R11        2.09440  -0.00000  -0.00000  -0.00000  -0.00001   2.09440
   R12        1.81181  -0.00000   0.00001  -0.00001   0.00000   1.81181
    A1        1.87974   0.00001   0.00005   0.00000   0.00006   1.87980
    A2        1.91115  -0.00001  -0.00001  -0.00003  -0.00004   1.91112
    A3        1.92515   0.00000   0.00006   0.00003   0.00009   1.92524
    A4        1.93569  -0.00000  -0.00003   0.00000  -0.00003   1.93566
    A5        1.93613  -0.00001  -0.00004   0.00001  -0.00003   1.93610
    A6        1.87631   0.00000  -0.00004  -0.00001  -0.00005   1.87626
    A7        1.86550  -0.00000   0.00001  -0.00003  -0.00002   1.86548
    A8        1.95057   0.00004   0.00007   0.00005   0.00013   1.95070
    A9        1.92348  -0.00001  -0.00000  -0.00003  -0.00003   1.92345
   A10        1.90122  -0.00001  -0.00004  -0.00001  -0.00005   1.90116
   A11        1.92128  -0.00000   0.00006   0.00001   0.00007   1.92135
   A12        1.91313  -0.00001  -0.00003  -0.00004  -0.00007   1.91306
   A13        1.85143   0.00001  -0.00007   0.00001  -0.00006   1.85137
   A14        1.98035   0.00003   0.00003   0.00004   0.00007   1.98042
   A15        1.94650  -0.00001   0.00007  -0.00005   0.00003   1.94653
   A16        1.93057  -0.00002  -0.00009  -0.00001  -0.00010   1.93047
   A17        1.81613  -0.00001  -0.00011   0.00005  -0.00007   1.81607
   A18        1.90596  -0.00001   0.00006  -0.00005   0.00001   1.90597
   A19        1.87864   0.00001   0.00003   0.00003   0.00006   1.87870
   A20        1.86060   0.00001   0.00001   0.00001   0.00002   1.86062
    D1       -2.95073  -0.00000   0.00011   0.00027   0.00038  -2.95035
    D2        1.22600  -0.00000   0.00011   0.00028   0.00040   1.22640
    D3       -0.83550   0.00000   0.00013   0.00030   0.00043  -0.83507
    D4        1.06927   0.00001  -0.00033   0.00007  -0.00026   1.06901
    D5       -1.07297  -0.00000  -0.00045   0.00003  -0.00042  -1.07339
    D6       -3.09742   0.00001  -0.00035   0.00004  -0.00031  -3.09772
    D7       -3.12295   0.00001  -0.00032   0.00004  -0.00028  -3.12323
    D8        1.01800  -0.00000  -0.00045   0.00000  -0.00044   1.01755
    D9       -1.00645   0.00000  -0.00034   0.00001  -0.00033  -1.00678
   D10       -1.03909   0.00000  -0.00041   0.00003  -0.00039  -1.03947
   D11        3.10186  -0.00001  -0.00054  -0.00001  -0.00055   3.10131
   D12        1.07741  -0.00000  -0.00043  -0.00000  -0.00043   1.07697
   D13       -1.15243  -0.00000  -0.00005   0.00013   0.00008  -1.15235
   D14        3.08662  -0.00000   0.00002   0.00007   0.00010   3.08672
   D15        0.99642  -0.00000  -0.00001   0.00008   0.00007   0.99649
   D16        0.99107   0.00000   0.00004   0.00014   0.00018   0.99125
   D17       -1.05307   0.00000   0.00012   0.00009   0.00020  -1.05287
   D18        3.13991   0.00001   0.00008   0.00009   0.00017   3.14009
   D19        3.02118  -0.00000  -0.00002   0.00014   0.00011   3.02129
   D20        0.97704  -0.00000   0.00005   0.00008   0.00013   0.97717
   D21       -1.11316   0.00000   0.00002   0.00009   0.00010  -1.11306
   D22        0.68200   0.00000   0.00039  -0.00036   0.00003   0.68202
   D23        2.80087   0.00000   0.00042  -0.00037   0.00005   2.80093
   D24       -1.48031   0.00000   0.00043  -0.00034   0.00010  -1.48021
         Item               Value     Threshold  Converged?
 Maximum Force            0.000038     0.000450     YES
 RMS     Force            0.000010     0.000300     YES
 Maximum Displacement     0.000601     0.001800     YES
 RMS     Displacement     0.000190     0.001200     YES
 Predicted change in Energy=-9.969765D-09
 Optimization completed.
    -- Stationary point found.
                           ----------------------------
                           !   Optimized Parameters   !
                           ! (Angstroms and Degrees)  !
 --------------------------                            --------------------------
 ! Name  Definition              Value          Derivative Info.                !
 --------------------------------------------------------------------------------
 ! R1    R(1,2)                  1.4143         -DE/DX =    0.0                 !
 ! R2    R(1,3)                  1.5275         -DE/DX =    0.0                 !
 ! R3    R(1,6)                  1.1069         -DE/DX =    0.0                 !
 ! R4    R(1,7)                  1.108          -DE/DX =    0.0                 !
 ! R5    R(2,8)                  0.9474         -DE/DX =    0.0                 !
 ! R6    R(3,4)                  1.53           -DE/DX =    0.0                 !
 ! R7    R(3,9)                  1.1083         -DE/DX =    0.0                 !
 ! R8    R(3,10)                 1.1063         -DE/DX =    0.0                 !
 ! R9    R(4,5)                  1.4023         -DE/DX =    0.0                 !
 ! R10   R(4,11)                 1.1036         -DE/DX =    0.0                 !
 ! R11   R(4,12)                 1.1083         -DE/DX =    0.0                 !
 ! R12   R(5,13)                 0.9588         -DE/DX =    0.0                 !
 ! A1    A(2,1,3)              107.701          -DE/DX =    0.0                 !
 ! A2    A(2,1,6)              109.5009         -DE/DX =    0.0                 !
 ! A3    A(2,1,7)              110.3031         -DE/DX =    0.0                 !
 ! A4    A(3,1,6)              110.907          -DE/DX =    0.0                 !
 ! A5    A(3,1,7)              110.932          -DE/DX =    0.0                 !
 ! A6    A(6,1,7)              107.5045         -DE/DX =    0.0                 !
 ! A7    A(1,2,8)              106.8851         -DE/DX =    0.0                 !
 ! A8    A(1,3,4)              111.7594         -DE/DX =    0.0                 !
 ! A9    A(1,3,9)              110.207          -DE/DX =    0.0                 !
 ! A10   A(1,3,10)             108.9317         -DE/DX =    0.0                 !
 ! A11   A(4,3,9)              110.081          -DE/DX =    0.0                 !
 ! A12   A(4,3,10)             109.6143         -DE/DX =    0.0                 !
 ! A13   A(9,3,10)             106.0791         -DE/DX =    0.0                 !
 ! A14   A(3,4,5)              113.4657         -DE/DX =    0.0                 !
 ! A15   A(3,4,11)             111.5263         -DE/DX =    0.0                 !
 ! A16   A(3,4,12)             110.6133         -DE/DX =    0.0                 !
 ! A17   A(5,4,11)             104.0568         -DE/DX =    0.0                 !
 ! A18   A(5,4,12)             109.2035         -DE/DX =    0.0                 !
 ! A19   A(11,4,12)            107.638          -DE/DX =    0.0                 !
 ! A20   A(4,5,13)             106.6048         -DE/DX =    0.0                 !
 ! D1    D(3,1,2,8)           -169.0645         -DE/DX =    0.0                 !
 ! D2    D(6,1,2,8)             70.2445         -DE/DX =    0.0                 !
 ! D3    D(7,1,2,8)            -47.8705         -DE/DX =    0.0                 !
 ! D4    D(2,1,3,4)             61.2648         -DE/DX =    0.0                 !
 ! D5    D(2,1,3,9)            -61.4766         -DE/DX =    0.0                 !
 ! D6    D(2,1,3,10)          -177.469          -DE/DX =    0.0                 !
 ! D7    D(6,1,3,4)           -178.9316         -DE/DX =    0.0                 !
 ! D8    D(6,1,3,9)             58.327          -DE/DX =    0.0                 !
 ! D9    D(6,1,3,10)           -57.6653         -DE/DX =    0.0                 !
 ! D10   D(7,1,3,4)            -59.5354         -DE/DX =    0.0                 !
 ! D11   D(7,1,3,9)            177.7232         -DE/DX =    0.0                 !
 ! D12   D(7,1,3,10)            61.7309         -DE/DX =    0.0                 !
 ! D13   D(1,3,4,5)            -66.0292         -DE/DX =    0.0                 !
 ! D14   D(1,3,4,11)           176.8504         -DE/DX =    0.0                 !
 ! D15   D(1,3,4,12)            57.0905         -DE/DX =    0.0                 !
 ! D16   D(9,3,4,5)             56.7841         -DE/DX =    0.0                 !
 ! D17   D(9,3,4,11)           -60.3364         -DE/DX =    0.0                 !
 ! D18   D(9,3,4,12)           179.9038         -DE/DX =    0.0                 !
 ! D19   D(10,3,4,5)           173.1008         -DE/DX =    0.0                 !
 ! D20   D(10,3,4,11)           55.9803         -DE/DX =    0.0                 !
 ! D21   D(10,3,4,12)          -63.7795         -DE/DX =    0.0                 !
 ! D22   D(3,4,5,13)            39.0756         -DE/DX =    0.0                 !
 ! D23   D(11,4,5,13)          160.4782         -DE/DX =    0.0                 !
 ! D24   D(12,4,5,13)          -84.8154         -DE/DX =    0.0                 !
 --------------------------------------------------------------------------------
 GradGradGradGradGradGradGradGradGradGradGradGradGradGradGradGradGradGrad

                          Input orientation:                          
 ---------------------------------------------------------------------
 Center     Atomic      Atomic             Coordinates (Angstroms)
 Number     Number       Type             X           Y           Z
 ---------------------------------------------------------------------
      1          6           0        1.014958    2.061783    1.227009
      2          8           0        1.647557    3.178286    0.632424
      3          6           0        1.976613    0.878694    1.133298
      4          6           0        3.280903    1.146896    1.886766
      5          8           0        4.049620    2.175724    1.323724
      6          1           0        0.069396    1.845443    0.693711
      7          1           0        0.759489    2.281619    2.282550
      8          1           0        1.122894    3.937722    0.845743
      9          1           0        2.191794    0.643420    0.071878
     10          1           0        1.483552   -0.018660    1.552165
     11          1           0        3.949625    0.269332    1.863783
     12          1           0        3.075686    1.384983    2.949571
     13          1           0        3.434113    2.854158    1.040678
 ---------------------------------------------------------------------
                    Distance matrix (angstroms):
                    1          2          3          4          5
     1  C    0.000000
     2  O    1.414317   0.000000
     3  C    1.527502   2.376400   0.000000
     4  C    2.531167   2.892704   1.529973   0.000000
     5  O    3.038339   2.693126   2.452734   1.402294   0.000000
     6  H    1.106931   2.066596   2.182961   3.496445   4.043288
     7  H    1.108043   2.077400   2.184118   2.793165   3.428632
     8  H    1.917332   0.947375   3.188915   3.678239   3.449468
     9  H    2.175092   2.652537   1.108273   2.175653   2.714147
    10  H    2.157208   3.330658   1.106256   2.168167   3.384111
    11  H    3.497232   3.908679   2.190366   1.103556   1.983934
    12  H    2.769816   3.259549   2.182461   1.108311   2.053581
    13  H    2.552428   1.861051   2.456693   1.911566   0.958768
                    6          7          8          9         10
     6  H    0.000000
     7  H    1.786306   0.000000
     8  H    2.347467   2.222420   0.000000
     9  H    2.517163   3.101978   3.548780   0.000000
    10  H    2.492320   2.519725   4.035104   1.769521   0.000000
    11  H    4.348491   3.794948   4.741719   2.537880   2.502310
    12  H    3.786649   2.571701   3.841350   3.100371   2.541229
    13  H    3.529761   3.003940   2.560047   2.714645   3.509898
                   11         12         13
    11  H    0.000000
    12  H    1.785324   0.000000
    13  H    2.761265   2.435327   0.000000
 Stoichiometry    C3H8O2
 Framework group  C1[X(C3H8O2)]
 Deg. of freedom    33
 Full point group                 C1      NOp   1
 Largest Abelian subgroup         C1      NOp   1
 Largest concise Abelian subgroup C1      NOp   1
                         Standard orientation:                         
 ---------------------------------------------------------------------
 Center     Atomic      Atomic             Coordinates (Angstroms)
 Number     Number       Type             X           Y           Z
 ---------------------------------------------------------------------
      1          6           0        1.258016    0.461479    0.214904
      2          8           0        1.279888   -0.907907   -0.138077
      3          6           0       -0.033422    1.062658   -0.336490
      4          6           0       -1.271782    0.394104    0.263773
      5          8           0       -1.412646   -0.952056   -0.102887
      6          1           0        2.144032    0.967812   -0.213931
      7          1           0        1.309292    0.575598    1.315862
      8          1           0        1.988840   -1.306096    0.348084
      9          1           0       -0.053540    0.978700   -1.441395
     10          1           0       -0.050035    2.145593   -0.111150
     11          1           0       -2.201677    0.868206   -0.094498
     12          1           0       -1.259744    0.471474    1.369315
     13          1           0       -0.531973   -1.331035   -0.097698
 ---------------------------------------------------------------------
 Rotational constants (GHZ):      7.6616922      4.1153921      2.9636100

 **********************************************************************

            Population analysis using the SCF density.

 **********************************************************************

 Orbital symmetries:
       Occupied  (A) (A) (A) (A) (A) (A) (A) (A) (A) (A) (A) (A)
                 (A) (A) (A) (A)
       Virtual   (A) (A) (A) (A) (A) (A) (A) (A) (A) (A) (A) (A)
 The electronic state is 1-A.
 Alpha  occ. eigenvalues --   -1.48881  -1.34539  -1.16844  -0.92068  -0.78125
 Alpha  occ. eigenvalues --   -0.68489  -0.65533  -0.58477  -0.57881  -0.55567
 Alpha  occ. eigenvalues --   -0.52604  -0.49210  -0.48122  -0.44214  -0.41025
 Alpha  occ. eigenvalues --   -0.39106
 Alpha virt. eigenvalues --    0.10421   0.11939   0.12315   0.13418   0.13818
 Alpha virt. eigenvalues --    0.14679   0.15287   0.16861   0.17288   0.17843
 Alpha virt. eigenvalues --    0.19394   0.22890
          Condensed to atoms (all electrons):
               1          2          3          4          5          6
     1  C    3.926066   0.000000   0.000000   0.000000   0.000000   0.000000
     2  O    0.000000   6.319611   0.000000   0.000000   0.000000   0.000000
     3  C    0.000000   0.000000   4.159894   0.000000   0.000000   0.000000
     4  C    0.000000   0.000000   0.000000   3.919203   0.000000   0.000000
     5  O    0.000000   0.000000   0.000000   0.000000   6.340766   0.000000
     6  H    0.000000   0.000000   0.000000   0.000000   0.000000   0.971899
     7  H    0.000000   0.000000   0.000000   0.000000   0.000000   0.000000
     8  H    0.000000   0.000000   0.000000   0.000000   0.000000   0.000000
     9  H    0.000000   0.000000   0.000000   0.000000   0.000000   0.000000
    10  H    0.000000   0.000000   0.000000   0.000000   0.000000   0.000000
    11  H    0.000000   0.000000   0.000000   0.000000   0.000000   0.000000
    12  H    0.000000   0.000000   0.000000   0.000000   0.000000   0.000000
    13  H    0.000000   0.000000   0.000000   0.000000   0.000000   0.000000
               7          8          9         10         11         12
     1  C    0.000000   0.000000   0.000000   0.000000   0.000000   0.000000
     2  O    0.000000   0.000000   0.000000   0.000000   0.000000   0.000000
     3  C    0.000000   0.000000   0.000000   0.000000   0.000000   0.000000
     4  C    0.000000   0.000000   0.000000   0.000000   0.000000   0.000000
     5  O    0.000000   0.000000   0.000000   0.000000   0.000000   0.000000
     6  H    0.000000   0.000000   0.000000   0.000000   0.000000   0.000000
     7  H    0.974629   0.000000   0.000000   0.000000   0.000000   0.000000
     8  H    0.000000   0.806108   0.000000   0.000000   0.000000   0.000000
     9  H    0.000000   0.000000   0.926175   0.000000   0.000000   0.000000
    10  H    0.000000   0.000000   0.000000   0.938343   0.000000   0.000000
    11  H    0.000000   0.000000   0.000000   0.000000   0.953309   0.000000
    12  H    0.000000   0.000000   0.000000   0.000000   0.000000   0.980107
    13  H    0.000000   0.000000   0.000000   0.000000   0.000000   0.000000
              13
     1  C    0.000000
     2  O    0.000000
     3  C    0.000000
     4  C    0.000000
     5  O    0.000000
     6  H    0.000000
     7  H    0.000000
     8  H    0.000000
     9  H    0.000000
    10  H    0.000000
    11  H    0.000000
    12  H    0.000000
    13  H    0.783890
 Mulliken charges:
               1
     1  C    0.073934
     2  O   -0.319611
     3  C   -0.159894
     4  C    0.080797
     5  O   -0.340766
     6  H    0.028101
     7  H    0.025371
     8  H    0.193892
     9  H    0.073825
    10  H    0.061657
    11  H    0.046691
    12  H    0.019893
    13  H    0.216110
 Sum of Mulliken charges =   0.00000
 Mulliken charges with hydrogens summed into heavy atoms:
               1
     1  C    0.127405
     2  O   -0.125718
     3  C   -0.024413
     4  C    0.147381
     5  O   -0.124655
 Charge=              0.0000 electrons
 Dipole moment (field-independent basis, Debye):
    X=              2.5505    Y=              1.3921    Z=              1.2115  Tot=              3.1481
 N-N= 1.386482197932D+02 E-N=-2.320199800057D+02  KE=-2.258898200237D+01
 1\1\GINC-GTX1080DELTA\FOpt\RPM3\ZDO\C3H8O2\MVEROT\17-Apr-2022\0\\#n PM
 3 Opt\\Optimisation de geometrie\\0,1\C,1.0149581292,2.0617829106,1.22
 700873\O,1.6475573595,3.178286014,0.632424247\C,1.9766134228,0.8786939
 489,1.1332981995\C,3.2809031906,1.1468958679,1.886766098\O,4.049619524
 2,2.1757240431,1.3237239973\H,0.0693961116,1.8454431715,0.6937107159\H
 ,0.759488995,2.2816194569,2.2825500562\H,1.1228935837,3.9377218226,0.8
 457429416\H,2.1917936889,0.6434195435,0.0718778938\H,1.48355233,-0.018
 6596435,1.552165049\H,3.9496246873,0.2693317716,1.8637829311\H,3.07568
 63777,1.3849827346,2.9495707415\H,3.4341125996,2.8541583581,1.04067839
 9\\Version=AM64L-G09RevD.01\State=1-A\HF=-0.1631105\RMSD=6.557e-09\RMS
 F=1.070e-05\Dipole=-1.1993801,0.0400009,0.3064858\PG=C01 [X(C3H8O2)]\\
 @


 WHEN ALL ELSE FAILS, TRY THE BOSS'S SUGGESTION.
 Job cpu time:       0 days  0 hours  0 minutes  7.8 seconds.
 File lengths (MBytes):  RWF=     72 Int=      0 D2E=      0 Chk=      2 Scr=      2
 Normal termination of Gaussian 09 at Sun Apr 17 23:23:10 2022.
