 Entering Gaussian System, Link 0=g09
 Input=/scratch/mverot/1-3-propanediol-opt/1-3-propanediol-opt.com
 Output=/scratch/mverot/1-3-propanediol-opt/1-3-propanediol-opt.log
 Initial command:
 /opt/g09/l1.exe "/scratch/mverot/1-3-propanediol-opt/Gau-1474159.inp" -scrdir="/scratch/mverot/1-3-propanediol-opt/"
 Entering Link 1 = /opt/g09/l1.exe PID=   1474161.
  
 Copyright (c) 1988,1990,1992,1993,1995,1998,2003,2009,2013,
            Gaussian, Inc.  All Rights Reserved.
  
 This is part of the Gaussian(R) 09 program.  It is based on
 the Gaussian(R) 03 system (copyright 2003, Gaussian, Inc.),
 the Gaussian(R) 98 system (copyright 1998, Gaussian, Inc.),
 the Gaussian(R) 94 system (copyright 1995, Gaussian, Inc.),
 the Gaussian 92(TM) system (copyright 1992, Gaussian, Inc.),
 the Gaussian 90(TM) system (copyright 1990, Gaussian, Inc.),
 the Gaussian 88(TM) system (copyright 1988, Gaussian, Inc.),
 the Gaussian 86(TM) system (copyright 1986, Carnegie Mellon
 University), and the Gaussian 82(TM) system (copyright 1983,
 Carnegie Mellon University). Gaussian is a federally registered
 trademark of Gaussian, Inc.
  
 This software contains proprietary and confidential information,
 including trade secrets, belonging to Gaussian, Inc.
  
 This software is provided under written license and may be
 used, copied, transmitted, or stored only in accord with that
 written license.
  
 The following legend is applicable only to US Government
 contracts under FAR:
  
                    RESTRICTED RIGHTS LEGEND
  
 Use, reproduction and disclosure by the US Government is
 subject to restrictions as set forth in subparagraphs (a)
 and (c) of the Commercial Computer Software - Restricted
 Rights clause in FAR 52.227-19.
  
 Gaussian, Inc.
 340 Quinnipiac St., Bldg. 40, Wallingford CT 06492
  
  
 ---------------------------------------------------------------
 Warning -- This program may not be used in any manner that
 competes with the business of Gaussian, Inc. or will provide
 assistance to any competitor of Gaussian, Inc.  The licensee
 of this program is prohibited from giving any competitor of
 Gaussian, Inc. access to this program.  By using this program,
 the user acknowledges that Gaussian, Inc. is engaged in the
 business of creating and licensing software in the field of
 computational chemistry and represents and warrants to the
 licensee that it is not a competitor of Gaussian, Inc. and that
 it will not use this program in any manner prohibited above.
 ---------------------------------------------------------------
  

 Cite this work as:
 Gaussian 09, Revision D.01,
 M. J. Frisch, G. W. Trucks, H. B. Schlegel, G. E. Scuseria, 
 M. A. Robb, J. R. Cheeseman, G. Scalmani, V. Barone, B. Mennucci, 
 G. A. Petersson, H. Nakatsuji, M. Caricato, X. Li, H. P. Hratchian, 
 A. F. Izmaylov, J. Bloino, G. Zheng, J. L. Sonnenberg, M. Hada, 
 M. Ehara, K. Toyota, R. Fukuda, J. Hasegawa, M. Ishida, T. Nakajima, 
 Y. Honda, O. Kitao, H. Nakai, T. Vreven, J. A. Montgomery, Jr., 
 J. E. Peralta, F. Ogliaro, M. Bearpark, J. J. Heyd, E. Brothers, 
 K. N. Kudin, V. N. Staroverov, T. Keith, R. Kobayashi, J. Normand, 
 K. Raghavachari, A. Rendell, J. C. Burant, S. S. Iyengar, J. Tomasi, 
 M. Cossi, N. Rega, J. M. Millam, M. Klene, J. E. Knox, J. B. Cross, 
 V. Bakken, C. Adamo, J. Jaramillo, R. Gomperts, R. E. Stratmann, 
 O. Yazyev, A. J. Austin, R. Cammi, C. Pomelli, J. W. Ochterski, 
 R. L. Martin, K. Morokuma, V. G. Zakrzewski, G. A. Voth, 
 P. Salvador, J. J. Dannenberg, S. Dapprich, A. D. Daniels, 
 O. Farkas, J. B. Foresman, J. V. Ortiz, J. Cioslowski, 
 and D. J. Fox, Gaussian, Inc., Wallingford CT, 2013.
 
 ******************************************
 Gaussian 09:  AM64L-G09RevD.01 24-Apr-2013
                17-Apr-2022 
 ******************************************
 %chk=1-3-propanediol-opt
 ---------------
 # hf/6-31G* opt
 ---------------
 1/18=20,19=15,38=1/1,3;
 2/9=110,12=2,17=6,18=5,40=1/2;
 3/5=1,6=6,7=1,11=9,16=1,25=1,30=1,71=1/1,2,3;
 4//1;
 5/5=2,38=5/2;
 6/7=2,8=2,9=2,10=2,28=1/1;
 7//1,2,3,16;
 1/18=20,19=15/3(2);
 2/9=110/2;
 99//99;
 2/9=110/2;
 3/5=1,6=6,7=1,11=9,16=1,25=1,30=1,71=1/1,2,3;
 4/5=5,16=3,69=1/1;
 5/5=2,38=5/2;
 7//1,2,3,16;
 1/18=20,19=15/3(-5);
 2/9=110/2;
 6/7=2,8=2,9=2,10=2,19=2,28=1/1;
 99/9=1/99;
 -------------------------
 Optimisation de geometrie
 -------------------------
 Symbolic Z-matrix:
 Charge =  0 Multiplicity = 1
 C                     1.0003    2.0505    1.2298 
 O                     1.6167    3.2158    0.6619 
 C                     1.9842    0.8895    1.1354 
 C                     3.2981    1.1469    1.8851 
 O                     4.1136    2.1208    1.2591 
 H                     0.0703    1.8109    0.6924 
 H                     0.7421    2.2317    2.2855 
 H                     1.0489    3.9812    0.8361 
 H                     2.2102    0.6867    0.0812 
 H                     1.4929   -0.0037    1.5453 
 H                     3.8898    0.225     1.9226 
 H                     3.0683    1.4232    2.9315 
 H                     3.5208    2.8609    1.0374 
 

 GradGradGradGradGradGradGradGradGradGradGradGradGradGradGradGradGradGrad
 Berny optimization.
 Initialization pass.
                           ----------------------------
                           !    Initial Parameters    !
                           ! (Angstroms and Degrees)  !
 --------------------------                            --------------------------
 ! Name  Definition              Value          Derivative Info.                !
 --------------------------------------------------------------------------------
 ! R1    R(1,2)                  1.4354         estimate D2E/DX2                !
 ! R2    R(1,3)                  1.5248         estimate D2E/DX2                !
 ! R3    R(1,6)                  1.1005         estimate D2E/DX2                !
 ! R4    R(1,7)                  1.1018         estimate D2E/DX2                !
 ! R5    R(2,8)                  0.9688         estimate D2E/DX2                !
 ! R6    R(3,4)                  1.5345         estimate D2E/DX2                !
 ! R7    R(3,9)                  1.0971         estimate D2E/DX2                !
 ! R8    R(3,10)                 1.0987         estimate D2E/DX2                !
 ! R9    R(4,5)                  1.4161         estimate D2E/DX2                !
 ! R10   R(4,11)                 1.0961         estimate D2E/DX2                !
 ! R11   R(4,12)                 1.1064         estimate D2E/DX2                !
 ! R12   R(5,13)                 0.9738         estimate D2E/DX2                !
 ! A1    A(2,1,3)              108.4547         estimate D2E/DX2                !
 ! A2    A(2,1,6)              110.2701         estimate D2E/DX2                !
 ! A3    A(2,1,7)              110.2551         estimate D2E/DX2                !
 ! A4    A(3,1,6)              110.4443         estimate D2E/DX2                !
 ! A5    A(3,1,7)              109.6186         estimate D2E/DX2                !
 ! A6    A(6,1,7)              107.7975         estimate D2E/DX2                !
 ! A7    A(1,2,8)              108.576          estimate D2E/DX2                !
 ! A8    A(1,3,4)              113.2378         estimate D2E/DX2                !
 ! A9    A(1,3,9)              109.4619         estimate D2E/DX2                !
 ! A10   A(1,3,10)             107.9003         estimate D2E/DX2                !
 ! A11   A(4,3,9)              108.9109         estimate D2E/DX2                !
 ! A12   A(4,3,10)             109.6925         estimate D2E/DX2                !
 ! A13   A(9,3,10)             107.4775         estimate D2E/DX2                !
 ! A14   A(3,4,5)              113.1086         estimate D2E/DX2                !
 ! A15   A(3,4,11)             109.7463         estimate D2E/DX2                !
 ! A16   A(3,4,12)             109.0336         estimate D2E/DX2                !
 ! A17   A(5,4,11)             106.4205         estimate D2E/DX2                !
 ! A18   A(5,4,12)             111.4659         estimate D2E/DX2                !
 ! A19   A(11,4,12)            106.8466         estimate D2E/DX2                !
 ! A20   A(4,5,13)             105.8283         estimate D2E/DX2                !
 ! D1    D(3,1,2,8)           -171.8373         estimate D2E/DX2                !
 ! D2    D(6,1,2,8)             67.1123         estimate D2E/DX2                !
 ! D3    D(7,1,2,8)            -51.8083         estimate D2E/DX2                !
 ! D4    D(2,1,3,4)             60.0254         estimate D2E/DX2                !
 ! D5    D(2,1,3,9)            -61.6978         estimate D2E/DX2                !
 ! D6    D(2,1,3,10)          -178.3692         estimate D2E/DX2                !
 ! D7    D(6,1,3,4)           -179.0318         estimate D2E/DX2                !
 ! D8    D(6,1,3,9)             59.2449         estimate D2E/DX2                !
 ! D9    D(6,1,3,10)           -57.4264         estimate D2E/DX2                !
 ! D10   D(7,1,3,4)            -60.3999         estimate D2E/DX2                !
 ! D11   D(7,1,3,9)            177.8768         estimate D2E/DX2                !
 ! D12   D(7,1,3,10)            61.2055         estimate D2E/DX2                !
 ! D13   D(1,3,4,5)            -70.6852         estimate D2E/DX2                !
 ! D14   D(1,3,4,11)           170.6476         estimate D2E/DX2                !
 ! D15   D(1,3,4,12)            53.9321         estimate D2E/DX2                !
 ! D16   D(9,3,4,5)             51.3464         estimate D2E/DX2                !
 ! D17   D(9,3,4,11)           -67.3209         estimate D2E/DX2                !
 ! D18   D(9,3,4,12)           175.9636         estimate D2E/DX2                !
 ! D19   D(10,3,4,5)           168.7207         estimate D2E/DX2                !
 ! D20   D(10,3,4,11)           50.0534         estimate D2E/DX2                !
 ! D21   D(10,3,4,12)          -66.6621         estimate D2E/DX2                !
 ! D22   D(3,4,5,13)            46.2397         estimate D2E/DX2                !
 ! D23   D(11,4,5,13)          166.8172         estimate D2E/DX2                !
 ! D24   D(12,4,5,13)          -77.0447         estimate D2E/DX2                !
 --------------------------------------------------------------------------------
 Trust Radius=3.00D-01 FncErr=1.00D-07 GrdErr=1.00D-07
 Number of steps in this run=     66 maximum allowed number of steps=    100.
 GradGradGradGradGradGradGradGradGradGradGradGradGradGradGradGradGradGrad

                          Input orientation:                          
 ---------------------------------------------------------------------
 Center     Atomic      Atomic             Coordinates (Angstroms)
 Number     Number       Type             X           Y           Z
 ---------------------------------------------------------------------
      1          6           0        1.000300    2.050500    1.229800
      2          8           0        1.616700    3.215800    0.661900
      3          6           0        1.984200    0.889500    1.135400
      4          6           0        3.298100    1.146900    1.885100
      5          8           0        4.113600    2.120800    1.259100
      6          1           0        0.070300    1.810900    0.692400
      7          1           0        0.742100    2.231700    2.285500
      8          1           0        1.048900    3.981200    0.836100
      9          1           0        2.210200    0.686700    0.081200
     10          1           0        1.492900   -0.003700    1.545300
     11          1           0        3.889800    0.225000    1.922600
     12          1           0        3.068300    1.423200    2.931500
     13          1           0        3.520800    2.860900    1.037400
 ---------------------------------------------------------------------
                    Distance matrix (angstroms):
                    1          2          3          4          5
     1  C    0.000000
     2  O    1.435404   0.000000
     3  C    1.524760   2.402276   0.000000
     4  C    2.554564   2.933202   1.534483   0.000000
     5  O    3.114231   2.791090   2.462873   1.416121   0.000000
     6  H    1.100503   2.089504   2.169848   3.504586   4.094565
     7  H    1.101818   2.090324   2.160334   2.805396   3.526019
     8  H    1.971031   0.968803   3.243914   3.767301   3.610042
     9  H    2.154783   2.661917   1.097060   2.156239   2.658387
    10  H    2.135868   3.340794   1.098727   2.167508   3.385776
    11  H    3.487353   3.962478   2.166231   1.096091   2.020984
    12  H    2.750620   3.235992   2.164736   1.106392   2.091942
    13  H    2.654560   1.972955   2.501432   1.925094   0.973812
                    6          7          8          9         10
     6  H    0.000000
     7  H    1.779426   0.000000
     8  H    2.385060   2.292518   0.000000
     9  H    2.493304   3.066151   3.573825   0.000000
    10  H    2.458455   2.471560   4.071797   1.770525   0.000000
    11  H    4.314748   3.750541   4.833243   2.534754   2.437168
    12  H    3.761899   2.546015   3.874538   3.066428   2.537613
    13  H    3.623186   3.110437   2.721375   2.712773   3.546304
                   11         12         13
    11  H    0.000000
    12  H    1.768735   0.000000
    13  H    2.804944   2.420610   0.000000
 Stoichiometry    C3H8O2
 Framework group  C1[X(C3H8O2)]
 Deg. of freedom    33
 Full point group                 C1      NOp   1
 Largest Abelian subgroup         C1      NOp   1
 Largest concise Abelian subgroup C1      NOp   1
                         Standard orientation:                         
 ---------------------------------------------------------------------
 Center     Atomic      Atomic             Coordinates (Angstroms)
 Number     Number       Type             X           Y           Z
 ---------------------------------------------------------------------
      1          6           0        1.279122    0.476932    0.183540
      2          8           0        1.313242   -0.929184   -0.102915
      3          6           0       -0.033396    1.045416   -0.344677
      4          6           0       -1.272035    0.399497    0.290304
      5          8           0       -1.477722   -0.937696   -0.128032
      6          1           0        2.134825    0.983046   -0.288400
      7          1           0        1.345017    0.646545    1.270229
      8          1           0        2.081408   -1.316380    0.342709
      9          1           0       -0.079373    0.909092   -1.432263
     10          1           0       -0.037080    2.126234   -0.147141
     11          1           0       -2.170198    0.956633   -0.000073
     12          1           0       -1.192079    0.471487    1.391452
     13          1           0       -0.608824   -1.372689   -0.063945
 ---------------------------------------------------------------------
 Rotational constants (GHZ):      7.6403067      3.9465992      2.8720686
 Standard basis: 6-31G(d) (6D, 7F)
 There are    91 symmetry adapted cartesian basis functions of A   symmetry.
 There are    91 symmetry adapted basis functions of A   symmetry.
    91 basis functions,   172 primitive gaussians,    91 cartesian basis functions
    21 alpha electrons       21 beta electrons
       nuclear repulsion energy       194.4496110723 Hartrees.
 NAtoms=   13 NActive=   13 NUniq=   13 SFac= 1.00D+00 NAtFMM=   60 NAOKFM=F Big=F
 Integral buffers will be    131072 words long.
 Raffenetti 1 integral format.
 Two-electron integral symmetry is turned on.
 One-electron integrals computed using PRISM.
 NBasis=    91 RedAO= T EigKep=  5.15D-03  NBF=    91
 NBsUse=    91 1.00D-06 EigRej= -1.00D+00 NBFU=    91
 ExpMin= 1.61D-01 ExpMax= 5.48D+03 ExpMxC= 8.25D+02 IAcc=1 IRadAn=         1 AccDes= 0.00D+00
 Harris functional with IExCor=  205 and IRadAn=       1 diagonalized for initial guess.
 HarFok:  IExCor=  205 AccDes= 0.00D+00 IRadAn=         1 IDoV= 1 UseB2=F ITyADJ=14
 ICtDFT=  3500011 ScaDFX=  1.000000  1.000000  1.000000  1.000000
 FoFCou: FMM=F IPFlag=           0 FMFlag=      100000 FMFlg1=           0
         NFxFlg=           0 DoJE=T BraDBF=F KetDBF=T FulRan=T
         wScrn=  0.000000 ICntrl=     500 IOpCl=  0 I1Cent=   200000004 NGrid=           0
         NMat0=    1 NMatS0=      1 NMatT0=    0 NMatD0=    1 NMtDS0=    0 NMtDT0=    0
 Petite list used in FoFCou.
 Keep R1 ints in memory in canonical form, NReq=9680935.
 Requested convergence on RMS density matrix=1.00D-08 within 128 cycles.
 Requested convergence on MAX density matrix=1.00D-06.
 Requested convergence on             energy=1.00D-06.
 No special actions if energy rises.
 SCF Done:  E(RHF) =  -267.958198111     A.U. after   12 cycles
            NFock= 12  Conv=0.57D-08     -V/T= 2.0025

 **********************************************************************

            Population analysis using the SCF density.

 **********************************************************************

 Orbital symmetries:
       Occupied  (A) (A) (A) (A) (A) (A) (A) (A) (A) (A) (A) (A)
                 (A) (A) (A) (A) (A) (A) (A) (A) (A)
       Virtual   (A) (A) (A) (A) (A) (A) (A) (A) (A) (A) (A) (A)
                 (A) (A) (A) (A) (A) (A) (A) (A) (A) (A) (A) (A)
                 (A) (A) (A) (A) (A) (A) (A) (A) (A) (A) (A) (A)
                 (A) (A) (A) (A) (A) (A) (A) (A) (A) (A) (A) (A)
                 (A) (A) (A) (A) (A) (A) (A) (A) (A) (A) (A) (A)
                 (A) (A) (A) (A) (A) (A) (A) (A) (A) (A)
 The electronic state is 1-A.
 Alpha  occ. eigenvalues --  -20.58270 -20.53352 -11.29189 -11.26746 -11.22780
 Alpha  occ. eigenvalues --   -1.37329  -1.33023  -1.04577  -0.90897  -0.80723
 Alpha  occ. eigenvalues --   -0.71809  -0.68487  -0.62315  -0.59670  -0.59473
 Alpha  occ. eigenvalues --   -0.56140  -0.52465  -0.51075  -0.47235  -0.44347
 Alpha  occ. eigenvalues --   -0.41804
 Alpha virt. eigenvalues --    0.20353   0.25020   0.28364   0.29309   0.31101
 Alpha virt. eigenvalues --    0.31500   0.32865   0.34655   0.37896   0.39376
 Alpha virt. eigenvalues --    0.44779   0.45698   0.73291   0.73710   0.78394
 Alpha virt. eigenvalues --    0.79941   0.81956   0.89531   0.92336   0.95512
 Alpha virt. eigenvalues --    1.06061   1.08349   1.09045   1.10395   1.11639
 Alpha virt. eigenvalues --    1.15161   1.16822   1.19173   1.19949   1.21999
 Alpha virt. eigenvalues --    1.23731   1.28198   1.35151   1.36951   1.45497
 Alpha virt. eigenvalues --    1.49635   1.57176   1.66047   1.68840   1.78256
 Alpha virt. eigenvalues --    1.83501   1.91058   1.95484   1.96779   2.05645
 Alpha virt. eigenvalues --    2.08121   2.15519   2.22208   2.24490   2.31000
 Alpha virt. eigenvalues --    2.34895   2.45244   2.47531   2.53284   2.61333
 Alpha virt. eigenvalues --    2.66496   2.71077   2.75904   2.77448   2.85509
 Alpha virt. eigenvalues --    2.87935   2.98737   3.02048   3.18880   3.22675
 Alpha virt. eigenvalues --    4.19418   4.24284   4.59973   4.77870   4.91502
          Condensed to atoms (all electrons):
               1          2          3          4          5          6
     1  C    4.827188   0.190286   0.346570  -0.049481  -0.000021   0.403841
     2  O    0.190286   8.424657  -0.056482   0.006132  -0.010841  -0.035882
     3  C    0.346570  -0.056482   5.196762   0.335966  -0.046424  -0.043251
     4  C   -0.049481   0.006132   0.335966   4.747619   0.232777   0.004644
     5  O   -0.000021  -0.010841  -0.046424   0.232777   8.413339  -0.000158
     6  H    0.403841  -0.035882  -0.043251   0.004644  -0.000158   0.561747
     7  H    0.393442  -0.037752  -0.041581  -0.006991   0.000087  -0.042261
     8  H   -0.020405   0.257559   0.005420  -0.000224   0.000374  -0.001939
     9  H   -0.040898   0.001420   0.389021  -0.038868   0.002334  -0.004263
    10  H   -0.041348   0.002710   0.380469  -0.032019   0.002904  -0.001287
    11  H    0.004587  -0.000088  -0.041049   0.410406  -0.038460  -0.000084
    12  H   -0.008019   0.000218  -0.056114   0.390483  -0.040109  -0.000092
    13  H   -0.000343   0.021232  -0.006898  -0.026038   0.254258   0.000252
               7          8          9         10         11         12
     1  C    0.393442  -0.020405  -0.040898  -0.041348   0.004587  -0.008019
     2  O   -0.037752   0.257559   0.001420   0.002710  -0.000088   0.000218
     3  C   -0.041581   0.005420   0.389021   0.380469  -0.041049  -0.056114
     4  C   -0.006991  -0.000224  -0.038868  -0.032019   0.410406   0.390483
     5  O    0.000087   0.000374   0.002334   0.002904  -0.038460  -0.040109
     6  H   -0.042261  -0.001939  -0.004263  -0.001287  -0.000084  -0.000092
     7  H    0.584020  -0.004357   0.004653  -0.000361  -0.000141   0.003779
     8  H   -0.004357   0.315601  -0.000150  -0.000153   0.000010  -0.000038
     9  H    0.004653  -0.000150   0.517822  -0.021313  -0.003767   0.005022
    10  H   -0.000361  -0.000153  -0.021313   0.550446  -0.002389   0.001970
    11  H   -0.000141   0.000010  -0.003767  -0.002389   0.542761  -0.041226
    12  H    0.003779  -0.000038   0.005022   0.001970  -0.041226   0.619613
    13  H    0.000172  -0.000275   0.000079  -0.000024   0.004563  -0.001659
              13
     1  C   -0.000343
     2  O    0.021232
     3  C   -0.006898
     4  C   -0.026038
     5  O    0.254258
     6  H    0.000252
     7  H    0.000172
     8  H   -0.000275
     9  H    0.000079
    10  H   -0.000024
    11  H    0.004563
    12  H   -0.001659
    13  H    0.274192
 Mulliken charges:
               1
     1  C   -0.005399
     2  O   -0.763171
     3  C   -0.362408
     4  C    0.025595
     5  O   -0.770060
     6  H    0.158733
     7  H    0.147291
     8  H    0.448578
     9  H    0.188908
    10  H    0.160395
    11  H    0.164878
    12  H    0.126172
    13  H    0.480489
 Sum of Mulliken charges =   0.00000
 Mulliken charges with hydrogens summed into heavy atoms:
               1
     1  C    0.300625
     2  O   -0.314593
     3  C   -0.013105
     4  C    0.316645
     5  O   -0.289571
 Electronic spatial extent (au):  <R**2>=            461.3875
 Charge=              0.0000 electrons
 Dipole moment (field-independent basis, Debye):
    X=              3.2742    Y=              1.6808    Z=              1.4511  Tot=              3.9561
 Quadrupole moment (field-independent basis, Debye-Ang):
   XX=            -30.9045   YY=            -30.5626   ZZ=            -31.8323
   XY=             -4.6553   XZ=              1.4276   YZ=             -1.5428
 Traceless Quadrupole moment (field-independent basis, Debye-Ang):
   XX=              0.1953   YY=              0.5372   ZZ=             -0.7325
   XY=             -4.6553   XZ=              1.4276   YZ=             -1.5428
 Octapole moment (field-independent basis, Debye-Ang**2):
  XXX=             20.7793  YYY=            -10.8193  ZZZ=             -0.1648  XYY=              6.5874
  XXY=             -0.6212  XXZ=              4.5385  XZZ=              1.3352  YZZ=             -2.2016
  YYZ=              1.6849  XYZ=             -2.0600
 Hexadecapole moment (field-independent basis, Debye-Ang**3):
 XXXX=           -304.4377 YYYY=           -167.2124 ZZZZ=            -61.4790 XXXY=            -31.7188
 XXXZ=              7.3724 YYYX=            -10.0385 YYYZ=             -0.7602 ZZZX=              1.8669
 ZZZY=             -0.3686 XXYY=            -79.6805 XXZZ=            -66.0697 YYZZ=            -41.4237
 XXYZ=             -6.8463 YYXZ=              3.4623 ZZXY=             -1.2943
 N-N= 1.944496110723D+02 E-N=-1.019068426920D+03  KE= 2.672868923352D+02
 Calling FoFJK, ICntrl=      2127 FMM=F ISym2X=0 I1Cent= 0 IOpClX= 0 NMat=1 NMatS=1 NMatT=0.
 ***** Axes restored to original set *****
 -------------------------------------------------------------------
 Center     Atomic                   Forces (Hartrees/Bohr)
 Number     Number              X              Y              Z
 -------------------------------------------------------------------
      1        6          -0.001090362    0.005534305   -0.001409842
      2        8          -0.024321933    0.005727555    0.012610875
      3        6           0.000779294   -0.003127180   -0.004417915
      4        6           0.007569672   -0.000780176    0.002946293
      5        8          -0.027715010    0.008301859    0.002839760
      6        1           0.008804720    0.003352838    0.004026736
      7        1           0.002539785    0.000039127   -0.009653054
      8        1           0.014213881   -0.017058207   -0.005390593
      9        1          -0.001920230    0.001572837    0.007588670
     10        1           0.004015130    0.006152527   -0.002289703
     11        1          -0.005043369    0.007809986   -0.000626039
     12        1           0.003537465   -0.000745692   -0.010114871
     13        1           0.018630957   -0.016779779    0.003889683
 -------------------------------------------------------------------
 Cartesian Forces:  Max     0.027715010 RMS     0.009411481

 GradGradGradGradGradGradGradGradGradGradGradGradGradGradGradGradGradGrad
 Berny optimization.
 FormGI is forming the generalized inverse of G from B-inverse, IUseBI=4.
 Internal  Forces:  Max     0.024979643 RMS     0.006414362
 Search for a local minimum.
 Step number   1 out of a maximum of   66
 All quantities printed in internal units (Hartrees-Bohrs-Radians)
 Mixed Optimization -- RFO/linear search
 Second derivative matrix not updated -- first step.
 ITU=  0
     Eigenvalues ---    0.00310   0.00438   0.01223   0.01479   0.03522
     Eigenvalues ---    0.04700   0.04853   0.05263   0.05833   0.05912
     Eigenvalues ---    0.08401   0.11134   0.11726   0.12250   0.13653
     Eigenvalues ---    0.14030   0.16000   0.16000   0.21957   0.21979
     Eigenvalues ---    0.22027   0.29013   0.29913   0.32985   0.33482
     Eigenvalues ---    0.33627   0.33823   0.34009   0.34118   0.40223
     Eigenvalues ---    0.43050   0.52605   0.53622
 RFO step:  Lambda=-6.07049143D-03 EMin= 3.09803529D-03
 Linear search not attempted -- first point.
 Iteration  1 RMS(Cart)=  0.05498509 RMS(Int)=  0.00158169
 Iteration  2 RMS(Cart)=  0.00180753 RMS(Int)=  0.00007676
 Iteration  3 RMS(Cart)=  0.00000359 RMS(Int)=  0.00007674
 Iteration  4 RMS(Cart)=  0.00000000 RMS(Int)=  0.00007674
 Variable       Old X    -DE/DX   Delta X   Delta X   Delta X     New X
                                 (Linear)    (Quad)   (Total)
    R1        2.71252  -0.01640   0.00000  -0.04016  -0.04016   2.67236
    R2        2.88138  -0.00191   0.00000  -0.00627  -0.00627   2.87511
    R3        2.07965  -0.01014   0.00000  -0.02961  -0.02961   2.05004
    R4        2.08213  -0.00984   0.00000  -0.02886  -0.02886   2.05328
    R5        1.83077  -0.02278   0.00000  -0.04200  -0.04200   1.78877
    R6        2.89975  -0.00347   0.00000  -0.01173  -0.01173   2.88802
    R7        2.07314  -0.00798   0.00000  -0.02305  -0.02305   2.05010
    R8        2.07629  -0.00765   0.00000  -0.02222  -0.02222   2.05407
    R9        2.67608  -0.01404   0.00000  -0.03215  -0.03215   2.64393
   R10        2.07131  -0.00931   0.00000  -0.02682  -0.02682   2.04449
   R11        2.09078  -0.01049   0.00000  -0.03122  -0.03122   2.05956
   R12        1.84024  -0.02498   0.00000  -0.04694  -0.04694   1.79330
    A1        1.89289   0.00399   0.00000   0.01712   0.01712   1.91001
    A2        1.92458  -0.00222   0.00000  -0.01685  -0.01688   1.90770
    A3        1.92431  -0.00229   0.00000  -0.01307  -0.01322   1.91109
    A4        1.92762  -0.00055   0.00000  -0.00045  -0.00039   1.92723
    A5        1.91321   0.00056   0.00000   0.01029   0.01029   1.92350
    A6        1.88142   0.00045   0.00000   0.00275   0.00264   1.88406
    A7        1.89501   0.00318   0.00000   0.01912   0.01912   1.91413
    A8        1.97637   0.00465   0.00000   0.02211   0.02201   1.99838
    A9        1.91047  -0.00101   0.00000   0.00524   0.00499   1.91546
   A10        1.88322  -0.00160   0.00000  -0.01353  -0.01339   1.86982
   A11        1.90085  -0.00097   0.00000   0.00450   0.00424   1.90509
   A12        1.91450  -0.00205   0.00000  -0.01823  -0.01811   1.89638
   A13        1.87584   0.00082   0.00000  -0.00132  -0.00130   1.87454
   A14        1.97412   0.00241   0.00000   0.00982   0.00981   1.98393
   A15        1.91543  -0.00097   0.00000  -0.00561  -0.00558   1.90986
   A16        1.90300   0.00114   0.00000   0.01257   0.01257   1.91557
   A17        1.85739  -0.00106   0.00000  -0.01002  -0.01002   1.84737
   A18        1.94545  -0.00208   0.00000  -0.01167  -0.01176   1.93368
   A19        1.86482   0.00038   0.00000   0.00398   0.00394   1.86876
   A20        1.84705   0.00819   0.00000   0.04933   0.04933   1.89638
    D1       -2.99913  -0.00075   0.00000  -0.02227  -0.02226  -3.02139
    D2        1.17133  -0.00123   0.00000  -0.02224  -0.02209   1.14924
    D3       -0.90422   0.00104   0.00000  -0.00692  -0.00707  -0.91130
    D4        1.04764   0.00084   0.00000   0.02080   0.02089   1.06854
    D5       -1.07683  -0.00035   0.00000  -0.00382  -0.00383  -1.08066
    D6       -3.11313   0.00011   0.00000   0.00247   0.00250  -3.11063
    D7       -3.12469   0.00030   0.00000   0.01066   0.01072  -3.11398
    D8        1.03402  -0.00088   0.00000  -0.01396  -0.01401   1.02001
    D9       -1.00228  -0.00042   0.00000  -0.00767  -0.00768  -1.00996
   D10       -1.05418   0.00086   0.00000   0.02015   0.02017  -1.03401
   D11        3.10454  -0.00033   0.00000  -0.00447  -0.00456   3.09998
   D12        1.06824   0.00014   0.00000   0.00182   0.00177   1.07001
   D13       -1.23369  -0.00114   0.00000  -0.07418  -0.07428  -1.30797
   D14        2.97836  -0.00069   0.00000  -0.06400  -0.06407   2.91429
   D15        0.94129  -0.00126   0.00000  -0.07285  -0.07288   0.86841
   D16        0.89616  -0.00000   0.00000  -0.04936  -0.04936   0.84681
   D17       -1.17497   0.00045   0.00000  -0.03918  -0.03915  -1.21412
   D18        3.07115  -0.00012   0.00000  -0.04803  -0.04796   3.02318
   D19        2.94473  -0.00076   0.00000  -0.05875  -0.05876   2.88598
   D20        0.87360  -0.00030   0.00000  -0.04857  -0.04854   0.82505
   D21       -1.16347  -0.00087   0.00000  -0.05741  -0.05736  -1.22083
   D22        0.80703   0.00071   0.00000   0.00637   0.00634   0.81337
   D23        2.91151   0.00023   0.00000  -0.00146  -0.00152   2.90999
   D24       -1.34468  -0.00101   0.00000  -0.00863  -0.00855  -1.35323
         Item               Value     Threshold  Converged?
 Maximum Force            0.024980     0.000450     NO 
 RMS     Force            0.006414     0.000300     NO 
 Maximum Displacement     0.246569     0.001800     NO 
 RMS     Displacement     0.054678     0.001200     NO 
 Predicted change in Energy=-3.185561D-03
 GradGradGradGradGradGradGradGradGradGradGradGradGradGradGradGradGradGrad

                          Input orientation:                          
 ---------------------------------------------------------------------
 Center     Atomic      Atomic             Coordinates (Angstroms)
 Number     Number       Type             X           Y           Z
 ---------------------------------------------------------------------
      1          6           0        0.986517    2.050752    1.234208
      2          8           0        1.548295    3.229038    0.690262
      3          6           0        1.992550    0.914373    1.127793
      4          6           0        3.296516    1.148959    1.889546
      5          8           0        4.154953    2.061063    1.266128
      6          1           0        0.078398    1.804142    0.694423
      7          1           0        0.721975    2.221688    2.274104
      8          1           0        0.969517    3.960929    0.849510
      9          1           0        2.219436    0.722174    0.084476
     10          1           0        1.512893    0.023768    1.525599
     11          1           0        3.848024    0.220374    1.953376
     12          1           0        3.075847    1.460849    2.910256
     13          1           0        3.651279    2.821292    1.003619
 ---------------------------------------------------------------------
                    Distance matrix (angstroms):
                    1          2          3          4          5
     1  C    0.000000
     2  O    1.414154   0.000000
     3  C    1.521441   2.397180   0.000000
     4  C    2.564916   2.970065   1.528276   0.000000
     5  O    3.168614   2.913838   2.451535   1.399107   0.000000
     6  H    1.084834   2.047179   2.154873   3.494834   4.124458
     7  H    1.086547   2.050881   2.153476   2.815473   3.581501
     8  H    1.948605   0.946577   3.225763   3.795231   3.732300
     9  H    2.146415   2.664916   1.084864   2.144883   2.633468
    10  H    2.114390   3.312521   1.086967   2.140052   3.346398
    11  H    3.472133   3.992025   2.146161   1.081899   1.988631
    12  H    2.742703   3.223085   2.156234   1.089871   2.056182
    13  H    2.783498   2.164945   2.530443   1.925467   0.948971
                    6          7          8          9         10
     6  H    0.000000
     7  H    1.756111   0.000000
     8  H    2.338776   2.261793   0.000000
     9  H    2.475225   3.047196   3.554872   0.000000
    10  H    2.432768   2.452888   4.031575   1.750375   0.000000
    11  H    4.278243   3.725628   4.847275   2.529207   2.382118
    12  H    3.743323   2.554266   3.864415   3.043701   2.534818
    13  H    3.727690   3.248765   2.917939   2.702090   3.559676
                   11         12         13
    11  H    0.000000
    12  H    1.746613   0.000000
    13  H    2.775882   2.411886   0.000000
 Stoichiometry    C3H8O2
 Framework group  C1[X(C3H8O2)]
 Deg. of freedom    33
 Full point group                 C1      NOp   1
 Largest Abelian subgroup         C1      NOp   1
 Largest concise Abelian subgroup C1      NOp   1
                         Standard orientation:                         
 ---------------------------------------------------------------------
 Center     Atomic      Atomic             Coordinates (Angstroms)
 Number     Number       Type             X           Y           Z
 ---------------------------------------------------------------------
      1          6           0        1.293822    0.467587    0.171045
      2          8           0        1.364840   -0.921158   -0.086201
      3          6           0       -0.028471    1.011773   -0.348749
      4          6           0       -1.266687    0.399223    0.304879
      5          8           0       -1.548544   -0.899443   -0.132754
      6          1           0        2.125652    0.965476   -0.315811
      7          1           0        1.377720    0.643153    1.240026
      8          1           0        2.135307   -1.282942    0.327927
      9          1           0       -0.086190    0.870420   -1.422815
     10          1           0       -0.030004    2.082437   -0.161200
     11          1           0       -2.136581    0.991149    0.053060
     12          1           0       -1.163085    0.428057    1.389431
     13          1           0       -0.745170   -1.404439   -0.122025
 ---------------------------------------------------------------------
 Rotational constants (GHZ):      7.9489928      3.7661275      2.8141945
 Standard basis: 6-31G(d) (6D, 7F)
 There are    91 symmetry adapted cartesian basis functions of A   symmetry.
 There are    91 symmetry adapted basis functions of A   symmetry.
    91 basis functions,   172 primitive gaussians,    91 cartesian basis functions
    21 alpha electrons       21 beta electrons
       nuclear repulsion energy       194.7181519164 Hartrees.
 NAtoms=   13 NActive=   13 NUniq=   13 SFac= 1.00D+00 NAtFMM=   60 NAOKFM=F Big=F
 Integral buffers will be    131072 words long.
 Raffenetti 1 integral format.
 Two-electron integral symmetry is turned on.
 One-electron integrals computed using PRISM.
 NBasis=    91 RedAO= T EigKep=  4.95D-03  NBF=    91
 NBsUse=    91 1.00D-06 EigRej= -1.00D+00 NBFU=    91
 Initial guess from the checkpoint file:  "1-3-propanediol-opt.chk"
 B after Tr=     0.000000   -0.000000    0.000000
         Rot=    0.999989    0.000761   -0.002262    0.003969 Ang=   0.53 deg.
 ExpMin= 1.61D-01 ExpMax= 5.48D+03 ExpMxC= 8.25D+02 IAcc=1 IRadAn=         1 AccDes= 0.00D+00
 Harris functional with IExCor=  205 and IRadAn=       1 diagonalized for initial guess.
 HarFok:  IExCor=  205 AccDes= 0.00D+00 IRadAn=         1 IDoV= 1 UseB2=F ITyADJ=14
 ICtDFT=  3500011 ScaDFX=  1.000000  1.000000  1.000000  1.000000
 FoFCou: FMM=F IPFlag=           0 FMFlag=      100000 FMFlg1=           0
         NFxFlg=           0 DoJE=T BraDBF=F KetDBF=T FulRan=T
         wScrn=  0.000000 ICntrl=     500 IOpCl=  0 I1Cent=   200000004 NGrid=           0
         NMat0=    1 NMatS0=      1 NMatT0=    0 NMatD0=    1 NMtDS0=    0 NMtDT0=    0
 Petite list used in FoFCou.
 Keep R1 ints in memory in canonical form, NReq=9680852.
 Requested convergence on RMS density matrix=1.00D-08 within 128 cycles.
 Requested convergence on MAX density matrix=1.00D-06.
 Requested convergence on             energy=1.00D-06.
 No special actions if energy rises.
 SCF Done:  E(RHF) =  -267.960797541     A.U. after   11 cycles
            NFock= 11  Conv=0.43D-08     -V/T= 2.0014
 Calling FoFJK, ICntrl=      2127 FMM=F ISym2X=0 I1Cent= 0 IOpClX= 0 NMat=1 NMatS=1 NMatT=0.
 ***** Axes restored to original set *****
 -------------------------------------------------------------------
 Center     Atomic                   Forces (Hartrees/Bohr)
 Number     Number              X              Y              Z
 -------------------------------------------------------------------
      1        6           0.001797767    0.004613795   -0.002195902
      2        8           0.002774554   -0.002271264    0.001300350
      3        6          -0.001438183    0.000137744    0.001472740
      4        6           0.001295402    0.001326965   -0.001044949
      5        8          -0.001979634    0.000566764   -0.000977930
      6        1          -0.001157850   -0.002229002   -0.000002593
      7        1          -0.000139631   -0.001452784    0.001418884
      8        1           0.000053350    0.000368306   -0.000520142
      9        1           0.000162549    0.000396739   -0.000502284
     10        1          -0.000193202   -0.001083056   -0.000125551
     11        1          -0.000200232   -0.001015920    0.000273307
     12        1          -0.000565207    0.000364101    0.000334822
     13        1          -0.000409683    0.000277609    0.000569249
 -------------------------------------------------------------------
 Cartesian Forces:  Max     0.004613795 RMS     0.001365096

 GradGradGradGradGradGradGradGradGradGradGradGradGradGradGradGradGradGrad
 Berny optimization.
 Using GEDIIS/GDIIS optimizer.
 FormGI is forming the generalized inverse of G from B-inverse, IUseBI=4.
 GSVD:  received Info=                   1 from GESDD.
 Internal  Forces:  Max     0.005328613 RMS     0.001584324
 Search for a local minimum.
 Step number   2 out of a maximum of   66
 All quantities printed in internal units (Hartrees-Bohrs-Radians)
 Mixed Optimization -- RFO/linear search
 Update second derivatives using D2CorX and points    1    2
 DE= -2.60D-03 DEPred=-3.19D-03 R= 8.16D-01
 TightC=F SS=  1.41D+00  RLast= 2.22D-01 DXNew= 5.0454D-01 6.6523D-01
 Trust test= 8.16D-01 RLast= 2.22D-01 DXMaxT set to 5.05D-01
 ITU=  1  0
 Use linear search instead of GDIIS.
     Eigenvalues ---    0.00341   0.00440   0.01221   0.01479   0.03531
     Eigenvalues ---    0.04657   0.04850   0.05180   0.05787   0.05843
     Eigenvalues ---    0.08605   0.11449   0.11882   0.12399   0.13704
     Eigenvalues ---    0.14022   0.15732   0.16073   0.21985   0.22032
     Eigenvalues ---    0.23298   0.28611   0.29605   0.33041   0.33534
     Eigenvalues ---    0.33750   0.33923   0.34065   0.35628   0.39511
     Eigenvalues ---    0.42597   0.51694   0.53304
 RFO step:  Lambda=-8.93171436D-04 EMin= 3.40961409D-03
 Quartic linear search produced a step of -0.12340.
 Iteration  1 RMS(Cart)=  0.05789955 RMS(Int)=  0.00116621
 Iteration  2 RMS(Cart)=  0.00143898 RMS(Int)=  0.00007852
 Iteration  3 RMS(Cart)=  0.00000061 RMS(Int)=  0.00007852
 Variable       Old X    -DE/DX   Delta X   Delta X   Delta X     New X
                                 (Linear)    (Quad)   (Total)
    R1        2.67236  -0.00076   0.00496  -0.01404  -0.00909   2.66327
    R2        2.87511  -0.00293   0.00077  -0.01052  -0.00974   2.86536
    R3        2.05004   0.00148   0.00365  -0.00528  -0.00162   2.04841
    R4        2.05328   0.00116   0.00356  -0.00585  -0.00229   2.05098
    R5        1.78877   0.00016   0.00518  -0.01267  -0.00749   1.78128
    R6        2.88802  -0.00177   0.00145  -0.00899  -0.00754   2.88048
    R7        2.05010   0.00045   0.00284  -0.00596  -0.00311   2.04698
    R8        2.05407   0.00093   0.00274  -0.00445  -0.00171   2.05236
    R9        2.64393  -0.00073   0.00397  -0.01141  -0.00744   2.63649
   R10        2.04449   0.00079   0.00331  -0.00625  -0.00294   2.04155
   R11        2.05956   0.00053   0.00385  -0.00821  -0.00436   2.05520
   R12        1.79330   0.00028   0.00579  -0.01399  -0.00820   1.78509
    A1        1.91001  -0.00533  -0.00211  -0.01611  -0.01823   1.89178
    A2        1.90770   0.00347   0.00208   0.01814   0.02017   1.92787
    A3        1.91109   0.00239   0.00163   0.00575   0.00726   1.91835
    A4        1.92723  -0.00020   0.00005  -0.00484  -0.00474   1.92249
    A5        1.92350   0.00001  -0.00127  -0.00463  -0.00591   1.91759
    A6        1.88406  -0.00018  -0.00033   0.00229   0.00187   1.88593
    A7        1.91413   0.00090  -0.00236   0.01083   0.00847   1.92260
    A8        1.99838  -0.00509  -0.00272  -0.01560  -0.01846   1.97992
    A9        1.91546   0.00084  -0.00062  -0.00887  -0.00975   1.90571
   A10        1.86982   0.00228   0.00165   0.01715   0.01889   1.88871
   A11        1.90509   0.00118  -0.00052  -0.00657  -0.00738   1.89771
   A12        1.89638   0.00182   0.00224   0.01249   0.01482   1.91120
   A13        1.87454  -0.00079   0.00016   0.00322   0.00346   1.87800
   A14        1.98393  -0.00355  -0.00121  -0.01220  -0.01346   1.97046
   A15        1.90986   0.00035   0.00069   0.00244   0.00316   1.91302
   A16        1.91557   0.00054  -0.00155   0.00037  -0.00128   1.91428
   A17        1.84737   0.00218   0.00124   0.01368   0.01496   1.86232
   A18        1.93368   0.00082   0.00145  -0.00761  -0.00625   1.92744
   A19        1.86876  -0.00012  -0.00049   0.00489   0.00442   1.87318
   A20        1.89638  -0.00078  -0.00609   0.01097   0.00488   1.90127
    D1       -3.02139  -0.00006   0.00275  -0.01670  -0.01400  -3.03539
    D2        1.14924   0.00134   0.00273  -0.01204  -0.00917   1.14006
    D3       -0.91130  -0.00189   0.00087  -0.02886  -0.02808  -0.93938
    D4        1.06854  -0.00140  -0.00258  -0.06212  -0.06461   1.00393
    D5       -1.08066   0.00009   0.00047  -0.03523  -0.03481  -1.11547
    D6       -3.11063  -0.00067  -0.00031  -0.04390  -0.04420   3.12835
    D7       -3.11398  -0.00063  -0.00132  -0.05298  -0.05422   3.11499
    D8        1.02001   0.00086   0.00173  -0.02609  -0.02442   0.99559
    D9       -1.00996   0.00010   0.00095  -0.03476  -0.03381  -1.04377
   D10       -1.03401  -0.00097  -0.00249  -0.05611  -0.05855  -1.09256
   D11        3.09998   0.00052   0.00056  -0.02922  -0.02875   3.07123
   D12        1.07001  -0.00024  -0.00022  -0.03789  -0.03814   1.03187
   D13       -1.30797   0.00181   0.00917   0.07990   0.08899  -1.21897
   D14        2.91429   0.00107   0.00791   0.06868   0.07654   2.99084
   D15        0.86841   0.00069   0.00899   0.06112   0.07008   0.93849
   D16        0.84681   0.00017   0.00609   0.05197   0.05809   0.90490
   D17       -1.21412  -0.00057   0.00483   0.04076   0.04564  -1.16847
   D18        3.02318  -0.00095   0.00592   0.03319   0.03918   3.06236
   D19        2.88598   0.00090   0.00725   0.05918   0.06641   2.95239
   D20        0.82505   0.00015   0.00599   0.04796   0.05396   0.87901
   D21       -1.22083  -0.00022   0.00708   0.04040   0.04749  -1.17334
   D22        0.81337  -0.00008  -0.00078   0.01034   0.00963   0.82300
   D23        2.90999  -0.00024   0.00019   0.01544   0.01561   2.92561
   D24       -1.35323   0.00124   0.00106   0.02506   0.02606  -1.32717
         Item               Value     Threshold  Converged?
 Maximum Force            0.005329     0.000450     NO 
 RMS     Force            0.001584     0.000300     NO 
 Maximum Displacement     0.211145     0.001800     NO 
 RMS     Displacement     0.057902     0.001200     NO 
 Predicted change in Energy=-5.134791D-04
 GradGradGradGradGradGradGradGradGradGradGradGradGradGradGradGradGradGrad

                          Input orientation:                          
 ---------------------------------------------------------------------
 Center     Atomic      Atomic             Coordinates (Angstroms)
 Number     Number       Type             X           Y           Z
 ---------------------------------------------------------------------
      1          6           0        1.000061    2.047687    1.230891
      2          8           0        1.624086    3.199034    0.710082
      3          6           0        1.978553    0.892617    1.144353
      4          6           0        3.289344    1.152082    1.877807
      5          8           0        4.079048    2.117789    1.253087
      6          1           0        0.100775    1.818020    0.670946
      7          1           0        0.718416    2.215828    2.265470
      8          1           0        1.072429    3.952828    0.836537
      9          1           0        2.197042    0.688320    0.103255
     10          1           0        1.499699    0.010267    1.558708
     11          1           0        3.874209    0.244221    1.907180
     12          1           0        3.082994    1.437842    2.906667
     13          1           0        3.539545    2.862865    1.038317
 ---------------------------------------------------------------------
                    Distance matrix (angstroms):
                    1          2          3          4          5
     1  C    0.000000
     2  O    1.409344   0.000000
     3  C    1.516286   2.373563   0.000000
     4  C    2.541934   2.885599   1.524287   0.000000
     5  O    3.079865   2.736930   2.434122   1.395169   0.000000
     6  H    1.083974   2.056504   2.146284   3.473753   4.031800
     7  H    1.085334   2.050894   2.143767   2.809183   3.511179
     8  H    1.946873   0.942614   3.206354   3.720637   3.546920
     9  H    2.133590   2.645790   1.083217   2.134767   2.628201
    10  H    2.123249   3.302102   1.086063   2.146717   3.344861
    11  H    3.459853   3.902181   2.143789   1.080343   1.995007
    12  H    2.742034   3.170994   2.150073   1.087563   2.046650
    13  H    2.674057   1.972241   2.515913   1.922010   0.944631
                    6          7          8          9         10
     6  H    0.000000
     7  H    1.755630   0.000000
     8  H    2.351369   2.276916   0.000000
     9  H    2.448026   3.032291   3.529797   0.000000
    10  H    2.452159   2.444262   4.030866   1.750539   0.000000
    11  H    4.271290   3.738266   4.769698   2.502849   2.411319
    12  H    3.746547   2.570531   3.827920   3.034108   2.522258
    13  H    3.612728   3.143777   2.704700   2.721268   3.545293
                   11         12         13
    11  H    0.000000
    12  H    1.746346   0.000000
    13  H    2.779248   2.393713   0.000000
 Stoichiometry    C3H8O2
 Framework group  C1[X(C3H8O2)]
 Deg. of freedom    33
 Full point group                 C1      NOp   1
 Largest Abelian subgroup         C1      NOp   1
 Largest concise Abelian subgroup C1      NOp   1
                         Standard orientation:                         
 ---------------------------------------------------------------------
 Center     Atomic      Atomic             Coordinates (Angstroms)
 Number     Number       Type             X           Y           Z
 ---------------------------------------------------------------------
      1          6           0        1.279340    0.463316    0.172019
      2          8           0        1.279945   -0.921909   -0.087597
      3          6           0       -0.027810    1.043824   -0.331462
      4          6           0       -1.258884    0.396100    0.291723
      5          8           0       -1.456556   -0.917139   -0.135861
      6          1           0        2.116046    0.942067   -0.323683
      7          1           0        1.374646    0.639542    1.238701
      8          1           0        2.040088   -1.324331    0.298097
      9          1           0       -0.079195    0.925319   -1.406950
     10          1           0       -0.030988    2.108672   -0.117865
     11          1           0       -2.142182    0.950667    0.009981
     12          1           0       -1.184067    0.435188    1.376005
     13          1           0       -0.637341   -1.384182   -0.080308
 ---------------------------------------------------------------------
 Rotational constants (GHZ):      7.8210461      4.0547225      2.9425666
 Standard basis: 6-31G(d) (6D, 7F)
 There are    91 symmetry adapted cartesian basis functions of A   symmetry.
 There are    91 symmetry adapted basis functions of A   symmetry.
    91 basis functions,   172 primitive gaussians,    91 cartesian basis functions
    21 alpha electrons       21 beta electrons
       nuclear repulsion energy       196.9478564784 Hartrees.
 NAtoms=   13 NActive=   13 NUniq=   13 SFac= 1.00D+00 NAtFMM=   60 NAOKFM=F Big=F
 Integral buffers will be    131072 words long.
 Raffenetti 1 integral format.
 Two-electron integral symmetry is turned on.
 One-electron integrals computed using PRISM.
 NBasis=    91 RedAO= T EigKep=  4.86D-03  NBF=    91
 NBsUse=    91 1.00D-06 EigRej= -1.00D+00 NBFU=    91
 Initial guess from the checkpoint file:  "1-3-propanediol-opt.chk"
 B after Tr=    -0.000000   -0.000000   -0.000000
         Rot=    0.999992   -0.003467    0.001612   -0.001058 Ang=  -0.45 deg.
 ExpMin= 1.61D-01 ExpMax= 5.48D+03 ExpMxC= 8.25D+02 IAcc=1 IRadAn=         1 AccDes= 0.00D+00
 Harris functional with IExCor=  205 and IRadAn=       1 diagonalized for initial guess.
 HarFok:  IExCor=  205 AccDes= 0.00D+00 IRadAn=         1 IDoV= 1 UseB2=F ITyADJ=14
 ICtDFT=  3500011 ScaDFX=  1.000000  1.000000  1.000000  1.000000
 FoFCou: FMM=F IPFlag=           0 FMFlag=      100000 FMFlg1=           0
         NFxFlg=           0 DoJE=T BraDBF=F KetDBF=T FulRan=T
         wScrn=  0.000000 ICntrl=     500 IOpCl=  0 I1Cent=   200000004 NGrid=           0
         NMat0=    1 NMatS0=      1 NMatT0=    0 NMatD0=    1 NMtDS0=    0 NMtDT0=    0
 Petite list used in FoFCou.
 Keep R1 ints in memory in canonical form, NReq=9681023.
 Requested convergence on RMS density matrix=1.00D-08 within 128 cycles.
 Requested convergence on MAX density matrix=1.00D-06.
 Requested convergence on             energy=1.00D-06.
 No special actions if energy rises.
 SCF Done:  E(RHF) =  -267.960637309     A.U. after   11 cycles
            NFock= 11  Conv=0.34D-08     -V/T= 2.0011
 Calling FoFJK, ICntrl=      2127 FMM=F ISym2X=0 I1Cent= 0 IOpClX= 0 NMat=1 NMatS=1 NMatT=0.
 ***** Axes restored to original set *****
 -------------------------------------------------------------------
 Center     Atomic                   Forces (Hartrees/Bohr)
 Number     Number              X              Y              Z
 -------------------------------------------------------------------
      1        6           0.001046636   -0.000592330    0.000808617
      2        8           0.000186363   -0.000317537   -0.001607168
      3        6           0.000267334   -0.001248666   -0.000532977
      4        6          -0.000487487    0.003049606   -0.000523400
      5        8           0.007779726   -0.004480052   -0.000051690
      6        1          -0.001878148    0.000278397   -0.001061768
      7        1          -0.000985764    0.000258199    0.001954773
      8        1          -0.003137952    0.004007067    0.000105809
      9        1           0.000381740   -0.000668361   -0.001756539
     10        1          -0.000649789   -0.001026069    0.000430039
     11        1           0.001263521   -0.001446360    0.000188972
     12        1          -0.000959210   -0.000362836    0.002683784
     13        1          -0.002826971    0.002548942   -0.000638453
 -------------------------------------------------------------------
 Cartesian Forces:  Max     0.007779726 RMS     0.002056023

 GradGradGradGradGradGradGradGradGradGradGradGradGradGradGradGradGradGrad
 Berny optimization.
 Using GEDIIS/GDIIS optimizer.
 FormGI is forming the generalized inverse of G from B-inverse, IUseBI=4.
 GSVD:  received Info=                   1 from GESDD.
 Internal  Forces:  Max     0.007383749 RMS     0.002510414
 Search for a local minimum.
 Step number   3 out of a maximum of   66
 All quantities printed in internal units (Hartrees-Bohrs-Radians)
 Mixed Optimization -- RFO/linear search
 Update second derivatives using D2CorX and points    1    3    2
 DE=  1.60D-04 DEPred=-5.13D-04 R=-3.12D-01
 Trust test=-3.12D-01 RLast= 2.41D-01 DXMaxT set to 2.52D-01
 ITU= -1  1  0
 Use linear search instead of GDIIS.
     Eigenvalues ---    0.00388   0.00536   0.01197   0.01472   0.03769
     Eigenvalues ---    0.04824   0.05095   0.05501   0.05827   0.06021
     Eigenvalues ---    0.08427   0.11111   0.11713   0.12288   0.13641
     Eigenvalues ---    0.14063   0.15838   0.16039   0.21976   0.22028
     Eigenvalues ---    0.27570   0.29403   0.32913   0.33467   0.33622
     Eigenvalues ---    0.33820   0.33966   0.34101   0.39332   0.42572
     Eigenvalues ---    0.43270   0.51765   0.53932
 RFO step:  Lambda=-1.80729969D-04 EMin= 3.87640420D-03
 Quartic linear search produced a step of -0.53994.
 Iteration  1 RMS(Cart)=  0.03230152 RMS(Int)=  0.00035264
 Iteration  2 RMS(Cart)=  0.00042104 RMS(Int)=  0.00003201
 Iteration  3 RMS(Cart)=  0.00000007 RMS(Int)=  0.00003201
 Variable       Old X    -DE/DX   Delta X   Delta X   Delta X     New X
                                 (Linear)    (Quad)   (Total)
    R1        2.66327   0.00226   0.00491   0.00107   0.00598   2.66925
    R2        2.86536   0.00586   0.00526   0.00320   0.00846   2.87382
    R3        2.04841   0.00205   0.00088   0.00505   0.00592   2.05434
    R4        2.05098   0.00216   0.00124   0.00468   0.00592   2.05690
    R5        1.78128   0.00506   0.00404   0.00411   0.00815   1.78944
    R6        2.88048   0.00478   0.00407   0.00385   0.00792   2.88841
    R7        2.04698   0.00189   0.00168   0.00307   0.00476   2.05174
    R8        2.05236   0.00128   0.00092   0.00311   0.00403   2.05639
    R9        2.63649   0.00178   0.00402   0.00058   0.00460   2.64109
   R10        2.04155   0.00190   0.00159   0.00362   0.00521   2.04676
   R11        2.05520   0.00263   0.00236   0.00426   0.00662   2.06181
   R12        1.78509   0.00377   0.00443   0.00316   0.00758   1.79268
    A1        1.89178   0.00738   0.00985   0.00263   0.01247   1.90425
    A2        1.92787  -0.00334  -0.01089   0.00584  -0.00500   1.92287
    A3        1.91835  -0.00175  -0.00392   0.00752   0.00366   1.92201
    A4        1.92249  -0.00144   0.00256  -0.00739  -0.00487   1.91762
    A5        1.91759  -0.00132   0.00319  -0.00533  -0.00218   1.91541
    A6        1.88593   0.00037  -0.00101  -0.00331  -0.00429   1.88165
    A7        1.92260   0.00020  -0.00457   0.00416  -0.00041   1.92218
    A8        1.97992   0.00699   0.00997   0.00142   0.01144   1.99136
    A9        1.90571  -0.00099   0.00526  -0.00092   0.00443   1.91014
   A10        1.88871  -0.00312  -0.01020   0.00111  -0.00911   1.87960
   A11        1.89771  -0.00174   0.00399  -0.00225   0.00182   1.89953
   A12        1.91120  -0.00234  -0.00800   0.00155  -0.00648   1.90472
   A13        1.87800   0.00096  -0.00187  -0.00102  -0.00292   1.87508
   A14        1.97046   0.00536   0.00727   0.00244   0.00970   1.98017
   A15        1.91302  -0.00113  -0.00171  -0.00378  -0.00551   1.90751
   A16        1.91428  -0.00179   0.00069  -0.00278  -0.00211   1.91217
   A17        1.86232  -0.00302  -0.00808  -0.00089  -0.00895   1.85337
   A18        1.92744   0.00003   0.00337   0.00636   0.00974   1.93718
   A19        1.87318   0.00029  -0.00239  -0.00157  -0.00397   1.86921
   A20        1.90127  -0.00146  -0.00264  -0.00638  -0.00902   1.89224
    D1       -3.03539  -0.00066   0.00756  -0.02770  -0.02015  -3.05554
    D2        1.14006  -0.00152   0.00495  -0.02384  -0.01898   1.12109
    D3       -0.93938   0.00120   0.01516  -0.02812  -0.01286  -0.95224
    D4        1.00393   0.00175   0.03488  -0.02935   0.00552   1.00944
    D5       -1.11547  -0.00000   0.01879  -0.02675  -0.00794  -1.12341
    D6        3.12835   0.00113   0.02386  -0.02566  -0.00180   3.12656
    D7        3.11499   0.00141   0.02927  -0.02502   0.00422   3.11921
    D8        0.99559  -0.00035   0.01318  -0.02242  -0.00923   0.98636
    D9       -1.04377   0.00078   0.01825  -0.02133  -0.00309  -1.04686
   D10       -1.09256   0.00016   0.03161  -0.03695  -0.00534  -1.09789
   D11        3.07123  -0.00159   0.01552  -0.03435  -0.01879   3.05244
   D12        1.03187  -0.00047   0.02059  -0.03326  -0.01265   1.01922
   D13       -1.21897  -0.00300  -0.04805   0.00019  -0.04784  -1.26681
   D14        2.99084  -0.00185  -0.04133   0.00232  -0.03898   2.95186
   D15        0.93849  -0.00049  -0.03784   0.00810  -0.02973   0.90875
   D16        0.90490  -0.00086  -0.03137  -0.00167  -0.03305   0.87185
   D17       -1.16847   0.00029  -0.02464   0.00046  -0.02419  -1.19266
   D18        3.06236   0.00165  -0.02115   0.00624  -0.01494   3.04742
   D19        2.95239  -0.00202  -0.03586  -0.00330  -0.03916   2.91323
   D20        0.87901  -0.00088  -0.02913  -0.00117  -0.03030   0.84871
   D21       -1.17334   0.00049  -0.02564   0.00461  -0.02105  -1.19439
   D22        0.82300   0.00052  -0.00520   0.01548   0.01030   0.83330
   D23        2.92561   0.00031  -0.00843   0.01165   0.00324   2.92885
   D24       -1.32717  -0.00103  -0.01407   0.01258  -0.00152  -1.32870
         Item               Value     Threshold  Converged?
 Maximum Force            0.007384     0.000450     NO 
 RMS     Force            0.002510     0.000300     NO 
 Maximum Displacement     0.121589     0.001800     NO 
 RMS     Displacement     0.032321     0.001200     NO 
 Predicted change in Energy=-3.555516D-04
 GradGradGradGradGradGradGradGradGradGradGradGradGradGradGradGradGradGrad

                          Input orientation:                          
 ---------------------------------------------------------------------
 Center     Atomic      Atomic             Coordinates (Angstroms)
 Number     Number       Type             X           Y           Z
 ---------------------------------------------------------------------
      1          6           0        0.991155    2.051871    1.231988
      2          8           0        1.591489    3.224112    0.721475
      3          6           0        1.984054    0.903635    1.140233
      4          6           0        3.297260    1.153463    1.881399
      5          8           0        4.125620    2.083602    1.247402
      6          1           0        0.095296    1.811941    0.664824
      7          1           0        0.698048    2.202535    2.269363
      8          1           0        1.013692    3.964762    0.840899
      9          1           0        2.203913    0.698457    0.096978
     10          1           0        1.504619    0.018080    1.552667
     11          1           0        3.861729    0.230381    1.930389
     12          1           0        3.085438    1.454826    2.908401
     13          1           0        3.603887    2.841736    1.017282
 ---------------------------------------------------------------------
                    Distance matrix (angstroms):
                    1          2          3          4          5
     1  C    0.000000
     2  O    1.412506   0.000000
     3  C    1.520760   2.390414   0.000000
     4  C    2.558709   2.922784   1.528480   0.000000
     5  O    3.134663   2.828282   2.447470   1.397602   0.000000
     6  H    1.087108   2.058162   2.149055   3.488010   4.081262
     7  H    1.088466   2.058595   2.148462   2.829659   3.578658
     8  H    1.952591   0.946928   3.225166   3.768385   3.658975
     9  H    2.142606   2.672825   1.085733   2.141634   2.633450
    10  H    2.121977   3.313166   1.088195   2.147259   3.351002
    11  H    3.470703   3.946883   2.145526   1.083100   1.992621
    12  H    2.748244   3.185106   2.154827   1.091064   2.058217
    13  H    2.737948   2.069652   2.528876   1.921194   0.948645
                    6          7          8          9         10
     6  H    0.000000
     7  H    1.757959   0.000000
     8  H    2.347145   2.290324   0.000000
     9  H    2.451237   3.041240   3.555108   0.000000
    10  H    2.447936   2.436402   4.040287   1.752414   0.000000
    11  H    4.276564   3.743417   4.821193   2.515719   2.396604
    12  H    3.755278   2.582067   3.855707   3.041921   2.530068
    13  H    3.673543   3.228031   2.828676   2.720392   3.559017
                   11         12         13
    11  H    0.000000
    12  H    1.748829   0.000000
    13  H    2.778385   2.401799   0.000000
 Stoichiometry    C3H8O2
 Framework group  C1[X(C3H8O2)]
 Deg. of freedom    33
 Full point group                 C1      NOp   1
 Largest Abelian subgroup         C1      NOp   1
 Largest concise Abelian subgroup C1      NOp   1
                         Standard orientation:                         
 ---------------------------------------------------------------------
 Center     Atomic      Atomic             Coordinates (Angstroms)
 Number     Number       Type             X           Y           Z
 ---------------------------------------------------------------------
      1          6           0        1.293831    0.462559    0.162145
      2          8           0        1.316315   -0.929530   -0.076094
      3          6           0       -0.025476    1.031599   -0.336186
      4          6           0       -1.260122    0.397256    0.303744
      5          8           0       -1.511097   -0.903615   -0.141272
      6          1           0        2.121747    0.944293   -0.351948
      7          1           0        1.401634    0.662072    1.226726
      8          1           0        2.098635   -1.311375    0.296522
      9          1           0       -0.087519    0.910312   -1.413339
     10          1           0       -0.024714    2.099667   -0.127863
     11          1           0       -2.136204    0.979217    0.045080
     12          1           0       -1.164514    0.427071    1.390202
     13          1           0       -0.700209   -1.394581   -0.104671
 ---------------------------------------------------------------------
 Rotational constants (GHZ):      7.8599712      3.8963151      2.8678309
 Standard basis: 6-31G(d) (6D, 7F)
 There are    91 symmetry adapted cartesian basis functions of A   symmetry.
 There are    91 symmetry adapted basis functions of A   symmetry.
    91 basis functions,   172 primitive gaussians,    91 cartesian basis functions
    21 alpha electrons       21 beta electrons
       nuclear repulsion energy       195.5291163786 Hartrees.
 NAtoms=   13 NActive=   13 NUniq=   13 SFac= 1.00D+00 NAtFMM=   60 NAOKFM=F Big=F
 Integral buffers will be    131072 words long.
 Raffenetti 1 integral format.
 Two-electron integral symmetry is turned on.
 One-electron integrals computed using PRISM.
 NBasis=    91 RedAO= T EigKep=  4.91D-03  NBF=    91
 NBsUse=    91 1.00D-06 EigRej= -1.00D+00 NBFU=    91
 Lowest energy guess from the checkpoint file:  "1-3-propanediol-opt.chk"
 B after Tr=    -0.000000   -0.000000   -0.000000
         Rot=    0.999997   -0.001974   -0.000125    0.001253 Ang=  -0.27 deg.
 B after Tr=     0.000000   -0.000000    0.000000
         Rot=    0.999995    0.001458   -0.001830    0.002299 Ang=   0.38 deg.
 Keep R1 ints in memory in canonical form, NReq=9680924.
 Requested convergence on RMS density matrix=1.00D-08 within 128 cycles.
 Requested convergence on MAX density matrix=1.00D-06.
 Requested convergence on             energy=1.00D-06.
 No special actions if energy rises.
 SCF Done:  E(RHF) =  -267.961090715     A.U. after   10 cycles
            NFock= 10  Conv=0.34D-08     -V/T= 2.0014
 Calling FoFJK, ICntrl=      2127 FMM=F ISym2X=0 I1Cent= 0 IOpClX= 0 NMat=1 NMatS=1 NMatT=0.
 ***** Axes restored to original set *****
 -------------------------------------------------------------------
 Center     Atomic                   Forces (Hartrees/Bohr)
 Number     Number              X              Y              Z
 -------------------------------------------------------------------
      1        6          -0.000052502    0.000237562    0.000141687
      2        8          -0.000072766   -0.000999199    0.000704426
      3        6           0.000430058    0.000143334   -0.000849960
      4        6           0.000106584   -0.000268913    0.000243607
      5        8          -0.000481653   -0.000433832   -0.000218665
      6        1          -0.000052798    0.000295883    0.000144615
      7        1           0.000200802    0.000417538   -0.000105453
      8        1          -0.000127891   -0.000270757   -0.000197845
      9        1           0.000147871    0.000095260   -0.000015460
     10        1           0.000093140    0.000130454   -0.000149347
     11        1          -0.000143335   -0.000030405    0.000322209
     12        1           0.000052462    0.000346194   -0.000171885
     13        1          -0.000099971    0.000336879    0.000152071
 -------------------------------------------------------------------
 Cartesian Forces:  Max     0.000999199 RMS     0.000323728

 GradGradGradGradGradGradGradGradGradGradGradGradGradGradGradGradGradGrad
 Berny optimization.
 Using GEDIIS/GDIIS optimizer.
 FormGI is forming the generalized inverse of G from B-inverse, IUseBI=4.
 GSVD:  received Info=                   1 from GESDD.
 Internal  Forces:  Max     0.001322310 RMS     0.000316639
 Search for a local minimum.
 Step number   4 out of a maximum of   66
 All quantities printed in internal units (Hartrees-Bohrs-Radians)
 Mixed Optimization -- En-DIIS/RFO-DIIS
 Update second derivatives using D2CorX and points    1    3    2    4
 DE= -2.93D-04 DEPred=-3.56D-04 R= 8.25D-01
 TightC=F SS=  1.41D+00  RLast= 1.89D-01 DXNew= 4.2426D-01 5.6763D-01
 Trust test= 8.25D-01 RLast= 1.89D-01 DXMaxT set to 4.24D-01
 ITU=  1 -1  1  0
 Use linear search instead of GDIIS.
     Eigenvalues ---    0.00380   0.00475   0.01046   0.01437   0.03868
     Eigenvalues ---    0.04795   0.05016   0.05442   0.05863   0.06182
     Eigenvalues ---    0.08535   0.11695   0.11990   0.12461   0.13689
     Eigenvalues ---    0.14119   0.15898   0.16226   0.21985   0.22072
     Eigenvalues ---    0.27244   0.29396   0.33012   0.33523   0.33682
     Eigenvalues ---    0.33934   0.34055   0.34633   0.39768   0.40271
     Eigenvalues ---    0.42558   0.52205   0.54321
 RFO step:  Lambda=-5.99739402D-05 EMin= 3.79960000D-03
 Quartic linear search produced a step of -0.03869.
 Iteration  1 RMS(Cart)=  0.01076144 RMS(Int)=  0.00006562
 Iteration  2 RMS(Cart)=  0.00008981 RMS(Int)=  0.00000285
 Iteration  3 RMS(Cart)=  0.00000000 RMS(Int)=  0.00000285
 Variable       Old X    -DE/DX   Delta X   Delta X   Delta X     New X
                                 (Linear)    (Quad)   (Total)
    R1        2.66925  -0.00132   0.00012  -0.00334  -0.00322   2.66603
    R2        2.87382  -0.00013   0.00005  -0.00082  -0.00077   2.87305
    R3        2.05434  -0.00010  -0.00017   0.00045   0.00028   2.05462
    R4        2.05690  -0.00010  -0.00014   0.00034   0.00020   2.05710
    R5        1.78944  -0.00016  -0.00003  -0.00007  -0.00009   1.78934
    R6        2.88841  -0.00034  -0.00001  -0.00117  -0.00118   2.88723
    R7        2.05174   0.00003  -0.00006   0.00037   0.00031   2.05204
    R8        2.05639  -0.00020  -0.00009  -0.00014  -0.00023   2.05616
    R9        2.64109  -0.00038   0.00011  -0.00110  -0.00099   2.64009
   R10        2.04676  -0.00003  -0.00009   0.00032   0.00023   2.04699
   R11        2.06181  -0.00008  -0.00009   0.00019   0.00010   2.06191
   R12        1.79268   0.00029   0.00002   0.00058   0.00060   1.79328
    A1        1.90425  -0.00075   0.00022  -0.00510  -0.00488   1.89938
    A2        1.92287   0.00010  -0.00059   0.00212   0.00154   1.92441
    A3        1.92201  -0.00006  -0.00042  -0.00092  -0.00134   1.92067
    A4        1.91762   0.00042   0.00037   0.00187   0.00224   1.91987
    A5        1.91541   0.00045   0.00031   0.00145   0.00175   1.91716
    A6        1.88165  -0.00013   0.00009   0.00069   0.00079   1.88243
    A7        1.92218  -0.00029  -0.00031  -0.00065  -0.00096   1.92123
    A8        1.99136  -0.00077   0.00027  -0.00525  -0.00498   1.98638
    A9        1.91014   0.00036   0.00021   0.00159   0.00180   1.91194
   A10        1.87960   0.00015  -0.00038   0.00134   0.00096   1.88057
   A11        1.89953   0.00018   0.00022   0.00012   0.00034   1.89986
   A12        1.90472   0.00021  -0.00032   0.00146   0.00114   1.90586
   A13        1.87508  -0.00010  -0.00002   0.00109   0.00107   1.87615
   A14        1.98017  -0.00076   0.00015  -0.00444  -0.00430   1.97587
   A15        1.90751   0.00016   0.00009   0.00152   0.00162   1.90913
   A16        1.91217   0.00029   0.00013  -0.00000   0.00012   1.91229
   A17        1.85337   0.00039  -0.00023   0.00426   0.00403   1.85740
   A18        1.93718   0.00004  -0.00014  -0.00161  -0.00176   1.93542
   A19        1.86921  -0.00009  -0.00002   0.00074   0.00072   1.86993
   A20        1.89224   0.00001   0.00016  -0.00073  -0.00057   1.89167
    D1       -3.05554  -0.00014   0.00132  -0.01507  -0.01375  -3.06929
    D2        1.12109  -0.00024   0.00109  -0.01547  -0.01438   1.10670
    D3       -0.95224  -0.00009   0.00158  -0.01707  -0.01548  -0.96772
    D4        1.00944   0.00003   0.00229   0.00449   0.00678   1.01622
    D5       -1.12341   0.00007   0.00165   0.00682   0.00847  -1.11494
    D6        3.12656  -0.00009   0.00178   0.00393   0.00571   3.13227
    D7        3.11921  -0.00007   0.00193   0.00506   0.00699   3.12620
    D8        0.98636  -0.00003   0.00130   0.00738   0.00868   0.99504
    D9       -1.04686  -0.00019   0.00143   0.00449   0.00592  -1.04094
   D10       -1.09789   0.00029   0.00247   0.00791   0.01038  -1.08751
   D11        3.05244   0.00033   0.00184   0.01023   0.01207   3.06451
   D12        1.01922   0.00017   0.00197   0.00734   0.00931   1.02853
   D13       -1.26681  -0.00003  -0.00159  -0.01903  -0.02062  -1.28743
   D14        2.95186  -0.00016  -0.00145  -0.02263  -0.02408   2.92778
   D15        0.90875  -0.00031  -0.00156  -0.02440  -0.02596   0.88280
   D16        0.87185   0.00003  -0.00097  -0.02050  -0.02147   0.85038
   D17       -1.19266  -0.00009  -0.00083  -0.02410  -0.02493  -1.21760
   D18        3.04742  -0.00025  -0.00094  -0.02587  -0.02681   3.02061
   D19        2.91323   0.00013  -0.00105  -0.01831  -0.01937   2.89386
   D20        0.84871   0.00001  -0.00092  -0.02191  -0.02283   0.82589
   D21       -1.19439  -0.00014  -0.00102  -0.02368  -0.02470  -1.21909
   D22        0.83330   0.00009  -0.00077   0.00957   0.00881   0.84211
   D23        2.92885   0.00010  -0.00073   0.01170   0.01097   2.93982
   D24       -1.32870   0.00024  -0.00095   0.01418   0.01322  -1.31547
         Item               Value     Threshold  Converged?
 Maximum Force            0.001322     0.000450     NO 
 RMS     Force            0.000317     0.000300     NO 
 Maximum Displacement     0.034295     0.001800     NO 
 RMS     Displacement     0.010765     0.001200     NO 
 Predicted change in Energy=-3.112173D-05
 GradGradGradGradGradGradGradGradGradGradGradGradGradGradGradGradGradGrad

                          Input orientation:                          
 ---------------------------------------------------------------------
 Center     Atomic      Atomic             Coordinates (Angstroms)
 Number     Number       Type             X           Y           Z
 ---------------------------------------------------------------------
      1          6           0        0.991333    2.049912    1.236352
      2          8           0        1.592899    3.221056    0.729490
      3          6           0        1.985649    0.904260    1.134922
      4          6           0        3.294197    1.155184    1.882637
      5          8           0        4.126953    2.075591    1.241392
      6          1           0        0.092772    1.813533    0.671691
      7          1           0        0.703149    2.198203    2.275559
      8          1           0        1.011794    3.960053    0.842533
      9          1           0        2.210080    0.709386    0.090497
     10          1           0        1.508020    0.013821    1.538521
     11          1           0        3.853748    0.230019    1.948537
     12          1           0        3.076575    1.472768    2.903577
     13          1           0        3.609033    2.835612    1.007594
 ---------------------------------------------------------------------
                    Distance matrix (angstroms):
                    1          2          3          4          5
     1  C    0.000000
     2  O    1.410805   0.000000
     3  C    1.520352   2.384569   0.000000
     4  C    2.553704   2.914102   1.527854   0.000000
     5  O    3.135729   2.827643   2.443058   1.397078   0.000000
     6  H    1.087258   2.057874   2.150429   3.485532   4.082628
     7  H    1.088573   2.056262   2.149453   2.820604   3.578682
     8  H    1.950424   0.946878   3.220521   3.762774   3.662581
     9  H    2.143674   2.664153   1.085895   2.141451   2.620206
    10  H    2.122248   3.308790   1.088073   2.147453   3.346340
    11  H    3.465924   3.942565   2.146244   1.083222   1.995202
    12  H    2.731477   3.159820   2.154405   1.091117   2.056587
    13  H    2.742628   2.071402   2.526204   1.920588   0.948964
                    6          7          8          9         10
     6  H    0.000000
     7  H    1.758671   0.000000
     8  H    2.341226   2.291930   0.000000
     9  H    2.457625   3.043339   3.545178   0.000000
    10  H    2.448118   2.441836   4.037745   1.753132   0.000000
    11  H    4.275838   3.729204   4.817997   2.526608   2.391086
    12  H    3.741727   2.560042   3.833773   3.040886   2.540131
    13  H    3.677169   3.233912   2.835007   2.705360   3.557898
                   11         12         13
    11  H    0.000000
    12  H    1.749435   0.000000
    13  H    2.781074   2.394913   0.000000
 Stoichiometry    C3H8O2
 Framework group  C1[X(C3H8O2)]
 Deg. of freedom    33
 Full point group                 C1      NOp   1
 Largest Abelian subgroup         C1      NOp   1
 Largest concise Abelian subgroup C1      NOp   1
                         Standard orientation:                         
 ---------------------------------------------------------------------
 Center     Atomic      Atomic             Coordinates (Angstroms)
 Number     Number       Type             X           Y           Z
 ---------------------------------------------------------------------
      1          6           0        1.294569    0.460811    0.161729
      2          8           0        1.311041   -0.930188   -0.073257
      3          6           0       -0.023413    1.027770   -0.341212
      4          6           0       -1.254076    0.398503    0.309812
      5          8           0       -1.515513   -0.896637   -0.144159
      6          1           0        2.125167    0.939208   -0.351471
      7          1           0        1.400483    0.660634    1.226551
      8          1           0        2.097356   -1.312054    0.290702
      9          1           0       -0.089031    0.895165   -1.416981
     10          1           0       -0.021428    2.097641   -0.143028
     11          1           0       -2.129550    0.989610    0.070001
     12          1           0       -1.142194    0.415241    1.395049
     13          1           0       -0.707514   -1.393355   -0.113475
 ---------------------------------------------------------------------
 Rotational constants (GHZ):      7.8845240      3.8997632      2.8768757
 Standard basis: 6-31G(d) (6D, 7F)
 There are    91 symmetry adapted cartesian basis functions of A   symmetry.
 There are    91 symmetry adapted basis functions of A   symmetry.
    91 basis functions,   172 primitive gaussians,    91 cartesian basis functions
    21 alpha electrons       21 beta electrons
       nuclear repulsion energy       195.6924168947 Hartrees.
 NAtoms=   13 NActive=   13 NUniq=   13 SFac= 1.00D+00 NAtFMM=   60 NAOKFM=F Big=F
 Integral buffers will be    131072 words long.
 Raffenetti 1 integral format.
 Two-electron integral symmetry is turned on.
 One-electron integrals computed using PRISM.
 NBasis=    91 RedAO= T EigKep=  4.91D-03  NBF=    91
 NBsUse=    91 1.00D-06 EigRej= -1.00D+00 NBFU=    91
 Initial guess from the checkpoint file:  "1-3-propanediol-opt.chk"
 B after Tr=     0.000000    0.000000   -0.000000
         Rot=    0.999999    0.000156   -0.000614    0.001330 Ang=   0.17 deg.
 ExpMin= 1.61D-01 ExpMax= 5.48D+03 ExpMxC= 8.25D+02 IAcc=1 IRadAn=         1 AccDes= 0.00D+00
 Harris functional with IExCor=  205 and IRadAn=       1 diagonalized for initial guess.
 HarFok:  IExCor=  205 AccDes= 0.00D+00 IRadAn=         1 IDoV= 1 UseB2=F ITyADJ=14
 ICtDFT=  3500011 ScaDFX=  1.000000  1.000000  1.000000  1.000000
 FoFCou: FMM=F IPFlag=           0 FMFlag=      100000 FMFlg1=           0
         NFxFlg=           0 DoJE=T BraDBF=F KetDBF=T FulRan=T
         wScrn=  0.000000 ICntrl=     500 IOpCl=  0 I1Cent=   200000004 NGrid=           0
         NMat0=    1 NMatS0=      1 NMatT0=    0 NMatD0=    1 NMtDS0=    0 NMtDT0=    0
 Petite list used in FoFCou.
 Keep R1 ints in memory in canonical form, NReq=9680924.
 Requested convergence on RMS density matrix=1.00D-08 within 128 cycles.
 Requested convergence on MAX density matrix=1.00D-06.
 Requested convergence on             energy=1.00D-06.
 No special actions if energy rises.
 SCF Done:  E(RHF) =  -267.961123257     A.U. after    9 cycles
            NFock=  9  Conv=0.72D-08     -V/T= 2.0014
 Calling FoFJK, ICntrl=      2127 FMM=F ISym2X=0 I1Cent= 0 IOpClX= 0 NMat=1 NMatS=1 NMatT=0.
 ***** Axes restored to original set *****
 -------------------------------------------------------------------
 Center     Atomic                   Forces (Hartrees/Bohr)
 Number     Number              X              Y              Z
 -------------------------------------------------------------------
      1        6          -0.000050378   -0.000430521   -0.000053757
      2        8          -0.000205151    0.000373166    0.000130253
      3        6          -0.000330944   -0.000500352    0.000020336
      4        6          -0.000145048   -0.000003679    0.000247264
      5        8           0.000271804   -0.000091691   -0.000378657
      6        1           0.000015287    0.000291229    0.000127966
      7        1           0.000090707    0.000004728   -0.000147191
      8        1           0.000042881   -0.000009405   -0.000225568
      9        1           0.000005723    0.000103426    0.000177342
     10        1           0.000001513    0.000016074   -0.000160247
     11        1           0.000180436    0.000318928    0.000058167
[...]
   A19        1.86962   0.00000   0.00000   0.00002   0.00002   1.86964
   A20        1.89085   0.00004   0.00008   0.00009   0.00016   1.89102
    D1       -3.10166   0.00001   0.00045  -0.00014   0.00031  -3.10135
    D2        1.07226  -0.00001   0.00047  -0.00031   0.00016   1.07242
    D3       -1.00053  -0.00000   0.00047  -0.00032   0.00014  -1.00038
    D4        1.01223  -0.00001  -0.00031  -0.00012  -0.00043   1.01180
    D5       -1.11582  -0.00001  -0.00041  -0.00014  -0.00055  -1.11638
    D6        3.13045  -0.00001  -0.00037  -0.00010  -0.00047   3.12998
    D7        3.12277  -0.00000  -0.00029  -0.00006  -0.00034   3.12243
    D8        0.99472  -0.00000  -0.00038  -0.00008  -0.00046   0.99425
    D9       -1.04220  -0.00000  -0.00034  -0.00004  -0.00038  -1.04258
   D10       -1.09088   0.00001  -0.00036   0.00026  -0.00010  -1.09099
   D11        3.06425   0.00001  -0.00046   0.00023  -0.00023   3.06402
   D12        1.02734   0.00001  -0.00041   0.00027  -0.00014   1.02719
   D13       -1.29459   0.00001   0.00020   0.00031   0.00050  -1.29408
   D14        2.92260   0.00000   0.00025   0.00029   0.00054   2.92314
   D15        0.87631   0.00001   0.00029   0.00028   0.00056   0.87687
   D16        0.84099  -0.00000   0.00028   0.00029   0.00057   0.84156
   D17       -1.22501  -0.00000   0.00033   0.00027   0.00060  -1.22440
   D18        3.01189  -0.00000   0.00037   0.00026   0.00063   3.01252
   D19        2.88523   0.00000   0.00025   0.00028   0.00054   2.88576
   D20        0.81923   0.00000   0.00031   0.00026   0.00057   0.81980
   D21       -1.22706   0.00000   0.00034   0.00025   0.00059  -1.22647
   D22        0.87014  -0.00000  -0.00049  -0.00008  -0.00056   0.86958
   D23        2.96864  -0.00001  -0.00053  -0.00012  -0.00066   2.96799
   D24       -1.28823  -0.00000  -0.00053  -0.00011  -0.00064  -1.28887
         Item               Value     Threshold  Converged?
 Maximum Force            0.000054     0.000450     YES
 RMS     Force            0.000015     0.000300     YES
 Maximum Displacement     0.000788     0.001800     YES
 RMS     Displacement     0.000278     0.001200     YES
 Predicted change in Energy=-4.381332D-08
 Optimization completed.
    -- Stationary point found.
                           ----------------------------
                           !   Optimized Parameters   !
                           ! (Angstroms and Degrees)  !
 --------------------------                            --------------------------
 ! Name  Definition              Value          Derivative Info.                !
 --------------------------------------------------------------------------------
 ! R1    R(1,2)                  1.411          -DE/DX =    0.0                 !
 ! R2    R(1,3)                  1.5206         -DE/DX =    0.0                 !
 ! R3    R(1,6)                  1.0871         -DE/DX =    0.0                 !
 ! R4    R(1,7)                  1.0885         -DE/DX =    0.0                 !
 ! R5    R(2,8)                  0.9468         -DE/DX =    0.0                 !
 ! R6    R(3,4)                  1.5286         -DE/DX =    0.0                 !
 ! R7    R(3,9)                  1.0856         -DE/DX =    0.0                 !
 ! R8    R(3,10)                 1.0879         -DE/DX =    0.0                 !
 ! R9    R(4,5)                  1.3973         -DE/DX =    0.0001              !
 ! R10   R(4,11)                 1.0829         -DE/DX =    0.0                 !
 ! R11   R(4,12)                 1.0909         -DE/DX =    0.0                 !
 ! R12   R(5,13)                 0.9489         -DE/DX =    0.0                 !
 ! A1    A(2,1,3)              108.8584         -DE/DX =    0.0                 !
 ! A2    A(2,1,6)              110.2195         -DE/DX =    0.0                 !
 ! A3    A(2,1,7)              110.0102         -DE/DX =    0.0                 !
 ! A4    A(3,1,6)              110.1012         -DE/DX =    0.0                 !
 ! A5    A(3,1,7)              109.8262         -DE/DX =    0.0                 !
 ! A6    A(6,1,7)              107.8178         -DE/DX =    0.0                 !
 ! A7    A(1,2,8)              110.117          -DE/DX =    0.0                 !
 ! A8    A(1,3,4)              113.7285         -DE/DX =    0.0                 !
 ! A9    A(1,3,9)              109.543          -DE/DX =    0.0                 !
 ! A10   A(1,3,10)             107.7934         -DE/DX =    0.0                 !
 ! A11   A(4,3,9)              108.7628         -DE/DX =    0.0                 !
 ! A12   A(4,3,10)             109.3129         -DE/DX =    0.0                 !
 ! A13   A(9,3,10)             107.5205         -DE/DX =    0.0                 !
 ! A14   A(3,4,5)              113.1771         -DE/DX =    0.0                 !
 ! A15   A(3,4,11)             109.5142         -DE/DX =    0.0                 !
 ! A16   A(3,4,12)             109.6036         -DE/DX =    0.0                 !
 ! A17   A(5,4,11)             106.2777         -DE/DX =    0.0                 !
 ! A18   A(5,4,12)             110.9166         -DE/DX =    0.0                 !
 ! A19   A(11,4,12)            107.1214         -DE/DX =    0.0                 !
 ! A20   A(4,5,13)             108.3378         -DE/DX =    0.0                 !
 ! D1    D(3,1,2,8)           -177.7118         -DE/DX =    0.0                 !
 ! D2    D(6,1,2,8)             61.4357         -DE/DX =    0.0                 !
 ! D3    D(7,1,2,8)            -57.3259         -DE/DX =    0.0                 !
 ! D4    D(2,1,3,4)             57.9965         -DE/DX =    0.0                 !
 ! D5    D(2,1,3,9)            -63.932          -DE/DX =    0.0                 !
 ! D6    D(2,1,3,10)           179.3615         -DE/DX =    0.0                 !
 ! D7    D(6,1,3,4)            178.9216         -DE/DX =    0.0                 !
 ! D8    D(6,1,3,9)             56.993          -DE/DX =    0.0                 !
 ! D9    D(6,1,3,10)           -59.7134         -DE/DX =    0.0                 !
 ! D10   D(7,1,3,4)            -62.5029         -DE/DX =    0.0                 !
 ! D11   D(7,1,3,9)            175.5686         -DE/DX =    0.0                 !
 ! D12   D(7,1,3,10)            58.8621         -DE/DX =    0.0                 !
 ! D13   D(1,3,4,5)            -74.1745         -DE/DX =    0.0                 !
 ! D14   D(1,3,4,11)           167.4525         -DE/DX =    0.0                 !
 ! D15   D(1,3,4,12)            50.2088         -DE/DX =    0.0                 !
 ! D16   D(9,3,4,5)             48.1853         -DE/DX =    0.0                 !
 ! D17   D(9,3,4,11)           -70.1877         -DE/DX =    0.0                 !
 ! D18   D(9,3,4,12)           172.5686         -DE/DX =    0.0                 !
 ! D19   D(10,3,4,5)           165.3113         -DE/DX =    0.0                 !
 ! D20   D(10,3,4,11)           46.9383         -DE/DX =    0.0                 !
 ! D21   D(10,3,4,12)          -70.3054         -DE/DX =    0.0                 !
 ! D22   D(3,4,5,13)            49.8555         -DE/DX =    0.0                 !
 ! D23   D(11,4,5,13)          170.0908         -DE/DX =    0.0                 !
 ! D24   D(12,4,5,13)          -73.8099         -DE/DX =    0.0                 !
 --------------------------------------------------------------------------------
 GradGradGradGradGradGradGradGradGradGradGradGradGradGradGradGradGradGrad

                          Input orientation:                          
 ---------------------------------------------------------------------
 Center     Atomic      Atomic             Coordinates (Angstroms)
 Number     Number       Type             X           Y           Z
 ---------------------------------------------------------------------
      1          6           0        0.990964    2.049879    1.239356
      2          8           0        1.593766    3.222995    0.738033
      3          6           0        1.984361    0.903430    1.134449
      4          6           0        3.294323    1.154359    1.881110
      5          8           0        4.129498    2.069050    1.234313
      6          1           0        0.091993    1.818209    0.673751
      7          1           0        0.702432    2.194392    2.278882
      8          1           0        1.002189    3.956821    0.827359
      9          1           0        2.209041    0.712051    0.089734
     10          1           0        1.506777    0.011988    1.535361
     11          1           0        3.853563    0.229653    1.951284
     12          1           0        3.078499    1.477301    2.900503
     13          1           0        3.618795    2.839271    1.019165
 ---------------------------------------------------------------------
                    Distance matrix (angstroms):
                    1          2          3          4          5
     1  C    0.000000
     2  O    1.410991   0.000000
     3  C    1.520589   2.385391   0.000000
     4  C    2.553286   2.911662   1.528551   0.000000
     5  O    3.138597   2.829809   2.443410   1.397327   0.000000
     6  H    1.087073   2.057395   2.151771   3.486162   4.083943
     7  H    1.088461   2.055897   2.149337   2.820955   3.584914
     8  H    1.950973   0.946806   3.222136   3.770684   3.675507
     9  H    2.143625   2.665275   1.085603   2.140677   2.615275
    10  H    2.122895   3.309662   1.087882   2.149388   3.346759
    11  H    3.466199   3.941922   2.148281   1.082937   1.993381
    12  H    2.728563   3.150897   2.155321   1.090886   2.056928
    13  H    2.752657   2.080150   2.536167   1.920198   0.948866
                    6          7          8          9         10
     6  H    0.000000
     7  H    1.758009   0.000000
     8  H    2.329316   2.302809   0.000000
     9  H    2.458973   3.042954   3.539648   0.000000
    10  H    2.450800   2.441861   4.039503   1.753025   0.000000
    11  H    4.278435   3.727887   4.825486   2.530321   2.393276
    12  H    3.740836   2.558578   3.841485   3.040063   2.545793
    13  H    3.687846   3.241593   2.851725   2.715937   3.566596
                   11         12         13
    11  H    0.000000
    12  H    1.748818   0.000000
    13  H    2.781019   2.384599   0.000000
 Stoichiometry    C3H8O2
 Framework group  C1[X(C3H8O2)]
 Deg. of freedom    33
 Full point group                 C1      NOp   1
 Largest Abelian subgroup         C1      NOp   1
 Largest concise Abelian subgroup C1      NOp   1
                         Standard orientation:                         
 ---------------------------------------------------------------------
 Center     Atomic      Atomic             Coordinates (Angstroms)
 Number     Number       Type             X           Y           Z
 ---------------------------------------------------------------------
      1          6           0        1.295886    0.460067    0.160308
      2          8           0        1.309303   -0.932105   -0.068978
      3          6           0       -0.022196    1.028198   -0.341763
      4          6           0       -1.252144    0.398867    0.312178
      5          8           0       -1.519137   -0.893225   -0.147971
      6          1           0        2.127460    0.933783   -0.355256
      7          1           0        1.404206    0.663400    1.224108
      8          1           0        2.108727   -1.310160    0.269309
      9          1           0       -0.090244    0.892356   -1.416682
     10          1           0       -0.018815    2.098401   -0.146465
     11          1           0       -2.128444    0.991071    0.079487
     12          1           0       -1.135906    0.409761    1.396799
     13          1           0       -0.717588   -1.398765   -0.100050
 ---------------------------------------------------------------------
 Rotational constants (GHZ):      7.8869373      3.8949211      2.8749994

 **********************************************************************

            Population analysis using the SCF density.

 **********************************************************************

 Orbital symmetries:
       Occupied  (A) (A) (A) (A) (A) (A) (A) (A) (A) (A) (A) (A)
                 (A) (A) (A) (A) (A) (A) (A) (A) (A)
       Virtual   (A) (A) (A) (A) (A) (A) (A) (A) (A) (A) (A) (A)
                 (A) (A) (A) (A) (A) (A) (A) (A) (A) (A) (A) (A)
                 (A) (A) (A) (A) (A) (A) (A) (A) (A) (A) (A) (A)
                 (A) (A) (A) (A) (A) (A) (A) (A) (A) (A) (A) (A)
                 (A) (A) (A) (A) (A) (A) (A) (A) (A) (A) (A) (A)
                 (A) (A) (A) (A) (A) (A) (A) (A) (A) (A)
 The electronic state is 1-A.
 Alpha  occ. eigenvalues --  -20.57558 -20.53174 -11.28361 -11.26183 -11.22090
 Alpha  occ. eigenvalues --   -1.38142  -1.34246  -1.04740  -0.91413  -0.81245
 Alpha  occ. eigenvalues --   -0.72584  -0.69004  -0.63004  -0.60470  -0.60023
 Alpha  occ. eigenvalues --   -0.56106  -0.52510  -0.51261  -0.46510  -0.44524
 Alpha  occ. eigenvalues --   -0.41806
 Alpha virt. eigenvalues --    0.20908   0.25620   0.28946   0.29422   0.31286
 Alpha virt. eigenvalues --    0.32227   0.32695   0.35137   0.38826   0.40071
 Alpha virt. eigenvalues --    0.45542   0.45890   0.73365   0.73721   0.79435
 Alpha virt. eigenvalues --    0.80732   0.82799   0.89645   0.92364   0.96147
 Alpha virt. eigenvalues --    1.06574   1.09189   1.09793   1.11858   1.12830
 Alpha virt. eigenvalues --    1.16348   1.18016   1.20316   1.21105   1.23481
 Alpha virt. eigenvalues --    1.25270   1.27664   1.35260   1.36864   1.44529
 Alpha virt. eigenvalues --    1.49920   1.57544   1.66018   1.70270   1.77447
 Alpha virt. eigenvalues --    1.84669   1.92623   1.95492   1.97521   2.03316
 Alpha virt. eigenvalues --    2.08706   2.16253   2.23161   2.25567   2.33172
 Alpha virt. eigenvalues --    2.37277   2.49088   2.49594   2.55448   2.63011
 Alpha virt. eigenvalues --    2.68250   2.74057   2.77884   2.78763   2.88878
 Alpha virt. eigenvalues --    2.91084   3.00821   3.03465   3.20218   3.23676
 Alpha virt. eigenvalues --    4.20231   4.25149   4.60866   4.78372   4.92566
          Condensed to atoms (all electrons):
               1          2          3          4          5          6
     1  C    4.802406   0.195667   0.353079  -0.048002  -0.000546   0.407667
     2  O    0.195667   8.417779  -0.058728   0.005499  -0.007334  -0.038076
     3  C    0.353079  -0.058728   5.196842   0.339519  -0.049854  -0.044209
     4  C   -0.048002   0.005499   0.339519   4.734157   0.233949   0.004972
     5  O   -0.000546  -0.007334  -0.049854   0.233949   8.401839  -0.000169
     6  H    0.407667  -0.038076  -0.044209   0.004972  -0.000169   0.569271
     7  H    0.397720  -0.041090  -0.042591  -0.007105   0.000079  -0.044193
     8  H   -0.020781   0.262636   0.005754  -0.000236   0.000280  -0.002828
     9  H   -0.040785   0.001764   0.389675  -0.039810   0.002529  -0.004790
    10  H   -0.041781   0.002889   0.381042  -0.033310   0.003186  -0.001348
    11  H    0.004585  -0.000056  -0.042568   0.414092  -0.039841  -0.000087
    12  H   -0.007570   0.000239  -0.056857   0.394652  -0.041870  -0.000072
    13  H   -0.000296   0.017854  -0.005981  -0.024990   0.260528   0.000182
               7          8          9         10         11         12
     1  C    0.397720  -0.020781  -0.040785  -0.041781   0.004585  -0.007570
     2  O   -0.041090   0.262636   0.001764   0.002889  -0.000056   0.000239
     3  C   -0.042591   0.005754   0.389675   0.381042  -0.042568  -0.056857
     4  C   -0.007105  -0.000236  -0.039810  -0.033310   0.414092   0.394652
     5  O    0.000079   0.000280   0.002529   0.003186  -0.039841  -0.041870
     6  H   -0.044193  -0.002828  -0.004790  -0.001348  -0.000087  -0.000072
     7  H    0.588235  -0.003690   0.004855  -0.000374  -0.000158   0.003488
     8  H   -0.003690   0.310744  -0.000170  -0.000164   0.000009  -0.000055
     9  H    0.004855  -0.000170   0.518608  -0.021299  -0.003615   0.005212
    10  H   -0.000374  -0.000164  -0.021299   0.552270  -0.002823   0.002362
    11  H   -0.000158   0.000009  -0.003615  -0.002823   0.542272  -0.041625
    12  H    0.003488  -0.000055   0.005212   0.002362  -0.041625   0.615436
    13  H    0.000205  -0.000235   0.000136  -0.000031   0.004759  -0.001947
              13
     1  C   -0.000296
     2  O    0.017854
     3  C   -0.005981
     4  C   -0.024990
     5  O    0.260528
     6  H    0.000182
     7  H    0.000205
     8  H   -0.000235
     9  H    0.000136
    10  H   -0.000031
    11  H    0.004759
    12  H   -0.001947
    13  H    0.275889
 Mulliken charges:
               1
     1  C   -0.001362
     2  O   -0.759042
     3  C   -0.365123
     4  C    0.026613
     5  O   -0.762774
     6  H    0.153678
     7  H    0.144617
     8  H    0.448736
     9  H    0.187690
    10  H    0.159381
    11  H    0.165055
    12  H    0.128605
    13  H    0.473928
 Sum of Mulliken charges =  -0.00000
 Mulliken charges with hydrogens summed into heavy atoms:
               1
     1  C    0.296933
     2  O   -0.310306
     3  C   -0.018053
     4  C    0.320272
     5  O   -0.288847
 Electronic spatial extent (au):  <R**2>=            459.9835
 Charge=             -0.0000 electrons
 Dipole moment (field-independent basis, Debye):
    X=              3.2734    Y=              1.4415    Z=              1.2424  Tot=              3.7864
 Quadrupole moment (field-independent basis, Debye-Ang):
   XX=            -30.6501   YY=            -30.1090   ZZ=            -31.8255
   XY=             -4.4685   XZ=              0.8225   YZ=             -1.1891
 Traceless Quadrupole moment (field-independent basis, Debye-Ang):
   XX=              0.2114   YY=              0.7526   ZZ=             -0.9639
   XY=             -4.4685   XZ=              0.8225   YZ=             -1.1891
 Octapole moment (field-independent basis, Debye-Ang**2):
  XXX=             22.5888  YYY=            -11.6318  ZZZ=             -0.2656  XYY=              5.5760
  XXY=             -1.3910  XXZ=              4.0284  XZZ=              1.0994  YZZ=             -2.1631
  YYZ=              1.1925  XYZ=             -1.5137
 Hexadecapole moment (field-independent basis, Debye-Ang**3):
 XXXX=           -306.2978 YYYY=           -160.5215 ZZZZ=            -60.9518 XXXY=            -34.0402
 XXXZ=              5.0680 YYYX=             -8.8793 YYYZ=              0.1069 ZZZX=              1.6567
 ZZZY=             -0.2222 XXYY=            -77.8642 XXZZ=            -66.5493 YYZZ=            -40.4108
 XXYZ=             -5.7434 YYXZ=              2.8317 ZZXY=             -0.9713
 N-N= 1.956455466000D+02 E-N=-1.021699684255D+03  KE= 2.675853946775D+02
 1\1\GINC-GTX1080DELTA\FOpt\RHF\6-31G(d)\C3H8O2\MVEROT\17-Apr-2022\0\\#
  hf/6-31G* opt\\Optimisation de geometrie\\0,1\C,0.9909635268,2.049879
 4591,1.2393562832\O,1.5937656462,3.2229949601,0.7380334341\C,1.9843608
 978,0.9034303491,1.134448831\C,3.2943225293,1.1543585357,1.881109869\O
 ,4.1294978836,2.0690499221,1.2343134328\H,0.0919933659,1.8182090986,0.
 6737508667\H,0.7024323767,2.1943923788,2.2788815781\H,1.002189457,3.95
 68211255,0.82735895\H,2.2090405095,0.7120512539,0.08973449\H,1.5067774
 51,0.0119877515,1.5353608046\H,3.8535626734,0.22965337,1.9512836846\H,
 3.0784985961,1.4773007754,2.9005026552\H,3.6187950866,2.8392710204,1.0
 191651207\\Version=AM64L-G09RevD.01\State=1-A\HF=-267.9611372\RMSD=5.3
 40e-09\RMSF=2.631e-05\Dipole=-1.4479308,0.1292701,0.3254986\Quadrupole
 =-2.2874591,3.2264126,-0.9389535,-2.0609151,0.2269497,-0.2394514\PG=C0
 1 [X(C3H8O2)]\\@


 I CLAIM NOT TO HAVE CONTROLLED EVENTS,
 BUT CONFESS PLAINLY THAT EVENTS HAVE CONTROLLED ME.

                                         A. LINCOLN
 Job cpu time:       0 days  0 hours  0 minutes 19.9 seconds.
 File lengths (MBytes):  RWF=    132 Int=      0 D2E=      0 Chk=      3 Scr=      2
 Normal termination of Gaussian 09 at Sun Apr 17 23:25:20 2022.
