 Entering Gaussian System, Link 0=g09
 Input=/scratch/mverot/cyclobutane-ion-relaxed/cyclobutane-ion-relaxed.com
 Output=/scratch/mverot/cyclobutane-ion-relaxed/cyclobutane-ion-relaxed.log
 Initial command:
 /opt/g09/l1.exe "/scratch/mverot/cyclobutane-ion-relaxed/Gau-842183.inp" -scrdir="/scratch/mverot/cyclobutane-ion-relaxed/"
 Entering Link 1 = /opt/g09/l1.exe PID=    842185.
  
 Copyright (c) 1988,1990,1992,1993,1995,1998,2003,2009,2013,
            Gaussian, Inc.  All Rights Reserved.
  
 This is part of the Gaussian(R) 09 program.  It is based on
 the Gaussian(R) 03 system (copyright 2003, Gaussian, Inc.),
 the Gaussian(R) 98 system (copyright 1998, Gaussian, Inc.),
 the Gaussian(R) 94 system (copyright 1995, Gaussian, Inc.),
 the Gaussian 92(TM) system (copyright 1992, Gaussian, Inc.),
 the Gaussian 90(TM) system (copyright 1990, Gaussian, Inc.),
 the Gaussian 88(TM) system (copyright 1988, Gaussian, Inc.),
 the Gaussian 86(TM) system (copyright 1986, Carnegie Mellon
 University), and the Gaussian 82(TM) system (copyright 1983,
 Carnegie Mellon University). Gaussian is a federally registered
 trademark of Gaussian, Inc.
  
 This software contains proprietary and confidential information,
 including trade secrets, belonging to Gaussian, Inc.
  
 This software is provided under written license and may be
 used, copied, transmitted, or stored only in accord with that
 written license.
  
 The following legend is applicable only to US Government
 contracts under FAR:
  
                    RESTRICTED RIGHTS LEGEND
  
 Use, reproduction and disclosure by the US Government is
 subject to restrictions as set forth in subparagraphs (a)
 and (c) of the Commercial Computer Software - Restricted
 Rights clause in FAR 52.227-19.
  
 Gaussian, Inc.
 340 Quinnipiac St., Bldg. 40, Wallingford CT 06492
  
  
 ---------------------------------------------------------------
 Warning -- This program may not be used in any manner that
 competes with the business of Gaussian, Inc. or will provide
 assistance to any competitor of Gaussian, Inc.  The licensee
 of this program is prohibited from giving any competitor of
 Gaussian, Inc. access to this program.  By using this program,
 the user acknowledges that Gaussian, Inc. is engaged in the
 business of creating and licensing software in the field of
 computational chemistry and represents and warrants to the
 licensee that it is not a competitor of Gaussian, Inc. and that
 it will not use this program in any manner prohibited above.
 ---------------------------------------------------------------
  

 Cite this work as:
 Gaussian 09, Revision D.01,
 M. J. Frisch, G. W. Trucks, H. B. Schlegel, G. E. Scuseria, 
 M. A. Robb, J. R. Cheeseman, G. Scalmani, V. Barone, B. Mennucci, 
 G. A. Petersson, H. Nakatsuji, M. Caricato, X. Li, H. P. Hratchian, 
 A. F. Izmaylov, J. Bloino, G. Zheng, J. L. Sonnenberg, M. Hada, 
 M. Ehara, K. Toyota, R. Fukuda, J. Hasegawa, M. Ishida, T. Nakajima, 
 Y. Honda, O. Kitao, H. Nakai, T. Vreven, J. A. Montgomery, Jr., 
 J. E. Peralta, F. Ogliaro, M. Bearpark, J. J. Heyd, E. Brothers, 
 K. N. Kudin, V. N. Staroverov, T. Keith, R. Kobayashi, J. Normand, 
 K. Raghavachari, A. Rendell, J. C. Burant, S. S. Iyengar, J. Tomasi, 
 M. Cossi, N. Rega, J. M. Millam, M. Klene, J. E. Knox, J. B. Cross, 
 V. Bakken, C. Adamo, J. Jaramillo, R. Gomperts, R. E. Stratmann, 
 O. Yazyev, A. J. Austin, R. Cammi, C. Pomelli, J. W. Ochterski, 
 R. L. Martin, K. Morokuma, V. G. Zakrzewski, G. A. Voth, 
 P. Salvador, J. J. Dannenberg, S. Dapprich, A. D. Daniels, 
 O. Farkas, J. B. Foresman, J. V. Ortiz, J. Cioslowski, 
 and D. J. Fox, Gaussian, Inc., Wallingford CT, 2013.
 
 ******************************************
 Gaussian 09:  AM64L-G09RevD.01 24-Apr-2013
                16-Apr-2022 
 ******************************************
 %chk=cyclobutane-ion-relaxed
 ---------------
 # hf/6-31G* Opt
 ---------------
 1/18=20,19=15,38=1/1,3;
 2/9=110,12=2,17=6,18=5,40=1/2;
 3/5=1,6=6,7=1,11=9,16=1,25=1,30=1,71=1/1,2,3;
 4//1;
 5/5=2,38=5/2;
 6/7=2,8=2,9=2,10=2,28=1/1;
 7//1,2,3,16;
 1/18=20,19=15/3(2);
 2/9=110/2;
 99//99;
 2/9=110/2;
 3/5=1,6=6,7=1,11=9,16=1,25=1,30=1,71=1/1,2,3;
 4/5=5,16=3,69=1/1;
 5/5=2,38=5/2;
 7//1,2,3,16;
 1/18=20,19=15/3(-5);
 2/9=110/2;
 6/7=2,8=2,9=2,10=2,19=2,28=1/1;
 99/9=1/99;
 -------------------------
 Optimisation de geometrie
 -------------------------
 Symbolic Z-matrix:
 Charge =  1 Multiplicity = 2
 C                     1.82595   2.92907   0.92959 
 C                     0.75877   1.79655   0.97737 
 C                     1.71782   0.57045   0.95249 
 C                     2.785     1.70296   0.90472 
 H                     1.88814   3.57131   1.8367 
 H                     1.82196   3.5566    0.01014 
 H                     0.15002   1.81532   0.03587 
 H                     0.21973   1.83081   1.96003 
 H                     1.65563  -0.07179   0.04538 
 H                     1.72181  -0.05709   1.87194 
 H                     3.32404   1.66871  -0.07794 
 H                     3.39374   1.6842    1.84622 
 

 GradGradGradGradGradGradGradGradGradGradGradGradGradGradGradGradGradGrad
 Berny optimization.
 Initialization pass.
                           ----------------------------
                           !    Initial Parameters    !
                           ! (Angstroms and Degrees)  !
 --------------------------                            --------------------------
 ! Name  Definition              Value          Derivative Info.                !
 --------------------------------------------------------------------------------
 ! R1    R(1,2)                  1.5568         estimate D2E/DX2                !
 ! R2    R(1,4)                  1.5568         estimate D2E/DX2                !
 ! R3    R(1,5)                  1.1132         estimate D2E/DX2                !
 ! R4    R(1,6)                  1.1132         estimate D2E/DX2                !
 ! R5    R(2,3)                  1.5568         estimate D2E/DX2                !
 ! R6    R(2,7)                  1.1213         estimate D2E/DX2                !
 ! R7    R(2,8)                  1.1213         estimate D2E/DX2                !
 ! R8    R(3,4)                  1.5568         estimate D2E/DX2                !
 ! R9    R(3,9)                  1.1132         estimate D2E/DX2                !
 ! R10   R(3,10)                 1.1132         estimate D2E/DX2                !
 ! R11   R(4,11)                 1.1213         estimate D2E/DX2                !
 ! R12   R(4,12)                 1.1213         estimate D2E/DX2                !
 ! A1    A(2,1,4)               81.3643         estimate D2E/DX2                !
 ! A2    A(2,1,5)              115.6565         estimate D2E/DX2                !
 ! A3    A(2,1,6)              115.6565         estimate D2E/DX2                !
 ! A4    A(4,1,5)              115.6567         estimate D2E/DX2                !
 ! A5    A(4,1,6)              115.6568         estimate D2E/DX2                !
 ! A6    A(5,1,6)              110.3663         estimate D2E/DX2                !
 ! A7    A(1,2,3)               98.6357         estimate D2E/DX2                !
 ! A8    A(1,2,7)              109.5235         estimate D2E/DX2                !
 ! A9    A(1,2,8)              109.5234         estimate D2E/DX2                !
 ! A10   A(3,2,7)              109.5238         estimate D2E/DX2                !
 ! A11   A(3,2,8)              109.5237         estimate D2E/DX2                !
 ! A12   A(7,2,8)              118.3153         estimate D2E/DX2                !
 ! A13   A(2,3,4)               81.3643         estimate D2E/DX2                !
 ! A14   A(2,3,9)              115.6567         estimate D2E/DX2                !
 ! A15   A(2,3,10)             115.6568         estimate D2E/DX2                !
 ! A16   A(4,3,9)              115.6565         estimate D2E/DX2                !
 ! A17   A(4,3,10)             115.6564         estimate D2E/DX2                !
 ! A18   A(9,3,10)             110.3663         estimate D2E/DX2                !
 ! A19   A(1,4,3)               98.6357         estimate D2E/DX2                !
 ! A20   A(1,4,11)             109.5238         estimate D2E/DX2                !
 ! A21   A(1,4,12)             109.5238         estimate D2E/DX2                !
 ! A22   A(3,4,11)             109.5234         estimate D2E/DX2                !
 ! A23   A(3,4,12)             109.5234         estimate D2E/DX2                !
 ! A24   A(11,4,12)            118.3153         estimate D2E/DX2                !
 ! D1    D(4,1,2,3)             -0.0001         estimate D2E/DX2                !
 ! D2    D(4,1,2,7)           -114.3622         estimate D2E/DX2                !
 ! D3    D(4,1,2,8)            114.3619         estimate D2E/DX2                !
 ! D4    D(5,1,2,3)           -114.3869         estimate D2E/DX2                !
 ! D5    D(5,1,2,7)            131.251          estimate D2E/DX2                !
 ! D6    D(5,1,2,8)             -0.0249         estimate D2E/DX2                !
 ! D7    D(6,1,2,3)            114.3868         estimate D2E/DX2                !
 ! D8    D(6,1,2,7)              0.0247         estimate D2E/DX2                !
 ! D9    D(6,1,2,8)           -131.2512         estimate D2E/DX2                !
 ! D10   D(2,1,4,3)              0.0001         estimate D2E/DX2                !
 ! D11   D(2,1,4,11)           114.3619         estimate D2E/DX2                !
 ! D12   D(2,1,4,12)          -114.3617         estimate D2E/DX2                !
 ! D13   D(5,1,4,3)            114.3867         estimate D2E/DX2                !
 ! D14   D(5,1,4,11)          -131.2515         estimate D2E/DX2                !
 ! D15   D(5,1,4,12)             0.0249         estimate D2E/DX2                !
 ! D16   D(6,1,4,3)           -114.3865         estimate D2E/DX2                !
 ! D17   D(6,1,4,11)            -0.0247         estimate D2E/DX2                !
 ! D18   D(6,1,4,12)           131.2517         estimate D2E/DX2                !
 ! D19   D(1,2,3,4)              0.0001         estimate D2E/DX2                !
 ! D20   D(1,2,3,9)           -114.3865         estimate D2E/DX2                !
 ! D21   D(1,2,3,10)           114.3866         estimate D2E/DX2                !
 ! D22   D(7,2,3,4)            114.362          estimate D2E/DX2                !
 ! D23   D(7,2,3,9)             -0.0246         estimate D2E/DX2                !
 ! D24   D(7,2,3,10)          -131.2515         estimate D2E/DX2                !
 ! D25   D(8,2,3,4)           -114.3617         estimate D2E/DX2                !
 ! D26   D(8,2,3,9)            131.2517         estimate D2E/DX2                !
 ! D27   D(8,2,3,10)             0.0248         estimate D2E/DX2                !
 ! D28   D(2,3,4,1)             -0.0001         estimate D2E/DX2                !
 ! D29   D(2,3,4,11)          -114.3622         estimate D2E/DX2                !
 ! D30   D(2,3,4,12)           114.362          estimate D2E/DX2                !
 ! D31   D(9,3,4,1)            114.3867         estimate D2E/DX2                !
 ! D32   D(9,3,4,11)             0.0247         estimate D2E/DX2                !
 ! D33   D(9,3,4,12)          -131.2512         estimate D2E/DX2                !
 ! D34   D(10,3,4,1)          -114.387          estimate D2E/DX2                !
 ! D35   D(10,3,4,11)          131.251          estimate D2E/DX2                !
 ! D36   D(10,3,4,12)           -0.0249         estimate D2E/DX2                !
 --------------------------------------------------------------------------------
 Trust Radius=3.00D-01 FncErr=1.00D-07 GrdErr=1.00D-07
 Number of steps in this run=     82 maximum allowed number of steps=    100.
 GradGradGradGradGradGradGradGradGradGradGradGradGradGradGradGradGradGrad

                          Input orientation:                          
 ---------------------------------------------------------------------
 Center     Atomic      Atomic             Coordinates (Angstroms)
 Number     Number       Type             X           Y           Z
 ---------------------------------------------------------------------
      1          6           0        1.825947    2.929071    0.929587
      2          6           0        0.758771    1.796552    0.977368
      3          6           0        1.717819    0.570446    0.952495
      4          6           0        2.784996    1.702965    0.904716
      5          1           0        1.888136    3.571312    1.836702
      6          1           0        1.821962    3.556604    0.010138
      7          1           0        0.150020    1.815318    0.035867
      8          1           0        0.219733    1.830811    1.960028
      9          1           0        1.655631   -0.071794    0.045379
     10          1           0        1.721805   -0.057088    1.871942
     11          1           0        3.324037    1.668706   -0.077941
     12          1           0        3.393743    1.684198    1.846220
 ---------------------------------------------------------------------
                    Distance matrix (angstroms):
                    1          2          3          4          5
     1  C    0.000000
     2  C    1.556839   0.000000
     3  C    2.361214   1.556833   0.000000
     4  C    1.556833   2.029686   1.556839   0.000000
     5  H    1.113193   2.272376   3.133054   2.272372   0.000000
     6  H    1.113193   2.272375   3.133053   2.272374   1.827821
     7  H    2.201798   1.121318   2.201797   2.776800   3.057379
     8  H    2.201797   1.121319   2.201796   2.776797   2.414150
     9  H    3.133053   2.272373   1.113193   2.272376   4.066340
    10  H    3.133054   2.272374   1.113193   2.272375   3.632382
    11  H    2.201796   2.776799   2.201797   1.121318   3.057382
    12  H    2.201797   2.776798   2.201797   1.121318   2.414155
                    6          7          8          9         10
     6  H    0.000000
     7  H    2.414151   0.000000
     8  H    3.057379   1.925486   0.000000
     9  H    3.632379   2.414155   3.057382   0.000000
    10  H    4.066340   3.057383   2.414154   1.827821   0.000000
    11  H    2.414156   3.179438   3.717028   2.414151   3.057378
    12  H    3.057384   3.717030   3.179432   3.057380   2.414150
                   11         12
    11  H    0.000000
    12  H    1.925486   0.000000
 Stoichiometry    C4H8(1+,2)
 Framework group  C1[X(C4H8)]
 Deg. of freedom    30
 Full point group                 C1      NOp   1
 Largest Abelian subgroup         C1      NOp   1
 Largest concise Abelian subgroup C1      NOp   1
                         Standard orientation:                         
 ---------------------------------------------------------------------
 Center     Atomic      Atomic             Coordinates (Angstroms)
 Number     Number       Type             X           Y           Z
 ---------------------------------------------------------------------
      1          6           0        1.180607    0.000003   -0.000001
      2          6           0       -0.000007    1.014843    0.000001
      3          6           0       -1.180607   -0.000003   -0.000001
      4          6           0        0.000007   -1.014843    0.000000
      5          1           0        1.816191    0.000008    0.913909
      6          1           0        1.816190    0.000011   -0.913912
      7          1           0       -0.000006    1.589720   -0.962740
      8          1           0       -0.000006    1.589715    0.962746
      9          1           0       -1.816190   -0.000008   -0.913912
     10          1           0       -1.816191   -0.000011    0.913909
     11          1           0        0.000005   -1.589718   -0.962742
     12          1           0        0.000005   -1.589717    0.962744
 ---------------------------------------------------------------------
 Rotational constants (GHZ):     12.0301892      9.3844175      6.1891934
 Standard basis: 6-31G(d) (6D, 7F)
 There are    76 symmetry adapted cartesian basis functions of A   symmetry.
 There are    76 symmetry adapted basis functions of A   symmetry.
    76 basis functions,   144 primitive gaussians,    76 cartesian basis functions
    16 alpha electrons       15 beta electrons
       nuclear repulsion energy       125.9130731133 Hartrees.
 NAtoms=   12 NActive=   12 NUniq=   12 SFac= 1.00D+00 NAtFMM=   60 NAOKFM=F Big=F
 Integral buffers will be    131072 words long.
 Raffenetti 2 integral format.
 Two-electron integral symmetry is turned on.
 One-electron integrals computed using PRISM.
 NBasis=    76 RedAO= T EigKep=  2.84D-03  NBF=    76
 NBsUse=    76 1.00D-06 EigRej= -1.00D+00 NBFU=    76
 ExpMin= 1.61D-01 ExpMax= 3.05D+03 ExpMxC= 4.57D+02 IAcc=1 IRadAn=         1 AccDes= 0.00D+00
 Harris functional with IExCor=  205 and IRadAn=       1 diagonalized for initial guess.
 HarFok:  IExCor=  205 AccDes= 0.00D+00 IRadAn=         1 IDoV= 1 UseB2=F ITyADJ=14
 ICtDFT=  3500011 ScaDFX=  1.000000  1.000000  1.000000  1.000000
 FoFCou: FMM=F IPFlag=           0 FMFlag=      100000 FMFlg1=           0
         NFxFlg=           0 DoJE=T BraDBF=F KetDBF=T FulRan=T
         wScrn=  0.000000 ICntrl=     500 IOpCl=  0 I1Cent=   200000004 NGrid=           0
         NMat0=    1 NMatS0=      1 NMatT0=    0 NMatD0=    1 NMtDS0=    0 NMtDT0=    0
 Petite list used in FoFCou.
 Initial guess <Sx>= 0.0000 <Sy>= 0.0000 <Sz>= 0.5000 <S**2>= 0.7500 S= 0.5000
 Keep R1 and R2 ints in memory in canonical form, NReq=9465440.
 Requested convergence on RMS density matrix=1.00D-08 within 128 cycles.
 Requested convergence on MAX density matrix=1.00D-06.
 Requested convergence on             energy=1.00D-06.
 No special actions if energy rises.
 SCF Done:  E(UHF) =  -155.749744462     A.U. after   13 cycles
            NFock= 13  Conv=0.60D-08     -V/T= 2.0024
 <Sx>= 0.0000 <Sy>= 0.0000 <Sz>= 0.5000 <S**2>= 0.7640 S= 0.5070
 <L.S>=  0.00000000000    
 Annihilation of the first spin contaminant:
 S**2 before annihilation     0.7640,   after     0.7501

 **********************************************************************

            Population analysis using the SCF density.

 **********************************************************************

 Orbital symmetries:
 Alpha Orbitals:
       Occupied  (A) (A) (A) (A) (A) (A) (A) (A) (A) (A) (A) (A)
                 (A) (A) (A) (A)
       Virtual   (A) (A) (A) (A) (A) (A) (A) (A) (A) (A) (A) (A)
                 (A) (A) (A) (A) (A) (A) (A) (A) (A) (A) (A) (A)
                 (A) (A) (A) (A) (A) (A) (A) (A) (A) (A) (A) (A)
                 (A) (A) (A) (A) (A) (A) (A) (A) (A) (A) (A) (A)
                 (A) (A) (A) (A) (A) (A) (A) (A) (A) (A) (A) (A)
 Beta  Orbitals:
       Occupied  (A) (A) (A) (A) (A) (A) (A) (A) (A) (A) (A) (A)
                 (A) (A) (A)
       Virtual   (A) (A) (A) (A) (A) (A) (A) (A) (A) (A) (A) (A)
                 (A) (A) (A) (A) (A) (A) (A) (A) (A) (A) (A) (A)
                 (A) (A) (A) (A) (A) (A) (A) (A) (A) (A) (A) (A)
                 (A) (A) (A) (A) (A) (A) (A) (A) (A) (A) (A) (A)
                 (A) (A) (A) (A) (A) (A) (A) (A) (A) (A) (A) (A)
                 (A)
 The electronic state is 2-A.
 Alpha  occ. eigenvalues --  -11.50291 -11.50287 -11.48860 -11.48856  -1.40545
 Alpha  occ. eigenvalues --   -1.16406  -1.14669  -0.97508  -0.91697  -0.88455
 Alpha  occ. eigenvalues --   -0.80345  -0.78209  -0.76530  -0.73103  -0.69399
 Alpha  occ. eigenvalues --   -0.64879
 Alpha virt. eigenvalues --    0.00181   0.01521   0.03630   0.07809   0.09999
 Alpha virt. eigenvalues --    0.12269   0.13498   0.13553   0.14040   0.20281
 Alpha virt. eigenvalues --    0.21616   0.28772   0.46930   0.49306   0.49323
 Alpha virt. eigenvalues --    0.49785   0.55591   0.63736   0.65086   0.66898
 Alpha virt. eigenvalues --    0.68474   0.77293   0.78968   0.80328   0.87397
 Alpha virt. eigenvalues --    0.88202   0.89387   0.90805   0.92299   0.95920
 Alpha virt. eigenvalues --    0.96715   0.98812   1.23480   1.27333   1.34607
 Alpha virt. eigenvalues --    1.34714   1.65505   1.75483   1.91973   1.92928
 Alpha virt. eigenvalues --    1.95361   1.97211   2.00107   2.05005   2.08273
 Alpha virt. eigenvalues --    2.08847   2.19242   2.25152   2.27098   2.36727
 Alpha virt. eigenvalues --    2.46730   2.60597   2.61438   2.63890   2.70025
 Alpha virt. eigenvalues --    2.89402   4.23160   4.48450   4.50918   4.81190
  Beta  occ. eigenvalues --  -11.49799 -11.49787 -11.48132 -11.48127  -1.36001
  Beta  occ. eigenvalues --   -1.13262  -1.10141  -0.95049  -0.90811  -0.81402
  Beta  occ. eigenvalues --   -0.78659  -0.77816  -0.72018  -0.69444  -0.68344
  Beta virt. eigenvalues --   -0.26731   0.00933   0.02438   0.06271   0.07744
  Beta virt. eigenvalues --    0.12243   0.12774   0.13820   0.14462   0.14779
  Beta virt. eigenvalues --    0.21885   0.23071   0.30056   0.49934   0.49952
  Beta virt. eigenvalues --    0.50330   0.54002   0.55984   0.64928   0.66844
  Beta virt. eigenvalues --    0.68517   0.72066   0.79373   0.80489   0.82217
  Beta virt. eigenvalues --    0.88715   0.88820   0.90476   0.91198   0.94060
  Beta virt. eigenvalues --    0.96845   0.97345   0.99937   1.26768   1.27829
  Beta virt. eigenvalues --    1.35785   1.36439   1.66069   1.78302   1.92951
  Beta virt. eigenvalues --    1.94004   1.97180   1.98058   2.02547   2.06004
  Beta virt. eigenvalues --    2.09157   2.11055   2.20293   2.27772   2.29010
  Beta virt. eigenvalues --    2.36928   2.47757   2.62274   2.62792   2.65677
  Beta virt. eigenvalues --    2.70966   2.91347   4.24116   4.49349   4.51592
  Beta virt. eigenvalues --    4.81759
          Condensed to atoms (all electrons):
               1          2          3          4          5          6
     1  C    5.286497   0.213420  -0.093485   0.213424   0.390761   0.390761
     2  C    0.213420   5.433018   0.213423  -0.099164  -0.027831  -0.027831
     3  C   -0.093485   0.213423   5.286498   0.213420   0.004749   0.004749
     4  C    0.213424  -0.099164   0.213420   5.433018  -0.027831  -0.027831
     5  H    0.390761  -0.027831   0.004749  -0.027831   0.392001  -0.010501
     6  H    0.390761  -0.027831   0.004749  -0.027831  -0.010501   0.392000
     7  H   -0.025917   0.368769  -0.025917   0.002842   0.001033  -0.002055
     8  H   -0.025917   0.368768  -0.025917   0.002842  -0.002055   0.001033
     9  H    0.004749  -0.027831   0.390761  -0.027831  -0.000069  -0.000142
    10  H    0.004749  -0.027831   0.390761  -0.027831  -0.000142  -0.000069
    11  H   -0.025917   0.002842  -0.025917   0.368768   0.001033  -0.002055
    12  H   -0.025917   0.002842  -0.025917   0.368769  -0.002055   0.001033
               7          8          9         10         11         12
     1  C   -0.025917  -0.025917   0.004749   0.004749  -0.025917  -0.025917
     2  C    0.368769   0.368768  -0.027831  -0.027831   0.002842   0.002842
     3  C   -0.025917  -0.025917   0.390761   0.390761  -0.025917  -0.025917
     4  C    0.002842   0.002842  -0.027831  -0.027831   0.368768   0.368769
     5  H    0.001033  -0.002055  -0.000069  -0.000142   0.001033  -0.002055
     6  H   -0.002055   0.001033  -0.000142  -0.000069  -0.002055   0.001033
     7  H    0.369108  -0.005753  -0.002055   0.001033  -0.000037  -0.000041
     8  H   -0.005753   0.369109   0.001033  -0.002055  -0.000041  -0.000037
     9  H   -0.002055   0.001033   0.392000  -0.010501  -0.002055   0.001033
    10  H    0.001033  -0.002055  -0.010501   0.392000   0.001033  -0.002055
    11  H   -0.000037  -0.000041  -0.002055   0.001033   0.369108  -0.005753
    12  H   -0.000041  -0.000037   0.001033  -0.002055  -0.005753   0.369108
          Atomic-Atomic Spin Densities.
               1          2          3          4          5          6
     1  C    0.298611   0.024154  -0.001271   0.024147  -0.007025  -0.007025
     2  C    0.024154   0.138825   0.024147  -0.096353   0.001162   0.001162
     3  C   -0.001271   0.024147   0.298613   0.024155   0.000111   0.000111
     4  C    0.024147  -0.096353   0.024155   0.138825   0.001163   0.001163
     5  H   -0.007025   0.001162   0.000111   0.001163  -0.019228   0.000995
     6  H   -0.007025   0.001162   0.000111   0.001163   0.000995  -0.019228
     7  H   -0.009678   0.008741  -0.009677   0.009006   0.000036   0.000015
     8  H   -0.009678   0.008741  -0.009677   0.009006   0.000015   0.000036
     9  H    0.000111   0.001163  -0.007025   0.001162   0.000004  -0.000014
    10  H    0.000111   0.001163  -0.007025   0.001162  -0.000014   0.000004
    11  H   -0.009677   0.009006  -0.009678   0.008741   0.000036   0.000015
    12  H   -0.009677   0.009006  -0.009678   0.008741   0.000015   0.000036
               7          8          9         10         11         12
     1  C   -0.009678  -0.009678   0.000111   0.000111  -0.009677  -0.009677
     2  C    0.008741   0.008741   0.001163   0.001163   0.009006   0.009006
     3  C   -0.009677  -0.009677  -0.007025  -0.007025  -0.009678  -0.009678
     4  C    0.009006   0.009006   0.001162   0.001162   0.008741   0.008741
     5  H    0.000036   0.000015   0.000004  -0.000014   0.000036   0.000015
     6  H    0.000015   0.000036  -0.000014   0.000004   0.000015   0.000036
     7  H    0.059666   0.003553   0.000015   0.000036  -0.000755  -0.000241
     8  H    0.003553   0.059666   0.000036   0.000015  -0.000241  -0.000755
     9  H    0.000015   0.000036  -0.019228   0.000995   0.000015   0.000036
    10  H    0.000036   0.000015   0.000995  -0.019228   0.000036   0.000015
    11  H   -0.000755  -0.000241   0.000015   0.000036   0.059666   0.003553
    12  H   -0.000241  -0.000755   0.000036   0.000015   0.003553   0.059665
 Mulliken charges and spin densities:
               1          2
     1  C   -0.307205   0.293105
     2  C   -0.392593   0.130918
     3  C   -0.307205   0.293108
     4  C   -0.392593   0.130918
     5  H    0.280908  -0.022729
     6  H    0.280908  -0.022729
     7  H    0.318991   0.060717
     8  H    0.318991   0.060717
     9  H    0.280908  -0.022729
    10  H    0.280908  -0.022729
    11  H    0.318991   0.060717
    12  H    0.318991   0.060716
 Sum of Mulliken charges =   1.00000   1.00000
 Mulliken charges and spin densities with hydrogens summed into heavy atoms:
               1          2
     1  C    0.254611   0.247648
     2  C    0.245388   0.252351
     3  C    0.254612   0.247650
     4  C    0.245388   0.252351
 Electronic spatial extent (au):  <R**2>=            255.2899
 Charge=              1.0000 electrons
 Dipole moment (field-independent basis, Debye):
    X=             -0.0000    Y=             -0.0000    Z=             -0.0000  Tot=              0.0000
 Quadrupole moment (field-independent basis, Debye-Ang):
   XX=            -18.9277   YY=            -18.7953   ZZ=            -20.1660
   XY=              0.0000   XZ=             -0.0000   YZ=             -0.0000
 Traceless Quadrupole moment (field-independent basis, Debye-Ang):
   XX=              0.3686   YY=              0.5010   ZZ=             -0.8697
   XY=              0.0000   XZ=             -0.0000   YZ=             -0.0000
 Octapole moment (field-independent basis, Debye-Ang**2):
  XXX=             -0.0000  YYY=              0.0000  ZZZ=              0.0000  XYY=             -0.0000
  XXY=              0.0000  XXZ=             -0.0000  XZZ=             -0.0000  YZZ=             -0.0000
  YYZ=             -0.0000  XYZ=              0.0000
 Hexadecapole moment (field-independent basis, Debye-Ang**3):
 XXXX=           -137.1402 YYYY=           -106.9833 ZZZZ=            -43.0585 XXXY=              0.0002
 XXXZ=              0.0000 YYYX=             -0.0001 YYYZ=             -0.0000 ZZZX=             -0.0000
 ZZZY=              0.0000 XXYY=            -49.4781 XXZZ=            -25.9337 YYZZ=            -19.2276
 XXYZ=             -0.0000 YYXZ=             -0.0000 ZZXY=              0.0000
 N-N= 1.259130731133D+02 E-N=-6.059169052858D+02  KE= 1.553795923412D+02
                          Isotropic Fermi Contact Couplings
        Atom                 a.u.       MegaHertz       Gauss      10(-4) cm-1
     1  C(13)              0.02220      24.95865       8.90587       8.32531
     2  C(13)              0.00390       4.38272       1.56386       1.46192
     3  C(13)              0.02220      24.95871       8.90589       8.32533
     4  C(13)              0.00390       4.38267       1.56384       1.46190
     5  H(1)              -0.00841     -37.60636     -13.41889     -12.54413
     6  H(1)              -0.00841     -37.60638     -13.41889     -12.54414
     7  H(1)               0.03256     145.53623      51.93094      48.54566
     8  H(1)               0.03256     145.53620      51.93093      48.54565
     9  H(1)              -0.00841     -37.60661     -13.41897     -12.54422
    10  H(1)              -0.00841     -37.60660     -13.41897     -12.54421
    11  H(1)               0.03256     145.53734      51.93134      48.54603
    12  H(1)               0.03256     145.53508      51.93053      48.54528
 --------------------------------------------------------
       Center         ----  Spin Dipole Couplings  ----
                      3XX-RR        3YY-RR        3ZZ-RR
 --------------------------------------------------------
     1   Atom       -0.170879      0.362232     -0.191352
     2   Atom       -0.203856      0.418481     -0.214625
     3   Atom       -0.170881      0.362234     -0.191353
     4   Atom       -0.203856      0.418481     -0.214625
     5   Atom        0.004998     -0.010961      0.005963
     6   Atom        0.004998     -0.010961      0.005963
     7   Atom       -0.023288     -0.009008      0.032296
     8   Atom       -0.023288     -0.009008      0.032296
     9   Atom        0.004998     -0.010961      0.005963
    10   Atom        0.004998     -0.010961      0.005963
    11   Atom       -0.023288     -0.009008      0.032296
    12   Atom       -0.023288     -0.009008      0.032296
 --------------------------------------------------------
                        XY            XZ            YZ
 --------------------------------------------------------
     1   Atom       -0.000013      0.000000      0.000001
     2   Atom       -0.000010      0.000000      0.000002
     3   Atom       -0.000013     -0.000000      0.000001
     4   Atom       -0.000012     -0.000000      0.000000
     5   Atom       -0.000000      0.029265      0.000000
     6   Atom        0.000000     -0.029265     -0.000001
     7   Atom       -0.000000     -0.000000     -0.007518
     8   Atom       -0.000000      0.000000      0.007517
     9   Atom       -0.000000      0.029265      0.000000
    10   Atom        0.000000     -0.029265     -0.000001
    11   Atom       -0.000000      0.000000      0.007517
    12   Atom       -0.000000     -0.000000     -0.007517
 --------------------------------------------------------


 ---------------------------------------------------------------------------------
              Anisotropic Spin Dipole Couplings in Principal Axis System
 ---------------------------------------------------------------------------------

       Atom             a.u.   MegaHertz   Gauss  10(-4) cm-1        Axes

              Baa    -0.1914   -25.678    -9.162    -8.565 -0.0000 -0.0000  1.0000
     1 C(13)  Bbb    -0.1709   -22.930    -8.182    -7.649  1.0000  0.0000  0.0000
              Bcc     0.3622    48.608    17.345    16.214 -0.0000  1.0000  0.0000
 
              Baa    -0.2146   -28.801   -10.277    -9.607 -0.0000 -0.0000  1.0000
     2 C(13)  Bbb    -0.2039   -27.356    -9.761    -9.125  1.0000  0.0000  0.0000
              Bcc     0.4185    56.156    20.038    18.732 -0.0000  1.0000  0.0000
 
              Baa    -0.1914   -25.678    -9.162    -8.565  0.0000 -0.0000  1.0000
     3 C(13)  Bbb    -0.1709   -22.931    -8.182    -7.649  1.0000  0.0000 -0.0000
              Bcc     0.3622    48.608    17.345    16.214 -0.0000  1.0000  0.0000
 
              Baa    -0.2146   -28.801   -10.277    -9.607  0.0000 -0.0000  1.0000
     4 C(13)  Bbb    -0.2039   -27.356    -9.761    -9.125  1.0000  0.0000 -0.0000
              Bcc     0.4185    56.156    20.038    18.732 -0.0000  1.0000  0.0000
 
              Baa    -0.0238   -12.692    -4.529    -4.234  0.7129  0.0000 -0.7013
     5 H(1)   Bbb    -0.0110    -5.848    -2.087    -1.951 -0.0000  1.0000  0.0000
              Bcc     0.0347    18.541     6.616     6.184  0.7013  0.0000  0.7129
 
              Baa    -0.0238   -12.692    -4.529    -4.234  0.7129  0.0000  0.7013
     6 H(1)   Bbb    -0.0110    -5.848    -2.087    -1.951 -0.0000  1.0000 -0.0000
              Bcc     0.0347    18.541     6.616     6.184 -0.7013 -0.0000  0.7129
 
              Baa    -0.0233   -12.426    -4.434    -4.145  1.0000  0.0000  0.0000
     7 H(1)   Bbb    -0.0103    -5.513    -1.967    -1.839 -0.0000  0.9848  0.1737
              Bcc     0.0336    17.939     6.401     5.984 -0.0000 -0.1737  0.9848
 
              Baa    -0.0233   -12.426    -4.434    -4.145  1.0000  0.0000 -0.0000
     8 H(1)   Bbb    -0.0103    -5.513    -1.967    -1.839 -0.0000  0.9848 -0.1737
              Bcc     0.0336    17.939     6.401     5.984  0.0000  0.1737  0.9848
 
              Baa    -0.0238   -12.693    -4.529    -4.234  0.7129  0.0000 -0.7013
     9 H(1)   Bbb    -0.0110    -5.848    -2.087    -1.951 -0.0000  1.0000  0.0000
              Bcc     0.0347    18.541     6.616     6.185  0.7013  0.0000  0.7129
 
              Baa    -0.0238   -12.693    -4.529    -4.234  0.7129  0.0000  0.7013
    10 H(1)   Bbb    -0.0110    -5.848    -2.087    -1.951 -0.0000  1.0000 -0.0000
              Bcc     0.0347    18.541     6.616     6.185 -0.7013 -0.0000  0.7129
 
              Baa    -0.0233   -12.426    -4.434    -4.145  1.0000  0.0000 -0.0000
    11 H(1)   Bbb    -0.0103    -5.513    -1.967    -1.839 -0.0000  0.9848 -0.1737
              Bcc     0.0336    17.939     6.401     5.984  0.0000  0.1737  0.9848
 
              Baa    -0.0233   -12.426    -4.434    -4.145  1.0000  0.0000  0.0000
    12 H(1)   Bbb    -0.0103    -5.513    -1.967    -1.839 -0.0000  0.9848  0.1737
              Bcc     0.0336    17.939     6.401     5.984 -0.0000 -0.1737  0.9848
 

 ---------------------------------------------------------------------------------

 Calling FoFJK, ICntrl=      2127 FMM=F ISym2X=0 I1Cent= 0 IOpClX= 1 NMat=1 NMatS=1 NMatT=0.
 ***** Axes restored to original set *****
 -------------------------------------------------------------------
 Center     Atomic                   Forces (Hartrees/Bohr)
 Number     Number              X              Y              Z
 -------------------------------------------------------------------
      1        6           0.002407717    0.052499728   -0.000509925
      2        6          -0.013755703    0.000634304    0.000493711
      3        6          -0.002407680   -0.052499876    0.000509953
      4        6           0.013755628   -0.000634013   -0.000493333
      5        1          -0.001415993   -0.015117767   -0.020014245
      6        1           0.000044824   -0.014793192    0.020304772
      7        1           0.015315314   -0.000509647    0.019812352
      8        1           0.013841837   -0.000837110   -0.020858155
      9        1           0.001415990    0.015117787    0.020014261
     10        1          -0.000044832    0.014793104   -0.020304752
     11        1          -0.013841845    0.000837074    0.020857942
     12        1          -0.015315258    0.000509609   -0.019812583
 -------------------------------------------------------------------
 Cartesian Forces:  Max     0.052499876 RMS     0.017430979

 GradGradGradGradGradGradGradGradGradGradGradGradGradGradGradGradGradGrad
 Berny optimization.
 FormGI is forming the generalized inverse of G from B-inverse, IUseBI=4.
 Internal  Forces:  Max     0.025110274 RMS     0.009218599
 Search for a local minimum.
 Step number   1 out of a maximum of   82
 All quantities printed in internal units (Hartrees-Bohrs-Radians)
 Mixed Optimization -- RFO/linear search
 Second derivative matrix not updated -- first step.
 ITU=  0
     Eigenvalues ---    0.00230   0.01955   0.02827   0.03134   0.03840
     Eigenvalues ---    0.03840   0.05372   0.05632   0.05784   0.05784
     Eigenvalues ---    0.06084   0.06697   0.06734   0.06864   0.06943
     Eigenvalues ---    0.08916   0.09105   0.21490   0.25519   0.25727
     Eigenvalues ---    0.27078   0.27078   0.31430   0.31430   0.31430
     Eigenvalues ---    0.31430   0.32264   0.32264   0.32264   0.32264
 RFO step:  Lambda=-1.99884204D-02 EMin= 2.30000000D-03
 Linear search not attempted -- first point.
 Iteration  1 RMS(Cart)=  0.03566112 RMS(Int)=  0.00050972
 Iteration  2 RMS(Cart)=  0.00035248 RMS(Int)=  0.00012995
 Iteration  3 RMS(Cart)=  0.00000013 RMS(Int)=  0.00012995
 Variable       Old X    -DE/DX   Delta X   Delta X   Delta X     New X
                                 (Linear)    (Quad)   (Total)
    R1        2.94200   0.00355   0.00000   0.01220   0.01220   2.95420
    R2        2.94199   0.00355   0.00000   0.01219   0.01219   2.95418
    R3        2.10363  -0.02511   0.00000  -0.07329  -0.07329   2.03034
    R4        2.10363  -0.02511   0.00000  -0.07329  -0.07329   2.03034
    R5        2.94199   0.00355   0.00000   0.01219   0.01219   2.95418
    R6        2.11898  -0.02496   0.00000  -0.07466  -0.07466   2.04432
    R7        2.11899  -0.02496   0.00000  -0.07466  -0.07466   2.04432
    R8        2.94200   0.00355   0.00000   0.01220   0.01220   2.95420
    R9        2.10363  -0.02511   0.00000  -0.07329  -0.07329   2.03034
   R10        2.10363  -0.02511   0.00000  -0.07329  -0.07329   2.03034
   R11        2.11898  -0.02496   0.00000  -0.07466  -0.07466   2.04432
   R12        2.11898  -0.02496   0.00000  -0.07466  -0.07466   2.04432
    A1        1.42008  -0.01327   0.00000  -0.06271  -0.06285   1.35723
    A2        2.01859   0.00361   0.00000   0.00917   0.00901   2.02760
    A3        2.01859   0.00361   0.00000   0.00917   0.00901   2.02760
    A4        2.01859   0.00361   0.00000   0.00917   0.00901   2.02760
    A5        2.01859   0.00361   0.00000   0.00917   0.00901   2.02760
    A6        1.92625  -0.00251   0.00000   0.01092   0.01054   1.93679
    A7        1.72152   0.01327   0.00000   0.06271   0.06285   1.78436
    A8        1.91155  -0.00376   0.00000  -0.01583  -0.01577   1.89578
    A9        1.91154  -0.00376   0.00000  -0.01583  -0.01577   1.89578
   A10        1.91155  -0.00376   0.00000  -0.01583  -0.01577   1.89578
   A11        1.91155  -0.00376   0.00000  -0.01583  -0.01577   1.89578
   A12        2.06499   0.00344   0.00000   0.00977   0.00934   2.07434
   A13        1.42008  -0.01327   0.00000  -0.06271  -0.06285   1.35723
   A14        2.01859   0.00361   0.00000   0.00917   0.00901   2.02760
   A15        2.01859   0.00361   0.00000   0.00917   0.00901   2.02760
   A16        2.01859   0.00361   0.00000   0.00917   0.00901   2.02760
   A17        2.01859   0.00361   0.00000   0.00917   0.00901   2.02760
   A18        1.92626  -0.00251   0.00000   0.01092   0.01054   1.93679
   A19        1.72152   0.01327   0.00000   0.06271   0.06285   1.78436
   A20        1.91155  -0.00376   0.00000  -0.01583  -0.01577   1.89578
   A21        1.91155  -0.00376   0.00000  -0.01583  -0.01577   1.89578
   A22        1.91154  -0.00376   0.00000  -0.01583  -0.01577   1.89578
   A23        1.91154  -0.00376   0.00000  -0.01583  -0.01577   1.89578
   A24        2.06499   0.00344   0.00000   0.00977   0.00934   2.07434
    D1       -0.00000   0.00000   0.00000   0.00000   0.00000  -0.00000
    D2       -1.99600  -0.00067   0.00000  -0.00596  -0.00586  -2.00186
    D3        1.99599   0.00067   0.00000   0.00596   0.00587   2.00186
    D4       -1.99643   0.00189   0.00000   0.01810   0.01813  -1.97830
    D5        2.29076   0.00122   0.00000   0.01214   0.01227   2.30303
    D6       -0.00043   0.00257   0.00000   0.02406   0.02400   0.02356
    D7        1.99643  -0.00189   0.00000  -0.01810  -0.01813   1.97829
    D8        0.00043  -0.00257   0.00000  -0.02406  -0.02400  -0.02357
    D9       -2.29077  -0.00122   0.00000  -0.01214  -0.01227  -2.30303
   D10        0.00000  -0.00000   0.00000  -0.00000  -0.00000   0.00000
   D11        1.99599   0.00067   0.00000   0.00596   0.00586   2.00185
   D12       -1.99599  -0.00067   0.00000  -0.00596  -0.00586  -2.00185
   D13        1.99642  -0.00189   0.00000  -0.01810  -0.01813   1.97829
   D14       -2.29077  -0.00122   0.00000  -0.01214  -0.01227  -2.30304
   D15        0.00043  -0.00257   0.00000  -0.02406  -0.02400  -0.02356
   D16       -1.99642   0.00189   0.00000   0.01810   0.01813  -1.97829
   D17       -0.00043   0.00257   0.00000   0.02406   0.02400   0.02357
   D18        2.29077   0.00122   0.00000   0.01214   0.01227   2.30304
   D19        0.00000  -0.00000   0.00000  -0.00000  -0.00000   0.00000
   D20       -1.99642   0.00189   0.00000   0.01810   0.01813  -1.97829
   D21        1.99642  -0.00189   0.00000  -0.01810  -0.01813   1.97829
   D22        1.99599   0.00067   0.00000   0.00596   0.00586   2.00186
   D23       -0.00043   0.00257   0.00000   0.02406   0.02400   0.02357
   D24       -2.29077  -0.00122   0.00000  -0.01214  -0.01227  -2.30304
   D25       -1.99599  -0.00067   0.00000  -0.00596  -0.00586  -2.00185
   D26        2.29077   0.00122   0.00000   0.01214   0.01227   2.30304
   D27        0.00043  -0.00257   0.00000  -0.02406  -0.02400  -0.02356
   D28       -0.00000   0.00000   0.00000   0.00000   0.00000  -0.00000
   D29       -1.99600  -0.00067   0.00000  -0.00596  -0.00586  -2.00186
   D30        1.99599   0.00067   0.00000   0.00596   0.00587   2.00186
   D31        1.99642  -0.00189   0.00000  -0.01810  -0.01813   1.97829
   D32        0.00043  -0.00257   0.00000  -0.02406  -0.02400  -0.02357
   D33       -2.29076  -0.00122   0.00000  -0.01214  -0.01227  -2.30303
   D34       -1.99643   0.00189   0.00000   0.01810   0.01813  -1.97830
   D35        2.29076   0.00122   0.00000   0.01214   0.01227   2.30303
   D36       -0.00043   0.00257   0.00000   0.02406   0.02400   0.02356
         Item               Value     Threshold  Converged?
 Maximum Force            0.025110     0.000450     NO 
 RMS     Force            0.009219     0.000300     NO 
 Maximum Displacement     0.111833     0.001800     NO 
 RMS     Displacement     0.035896     0.001200     NO 
 Predicted change in Energy=-1.070993D-02
 GradGradGradGradGradGradGradGradGradGradGradGradGradGradGradGradGradGrad

                          Input orientation:                          
 ---------------------------------------------------------------------
 Center     Atomic      Atomic             Coordinates (Angstroms)
 Number     Number       Type             X           Y           Z
 ---------------------------------------------------------------------
      1          6           0        1.827612    2.965357    0.929234
      2          6           0        0.792257    1.795005    0.976168
      3          6           0        1.716155    0.534160    0.952848
      4          6           0        2.751510    1.704513    0.905917
      5          1           0        1.887536    3.580598    1.808011
      6          1           0        1.823435    3.566350    0.038645
      7          1           0        0.209200    1.812889    0.065104
      8          1           0        0.276642    1.827877    1.926628
      9          1           0        1.656231   -0.081079    0.074070
     10          1           0        1.720332   -0.066835    1.843436
     11          1           0        3.267127    1.671639   -0.044542
     12          1           0        3.334565    1.686628    1.816982
 ---------------------------------------------------------------------
                    Distance matrix (angstroms):
                    1          2          3          4          5
     1  C    0.000000
     2  C    1.563294   0.000000
     3  C    2.433865   1.563285   0.000000
     4  C    1.563285   1.962600   1.563294   0.000000
     5  H    1.074412   2.253873   3.168826   2.253868   0.000000
     6  H    1.074412   2.253872   3.168825   2.253868   1.770584
     7  H    2.166601   1.081810   2.166599   2.679936   2.996553
     8  H    2.166601   1.081810   2.166598   2.679933   2.383501
     9  H    3.168825   2.253868   1.074412   2.253873   4.058070
    10  H    3.168826   2.253869   1.074412   2.253873   3.651435
    11  H    2.166599   2.679935   2.166601   1.081810   2.996556
    12  H    2.166599   2.679934   2.166601   1.081810   2.383505
                    6          7          8          9         10
     6  H    0.000000
     7  H    2.383502   0.000000
     8  H    2.996553   1.862806   0.000000
     9  H    3.651431   2.383505   2.996556   0.000000
    10  H    4.058070   2.996556   2.383505   1.770584   0.000000
    11  H    2.383505   3.063151   3.585097   2.383501   2.996553
    12  H    2.996557   3.585098   3.063146   2.996554   2.383501
                   11         12
    11  H    0.000000
    12  H    1.862806   0.000000
 Stoichiometry    C4H8(1+,2)
 Framework group  C1[X(C4H8)]
 Deg. of freedom    30
 Full point group                 C1      NOp   1
 Largest Abelian subgroup         C1      NOp   1
 Largest concise Abelian subgroup C1      NOp   1
                         Standard orientation:                         
 ---------------------------------------------------------------------
 Center     Atomic      Atomic             Coordinates (Angstroms)
 Number     Number       Type             X           Y           Z
 ---------------------------------------------------------------------
      1          6           0        1.216932    0.000005   -0.000001
      2          6           0       -0.000009    0.981300    0.000001
      3          6           0       -1.216932   -0.000005   -0.000001
      4          6           0        0.000010   -0.981300    0.000001
      5          1           0        1.825717    0.000012    0.885291
      6          1           0        1.825716    0.000013   -0.885293
      7          1           0       -0.000009    1.531576   -0.931401
      8          1           0       -0.000009    1.531572    0.931405
      9          1           0       -1.825716   -0.000012   -0.885293
     10          1           0       -1.825718   -0.000013    0.885291
     11          1           0        0.000008   -1.531575   -0.931402
     12          1           0        0.000008   -1.531573    0.931404
 ---------------------------------------------------------------------
 Rotational constants (GHZ):     12.8845026      9.0836399      6.1974279
 Standard basis: 6-31G(d) (6D, 7F)
 There are    76 symmetry adapted cartesian basis functions of A   symmetry.
 There are    76 symmetry adapted basis functions of A   symmetry.
    76 basis functions,   144 primitive gaussians,    76 cartesian basis functions
    16 alpha electrons       15 beta electrons
       nuclear repulsion energy       127.1251867172 Hartrees.
 NAtoms=   12 NActive=   12 NUniq=   12 SFac= 1.00D+00 NAtFMM=   60 NAOKFM=F Big=F
 Integral buffers will be    131072 words long.
 Raffenetti 2 integral format.
 Two-electron integral symmetry is turned on.
 One-electron integrals computed using PRISM.
 NBasis=    76 RedAO= T EigKep=  3.30D-03  NBF=    76
 NBsUse=    76 1.00D-06 EigRej= -1.00D+00 NBFU=    76
 Initial guess from the checkpoint file:  "cyclobutane-ion-relaxed.chk"
 B after Tr=     0.000000   -0.000000   -0.000000
         Rot=    1.000000    0.000000   -0.000000   -0.000001 Ang=   0.00 deg.
 Initial guess <Sx>= 0.0000 <Sy>= 0.0000 <Sz>= 0.5000 <S**2>= 0.7636 S= 0.5068
 ExpMin= 1.61D-01 ExpMax= 3.05D+03 ExpMxC= 4.57D+02 IAcc=1 IRadAn=         1 AccDes= 0.00D+00
 Harris functional with IExCor=  205 and IRadAn=       1 diagonalized for initial guess.
 HarFok:  IExCor=  205 AccDes= 0.00D+00 IRadAn=         1 IDoV= 1 UseB2=F ITyADJ=14
 ICtDFT=  3500011 ScaDFX=  1.000000  1.000000  1.000000  1.000000
 FoFCou: FMM=F IPFlag=           0 FMFlag=      100000 FMFlg1=           0
         NFxFlg=           0 DoJE=T BraDBF=F KetDBF=T FulRan=T
         wScrn=  0.000000 ICntrl=     500 IOpCl=  0 I1Cent=   200000004 NGrid=           0
         NMat0=    1 NMatS0=      1 NMatT0=    0 NMatD0=    1 NMtDS0=    0 NMtDT0=    0
 Petite list used in FoFCou.
 Keep R1 and R2 ints in memory in canonical form, NReq=9465557.
 Requested convergence on RMS density matrix=1.00D-08 within 128 cycles.
 Requested convergence on MAX density matrix=1.00D-06.
 Requested convergence on             energy=1.00D-06.
 No special actions if energy rises.
 SCF Done:  E(UHF) =  -155.759977611     A.U. after   12 cycles
            NFock= 12  Conv=0.49D-08     -V/T= 2.0000
 <Sx>= 0.0000 <Sy>= 0.0000 <Sz>= 0.5000 <S**2>= 0.7653 S= 0.5076
 <L.S>=  0.00000000000    
 Annihilation of the first spin contaminant:
 S**2 before annihilation     0.7653,   after     0.7502
 Calling FoFJK, ICntrl=      2127 FMM=F ISym2X=0 I1Cent= 0 IOpClX= 1 NMat=1 NMatS=1 NMatT=0.
 ***** Axes restored to original set *****
 -------------------------------------------------------------------
 Center     Atomic                   Forces (Hartrees/Bohr)
 Number     Number              X              Y              Z
 -------------------------------------------------------------------
      1        6           0.000240380    0.005229918   -0.000050817
      2        6          -0.001088319    0.000049565    0.000039220
      3        6          -0.000240361   -0.005230134    0.000050820
      4        6           0.001088281   -0.000049226   -0.000039215
      5        1           0.000008416   -0.001800087    0.002557231
      6        1          -0.000175531   -0.001840995   -0.002521867
      7        1           0.000433951   -0.000024089   -0.000445237
      8        1           0.000464988   -0.000017177    0.000412932
      9        1          -0.000008419    0.001800094   -0.002557233
     10        1           0.000175526    0.001840982    0.002521856
     11        1          -0.000465007    0.000017120   -0.000412921
     12        1          -0.000433905    0.000024029    0.000445230
 -------------------------------------------------------------------
 Cartesian Forces:  Max     0.005230134 RMS     0.001648833

 GradGradGradGradGradGradGradGradGradGradGradGradGradGradGradGradGradGrad
 Berny optimization.
 Using GEDIIS/GDIIS optimizer.
 FormGI is forming the generalized inverse of G from B-inverse, IUseBI=4.
 Internal  Forces:  Max     0.001786796 RMS     0.000631287
 Search for a local minimum.
 Step number   2 out of a maximum of   82
 All quantities printed in internal units (Hartrees-Bohrs-Radians)
 Mixed Optimization -- En-DIIS/RFO-DIIS
 Update second derivatives using D2CorX and points    1    2
 DE= -1.02D-02 DEPred=-1.07D-02 R= 9.55D-01
 TightC=F SS=  1.41D+00  RLast= 2.68D-01 DXNew= 5.0454D-01 8.0457D-01
 Trust test= 9.55D-01 RLast= 2.68D-01 DXMaxT set to 5.05D-01
 ITU=  1  0
 Use linear search instead of GDIIS.
     Eigenvalues ---    0.00230   0.01778   0.02963   0.03117   0.03456
     Eigenvalues ---    0.03456   0.04994   0.05569   0.05900   0.06228
     Eigenvalues ---    0.06272   0.06272   0.06668   0.07183   0.07434
     Eigenvalues ---    0.09349   0.09425   0.22080   0.25452   0.25819
     Eigenvalues ---    0.26996   0.27078   0.31430   0.31430   0.31430
     Eigenvalues ---    0.31582   0.32264   0.32264   0.32264   0.34705
 RFO step:  Lambda=-3.39516293D-04 EMin= 2.30000000D-03
 Quartic linear search produced a step of -0.00085.
 Iteration  1 RMS(Cart)=  0.00549013 RMS(Int)=  0.00005734
 Iteration  2 RMS(Cart)=  0.00004019 RMS(Int)=  0.00002787
 Iteration  3 RMS(Cart)=  0.00000000 RMS(Int)=  0.00002787
 Variable       Old X    -DE/DX   Delta X   Delta X   Delta X     New X
                                 (Linear)    (Quad)   (Total)
    R1        2.95420   0.00068  -0.00001   0.00267   0.00266   2.95686
    R2        2.95418   0.00068  -0.00001   0.00267   0.00266   2.95684
    R3        2.03034   0.00106   0.00006   0.00227   0.00233   2.03267
    R4        2.03034   0.00106   0.00006   0.00227   0.00233   2.03267
    R5        2.95418   0.00068  -0.00001   0.00267   0.00266   2.95684
    R6        2.04432   0.00014   0.00006  -0.00059  -0.00053   2.04380
    R7        2.04432   0.00014   0.00006  -0.00059  -0.00053   2.04380
    R8        2.95420   0.00068  -0.00001   0.00267   0.00266   2.95686
    R9        2.03034   0.00106   0.00006   0.00227   0.00233   2.03267
   R10        2.03034   0.00106   0.00006   0.00227   0.00233   2.03267
   R11        2.04432   0.00014   0.00006  -0.00059  -0.00053   2.04380
   R12        2.04432   0.00014   0.00006  -0.00059  -0.00053   2.04380
    A1        1.35723  -0.00002   0.00005  -0.00471  -0.00471   1.35252
    A2        2.02760  -0.00063  -0.00001  -0.00799  -0.00805   2.01955
    A3        2.02760  -0.00063  -0.00001  -0.00799  -0.00805   2.01955
    A4        2.02760  -0.00063  -0.00001  -0.00799  -0.00805   2.01956
    A5        2.02760  -0.00063  -0.00001  -0.00799  -0.00805   2.01956
    A6        1.93679   0.00179  -0.00001   0.02497   0.02502   1.96181
    A7        1.78436   0.00002  -0.00005   0.00471   0.00471   1.78907
    A8        1.89578  -0.00010   0.00001  -0.00246  -0.00245   1.89333
    A9        1.89578  -0.00010   0.00001  -0.00246  -0.00245   1.89333
   A10        1.89578  -0.00010   0.00001  -0.00246  -0.00245   1.89333
   A11        1.89578  -0.00010   0.00001  -0.00245  -0.00245   1.89333
   A12        2.07434   0.00035  -0.00001   0.00516   0.00516   2.07949
   A13        1.35723  -0.00002   0.00005  -0.00471  -0.00471   1.35252
   A14        2.02760  -0.00063  -0.00001  -0.00799  -0.00805   2.01956
   A15        2.02760  -0.00063  -0.00001  -0.00799  -0.00805   2.01956
   A16        2.02760  -0.00063  -0.00001  -0.00799  -0.00805   2.01955
   A17        2.02760  -0.00063  -0.00001  -0.00799  -0.00805   2.01955
   A18        1.93679   0.00179  -0.00001   0.02497   0.02502   1.96181
   A19        1.78436   0.00002  -0.00005   0.00471   0.00471   1.78907
   A20        1.89578  -0.00010   0.00001  -0.00245  -0.00245   1.89334
   A21        1.89578  -0.00010   0.00001  -0.00245  -0.00245   1.89334
   A22        1.89578  -0.00010   0.00001  -0.00246  -0.00245   1.89332
   A23        1.89578  -0.00010   0.00001  -0.00246  -0.00245   1.89332
   A24        2.07434   0.00035  -0.00001   0.00516   0.00516   2.07949
    D1       -0.00000  -0.00000  -0.00000   0.00000   0.00000  -0.00000
    D2       -2.00186   0.00015   0.00000   0.00152   0.00152  -2.00034
    D3        2.00186  -0.00015  -0.00000  -0.00151  -0.00152   2.00034
    D4       -1.97830   0.00070  -0.00002   0.01079   0.01075  -1.96755
    D5        2.30303   0.00085  -0.00001   0.01231   0.01227   2.31529
    D6        0.02356   0.00055  -0.00002   0.00928   0.00923   0.03280
    D7        1.97829  -0.00070   0.00002  -0.01079  -0.01075   1.96755
    D8       -0.02357  -0.00055   0.00002  -0.00928  -0.00923  -0.03280
    D9       -2.30303  -0.00085   0.00001  -0.01231  -0.01226  -2.31530
   D10        0.00000   0.00000   0.00000  -0.00000  -0.00000   0.00000
   D11        2.00185  -0.00015  -0.00000  -0.00152  -0.00152   2.00034
   D12       -2.00185   0.00015   0.00000   0.00152   0.00152  -2.00034
   D13        1.97829  -0.00070   0.00002  -0.01079  -0.01075   1.96754
   D14       -2.30304  -0.00085   0.00001  -0.01231  -0.01227  -2.31531
   D15       -0.02356  -0.00055   0.00002  -0.00928  -0.00923  -0.03280
   D16       -1.97829   0.00070  -0.00002   0.01079   0.01075  -1.96754
   D17        0.02357   0.00055  -0.00002   0.00928   0.00923   0.03280
   D18        2.30304   0.00085  -0.00001   0.01231   0.01227   2.31531
   D19        0.00000   0.00000   0.00000  -0.00000  -0.00000   0.00000
   D20       -1.97829   0.00070  -0.00002   0.01079   0.01075  -1.96754
   D21        1.97829  -0.00070   0.00002  -0.01079  -0.01075   1.96754
   D22        2.00186  -0.00015  -0.00000  -0.00152  -0.00152   2.00034
   D23        0.02357   0.00055  -0.00002   0.00928   0.00923   0.03280
   D24       -2.30304  -0.00085   0.00001  -0.01231  -0.01227  -2.31531
   D25       -2.00185   0.00015   0.00000   0.00151   0.00152  -2.00034
   D26        2.30304   0.00085  -0.00001   0.01231   0.01227   2.31531
   D27       -0.02356  -0.00055   0.00002  -0.00928  -0.00923  -0.03280
   D28       -0.00000  -0.00000  -0.00000   0.00000   0.00000  -0.00000
   D29       -2.00186   0.00015   0.00000   0.00151   0.00152  -2.00035
   D30        2.00186  -0.00015  -0.00000  -0.00151  -0.00152   2.00034
   D31        1.97829  -0.00070   0.00002  -0.01079  -0.01075   1.96755
   D32       -0.02357  -0.00055   0.00002  -0.00928  -0.00923  -0.03280
   D33       -2.30303  -0.00085   0.00001  -0.01231  -0.01226  -2.31530
   D34       -1.97830   0.00070  -0.00002   0.01079   0.01075  -1.96755
   D35        2.30303   0.00085  -0.00001   0.01231   0.01226   2.31529
   D36        0.02356   0.00055  -0.00002   0.00928   0.00923   0.03280
         Item               Value     Threshold  Converged?
 Maximum Force            0.001787     0.000450     NO 
 RMS     Force            0.000631     0.000300     NO 
 Maximum Displacement     0.016311     0.001800     NO 
 RMS     Displacement     0.005501     0.001200     NO 
 Predicted change in Energy=-1.693045D-04
 GradGradGradGradGradGradGradGradGradGradGradGradGradGradGradGradGradGrad

                          Input orientation:                          
 ---------------------------------------------------------------------
 Center     Atomic      Atomic             Coordinates (Angstroms)
 Number     Number       Type             X           Y           Z
 ---------------------------------------------------------------------
      1          6           0        1.827768    2.968758    0.929202
      2          6           0        0.794240    1.794913    0.976097
      3          6           0        1.715998    0.530759    0.952881
      4          6           0        2.749526    1.704605    0.905987
      5          1           0        1.887523    3.573645    1.816642
      6          1           0        1.822802    3.559259    0.030151
      7          1           0        0.213681    1.812671    0.063767
      8          1           0        0.281208    1.827679    1.927640
      9          1           0        1.656243   -0.074126    0.065439
     10          1           0        1.720965   -0.059744    1.851931
     11          1           0        3.262560    1.671837   -0.045555
     12          1           0        3.330084    1.686845    1.818318
 ---------------------------------------------------------------------
                    Distance matrix (angstroms):
                    1          2          3          4          5
     1  C    0.000000
     2  C    1.564702   0.000000
     3  C    2.440675   1.564692   0.000000
     4  C    1.564692   1.958626   1.564703   0.000000
     5  H    1.075643   2.250705   3.167753   2.250700   0.000000
     6  H    1.075643   2.250704   3.167752   2.250700   1.787721
     7  H    2.165823   1.081531   2.165821   2.674233   2.995888
     8  H    2.165823   1.081531   2.165821   2.674232   2.375072
     9  H    3.167752   2.250700   1.075643   2.250705   4.052954
    10  H    3.167753   2.250701   1.075643   2.250705   3.637375
    11  H    2.165821   2.674233   2.165823   1.081531   2.995893
    12  H    2.165821   2.674232   2.165823   1.081531   2.375078
                    6          7          8          9         10
     6  H    0.000000
     7  H    2.375072   0.000000
     8  H    2.995888   1.865156   0.000000
     9  H    3.637372   2.375077   2.995893   0.000000
    10  H    4.052954   2.995892   2.375078   1.787721   0.000000
    11  H    2.375078   3.054087   3.578581   2.375071   2.995887
    12  H    2.995893   3.578581   3.054084   2.995888   2.375071
                   11         12
    11  H    0.000000
    12  H    1.865156   0.000000
 Stoichiometry    C4H8(1+,2)
 Framework group  C1[X(C4H8)]
 Deg. of freedom    30
 Full point group                 C1      NOp   1
 Largest Abelian subgroup         C1      NOp   1
 Largest concise Abelian subgroup C1      NOp   1
                         Standard orientation:                         
 ---------------------------------------------------------------------
 Center     Atomic      Atomic             Coordinates (Angstroms)
 Number     Number       Type             X           Y           Z
 ---------------------------------------------------------------------
      1          6           0        1.220337    0.000004   -0.000000
      2          6           0       -0.000010    0.979313    0.000000
      3          6           0       -1.220338   -0.000004   -0.000000
      4          6           0        0.000011   -0.979313    0.000000
      5          1           0        1.818687    0.000013    0.893860
      6          1           0        1.818686    0.000014   -0.893862
      7          1           0       -0.000008    1.527044   -0.932577
      8          1           0       -0.000008    1.527042    0.932579
      9          1           0       -1.818686   -0.000013   -0.893862
     10          1           0       -1.818688   -0.000014    0.893860
     11          1           0        0.000007   -1.527043   -0.932577
     12          1           0        0.000007   -1.527042    0.932579
 ---------------------------------------------------------------------
 Rotational constants (GHZ):     12.9105357      9.0565865      6.2014945
 Standard basis: 6-31G(d) (6D, 7F)
 There are    76 symmetry adapted cartesian basis functions of A   symmetry.
 There are    76 symmetry adapted basis functions of A   symmetry.
    76 basis functions,   144 primitive gaussians,    76 cartesian basis functions
    16 alpha electrons       15 beta electrons
       nuclear repulsion energy       127.1033949917 Hartrees.
 NAtoms=   12 NActive=   12 NUniq=   12 SFac= 1.00D+00 NAtFMM=   60 NAOKFM=F Big=F
 Integral buffers will be    131072 words long.
 Raffenetti 2 integral format.
 Two-electron integral symmetry is turned on.
 One-electron integrals computed using PRISM.
 NBasis=    76 RedAO= T EigKep=  3.31D-03  NBF=    76
 NBsUse=    76 1.00D-06 EigRej= -1.00D+00 NBFU=    76
 Initial guess from the checkpoint file:  "cyclobutane-ion-relaxed.chk"
 B after Tr=     0.000000    0.000000    0.000000
         Rot=    1.000000    0.000000    0.000000    0.000000 Ang=   0.00 deg.
 Initial guess <Sx>= 0.0000 <Sy>= 0.0000 <Sz>= 0.5000 <S**2>= 0.7653 S= 0.5076
 Keep R1 and R2 ints in memory in canonical form, NReq=9465557.
 Requested convergence on RMS density matrix=1.00D-08 within 128 cycles.
 Requested convergence on MAX density matrix=1.00D-06.
 Requested convergence on             energy=1.00D-06.
 No special actions if energy rises.
 SCF Done:  E(UHF) =  -155.760179012     A.U. after   11 cycles
            NFock= 11  Conv=0.68D-08     -V/T= 2.0000
 <Sx>= 0.0000 <Sy>= 0.0000 <Sz>= 0.5000 <S**2>= 0.7655 S= 0.5077
 <L.S>=  0.00000000000    
 Annihilation of the first spin contaminant:
 S**2 before annihilation     0.7655,   after     0.7502
 Calling FoFJK, ICntrl=      2127 FMM=F ISym2X=0 I1Cent= 0 IOpClX= 1 NMat=1 NMatS=1 NMatT=0.
 ***** Axes restored to original set *****
 -------------------------------------------------------------------
 Center     Atomic                   Forces (Hartrees/Bohr)
 Number     Number              X              Y              Z
 -------------------------------------------------------------------
      1        6           0.000093813    0.002028842   -0.000019744
      2        6          -0.000531058    0.000023587    0.000019082
      3        6          -0.000093813   -0.002029154    0.000019727
      4        6           0.000531052   -0.000023136   -0.000019096
      5        1          -0.000022240   -0.000609442    0.000166165
      6        1          -0.000033841   -0.000612018   -0.000154291
      7        1          -0.000115776    0.000003591   -0.000184213
      8        1          -0.000102162    0.000006621    0.000192019
      9        1           0.000022239    0.000609439   -0.000166157
     10        1           0.000033840    0.000612024    0.000154298
     11        1           0.000102158   -0.000006692   -0.000192009
     12        1           0.000115788   -0.000003662    0.000184218
 -------------------------------------------------------------------
 Cartesian Forces:  Max     0.002029154 RMS     0.000542766

 GradGradGradGradGradGradGradGradGradGradGradGradGradGradGradGradGradGrad
 Berny optimization.
 Using GEDIIS/GDIIS optimizer.
 FormGI is forming the generalized inverse of G from B-inverse, IUseBI=4.
 Internal  Forces:  Max     0.000550706 RMS     0.000188879
 Search for a local minimum.
 Step number   3 out of a maximum of   82
 All quantities printed in internal units (Hartrees-Bohrs-Radians)
 Mixed Optimization -- En-DIIS/RFO-DIIS
 Swapping is turned off.
 Update second derivatives using D2CorX and points    1    2    3
 DE= -2.01D-04 DEPred=-1.69D-04 R= 1.19D+00
 TightC=F SS=  1.41D+00  RLast= 6.96D-02 DXNew= 8.4853D-01 2.0869D-01
 Trust test= 1.19D+00 RLast= 6.96D-02 DXMaxT set to 5.05D-01
 ITU=  1  1  0
     Eigenvalues ---    0.00230   0.01765   0.02934   0.03184   0.03408
     Eigenvalues ---    0.03408   0.04978   0.05068   0.05896   0.05937
     Eigenvalues ---    0.06173   0.06303   0.06303   0.07290   0.07569
     Eigenvalues ---    0.09358   0.09481   0.22107   0.25455   0.25853
     Eigenvalues ---    0.26550   0.27078   0.31430   0.31430   0.31430
     Eigenvalues ---    0.32180   0.32264   0.32264   0.32264   0.34984
 En-DIIS/RFO-DIIS IScMMF=        0 using points:     3    2
 RFO step:  Lambda=-7.18126169D-06.
 DidBck=F Rises=F RFO-DIIS coefs:    1.22912   -0.22912
 Iteration  1 RMS(Cart)=  0.00127494 RMS(Int)=  0.00000863
 Iteration  2 RMS(Cart)=  0.00000281 RMS(Int)=  0.00000808
 Iteration  3 RMS(Cart)=  0.00000000 RMS(Int)=  0.00000808
 Variable       Old X    -DE/DX   Delta X   Delta X   Delta X     New X
                                 (Linear)    (Quad)   (Total)
    R1        2.95686   0.00055   0.00061   0.00201   0.00262   2.95948
    R2        2.95684   0.00055   0.00061   0.00200   0.00261   2.95945
    R3        2.03267  -0.00021   0.00053  -0.00149  -0.00096   2.03171
    R4        2.03267  -0.00021   0.00053  -0.00149  -0.00096   2.03171
    R5        2.95684   0.00055   0.00061   0.00200   0.00261   2.95945
    R6        2.04380   0.00022  -0.00012   0.00072   0.00060   2.04439
    R7        2.04380   0.00022  -0.00012   0.00072   0.00060   2.04439
    R8        2.95686   0.00055   0.00061   0.00201   0.00262   2.95948
    R9        2.03267  -0.00021   0.00053  -0.00149  -0.00096   2.03171
   R10        2.03267  -0.00021   0.00053  -0.00149  -0.00096   2.03171
   R11        2.04380   0.00022  -0.00012   0.00072   0.00060   2.04439
   R12        2.04380   0.00022  -0.00012   0.00072   0.00060   2.04439
    A1        1.35252   0.00013  -0.00108   0.00052  -0.00057   1.35195
    A2        2.01955  -0.00017  -0.00184  -0.00051  -0.00237   2.01718
    A3        2.01955  -0.00017  -0.00184  -0.00051  -0.00237   2.01718
    A4        2.01956  -0.00017  -0.00184  -0.00051  -0.00237   2.01719
    A5        2.01956  -0.00017  -0.00184  -0.00051  -0.00237   2.01719
    A6        1.96181   0.00040   0.00573   0.00113   0.00688   1.96869
    A7        1.78907  -0.00013   0.00108  -0.00052   0.00057   1.78965
    A8        1.89333   0.00003  -0.00056   0.00040  -0.00016   1.89316
    A9        1.89333   0.00003  -0.00056   0.00040  -0.00016   1.89316
   A10        1.89333   0.00003  -0.00056   0.00040  -0.00016   1.89317
   A11        1.89333   0.00003  -0.00056   0.00040  -0.00016   1.89317
   A12        2.07949  -0.00002   0.00118  -0.00103   0.00015   2.07965
   A13        1.35252   0.00013  -0.00108   0.00052  -0.00057   1.35195
   A14        2.01956  -0.00017  -0.00184  -0.00051  -0.00237   2.01719
   A15        2.01956  -0.00017  -0.00184  -0.00051  -0.00237   2.01719
   A16        2.01955  -0.00017  -0.00184  -0.00051  -0.00237   2.01718
   A17        2.01955  -0.00017  -0.00184  -0.00051  -0.00237   2.01718
   A18        1.96181   0.00040   0.00573   0.00113   0.00688   1.96869
   A19        1.78907  -0.00013   0.00108  -0.00052   0.00057   1.78965
   A20        1.89334   0.00003  -0.00056   0.00040  -0.00016   1.89317
   A21        1.89334   0.00003  -0.00056   0.00040  -0.00016   1.89317
   A22        1.89332   0.00003  -0.00056   0.00040  -0.00016   1.89316
   A23        1.89332   0.00003  -0.00056   0.00040  -0.00016   1.89316
   A24        2.07949  -0.00002   0.00118  -0.00103   0.00015   2.07965
    D1       -0.00000  -0.00000   0.00000   0.00000   0.00000  -0.00000
    D2       -2.00034   0.00001   0.00035  -0.00037  -0.00002  -2.00036
    D3        2.00034  -0.00001  -0.00035   0.00037   0.00002   2.00036
    D4       -1.96755   0.00012   0.00246   0.00032   0.00278  -1.96477
    D5        2.31529   0.00014   0.00281  -0.00005   0.00276   2.31805
    D6        0.03280   0.00011   0.00212   0.00069   0.00280   0.03559
    D7        1.96755  -0.00012  -0.00246  -0.00032  -0.00278   1.96477
    D8       -0.03280  -0.00011  -0.00212  -0.00069  -0.00280  -0.03559
    D9       -2.31530  -0.00014  -0.00281   0.00005  -0.00276  -2.31805
   D10        0.00000   0.00000  -0.00000  -0.00000  -0.00000   0.00000
   D11        2.00034  -0.00001  -0.00035   0.00037   0.00002   2.00036
   D12       -2.00034   0.00001   0.00035  -0.00037  -0.00002  -2.00035
   D13        1.96754  -0.00012  -0.00246  -0.00032  -0.00278   1.96476
   D14       -2.31531  -0.00014  -0.00281   0.00004  -0.00276  -2.31807
   D15       -0.03280  -0.00011  -0.00212  -0.00069  -0.00280  -0.03559
   D16       -1.96754   0.00012   0.00246   0.00032   0.00278  -1.96476
   D17        0.03280   0.00011   0.00212   0.00069   0.00280   0.03559
   D18        2.31531   0.00014   0.00281  -0.00004   0.00276   2.31807
   D19        0.00000   0.00000  -0.00000  -0.00000  -0.00000   0.00000
   D20       -1.96754   0.00012   0.00246   0.00032   0.00278  -1.96476
   D21        1.96754  -0.00012  -0.00246  -0.00032  -0.00278   1.96476
   D22        2.00034  -0.00001  -0.00035   0.00037   0.00002   2.00036
   D23        0.03280   0.00011   0.00212   0.00069   0.00280   0.03560
   D24       -2.31531  -0.00014  -0.00281   0.00004  -0.00276  -2.31807
   D25       -2.00034   0.00001   0.00035  -0.00037  -0.00002  -2.00036
   D26        2.31531   0.00014   0.00281  -0.00004   0.00276   2.31807
   D27       -0.03280  -0.00011  -0.00212  -0.00069  -0.00280  -0.03559
   D28       -0.00000  -0.00000   0.00000   0.00000   0.00000  -0.00000
   D29       -2.00035   0.00001   0.00035  -0.00037  -0.00002  -2.00037
   D30        2.00034  -0.00001  -0.00035   0.00037   0.00002   2.00036
   D31        1.96755  -0.00012  -0.00246  -0.00032  -0.00278   1.96477
   D32       -0.03280  -0.00011  -0.00212  -0.00069  -0.00280  -0.03560
   D33       -2.31530  -0.00014  -0.00281   0.00005  -0.00275  -2.31805
   D34       -1.96755   0.00012   0.00246   0.00032   0.00278  -1.96477
   D35        2.31529   0.00014   0.00281  -0.00005   0.00276   2.31805
   D36        0.03280   0.00011   0.00212   0.00069   0.00280   0.03559
         Item               Value     Threshold  Converged?
 Maximum Force            0.000551     0.000450     NO 
 RMS     Force            0.000189     0.000300     YES
 Maximum Displacement     0.003802     0.001800     NO 
 RMS     Displacement     0.001274     0.001200     NO 
 Predicted change in Energy=-1.182327D-05
 GradGradGradGradGradGradGradGradGradGradGradGradGradGradGradGradGradGrad

                          Input orientation:                          
 ---------------------------------------------------------------------
 Center     Atomic      Atomic             Coordinates (Angstroms)
 Number     Number       Type             X           Y           Z
 ---------------------------------------------------------------------
      1          6           0        1.827831    2.970117    0.929189
      2          6           0        0.793724    1.794935    0.976115
      3          6           0        1.715935    0.529400    0.952894
      4          6           0        2.750043    1.704583    0.905969
      5          1           0        1.887491    3.571659    1.818291
      6          1           0        1.822651    3.557247    0.028541
      7          1           0        0.213067    1.812697    0.063474
      8          1           0        0.280616    1.827709    1.927975
      9          1           0        1.656276   -0.072141    0.063791
     10          1           0        1.721116   -0.057731    1.853541
     11          1           0        3.263152    1.671807   -0.045891
     12          1           0        3.330699    1.686819    1.818610
 ---------------------------------------------------------------------
                    Distance matrix (angstroms):
                    1          2          3          4          5
     1  C    0.000000
     2  C    1.566087   0.000000
     3  C    2.443395   1.566075   0.000000
     4  C    1.566074   1.959660   1.566089   0.000000
     5  H    1.075135   2.249962   3.167598   2.249955   0.000000
     6  H    1.075135   2.249962   3.167597   2.249955   1.790981
     7  H    2.167151   1.081846   2.167148   2.675393   2.996168
     8  H    2.167151   1.081846   2.167148   2.675393   2.373908
     9  H    3.167597   2.249956   1.075135   2.249963   4.050803
    10  H    3.167598   2.249957   1.075135   2.249963   3.633372
    11  H    2.167149   2.675393   2.167151   1.081846   2.996173
    12  H    2.167149   2.675393   2.167151   1.081846   2.373914
                    6          7          8          9         10
     6  H    0.000000
     7  H    2.373908   0.000000
     8  H    2.996168   1.865784   0.000000
     9  H    3.633370   2.373913   2.996173   0.000000
    10  H    4.050803   2.996172   2.373913   1.790982   0.000000
    11  H    2.373914   3.055295   3.579940   2.373907   2.996167
    12  H    2.996173   3.579940   3.055293   2.996168   2.373907
                   11         12
    11  H    0.000000
    12  H    1.865784   0.000000
 Stoichiometry    C4H8(1+,2)
 Framework group  C1[X(C4H8)]
 Deg. of freedom    30
 Full point group                 C1      NOp   1
 Largest Abelian subgroup         C1      NOp   1
 Largest concise Abelian subgroup C1      NOp   1
                         Standard orientation:                         
 ---------------------------------------------------------------------
 Center     Atomic      Atomic             Coordinates (Angstroms)
 Number     Number       Type             X           Y           Z
 ---------------------------------------------------------------------
      1          6           0        1.221697    0.000007   -0.000000
      2          6           0       -0.000013    0.979830    0.000000
      3          6           0       -1.221698   -0.000007   -0.000000
      4          6           0        0.000014   -0.979830    0.000000
      5          1           0        1.816686    0.000018    0.895490
      6          1           0        1.816685    0.000018   -0.895491
      7          1           0       -0.000012    1.527648   -0.932892
      8          1           0       -0.000012    1.527647    0.932893
      9          1           0       -1.816685   -0.000018   -0.895491
     10          1           0       -1.816686   -0.000018    0.895490
     11          1           0        0.000010   -1.527648   -0.932892
     12          1           0        0.000010   -1.527646    0.932893
 ---------------------------------------------------------------------
 Rotational constants (GHZ):     12.8954252      9.0461309      6.1952514
 Standard basis: 6-31G(d) (6D, 7F)
 There are    76 symmetry adapted cartesian basis functions of A   symmetry.
 There are    76 symmetry adapted basis functions of A   symmetry.
    76 basis functions,   144 primitive gaussians,    76 cartesian basis functions
    16 alpha electrons       15 beta electrons
       nuclear repulsion energy       127.0430567259 Hartrees.
 NAtoms=   12 NActive=   12 NUniq=   12 SFac= 1.00D+00 NAtFMM=   60 NAOKFM=F Big=F
 Integral buffers will be    131072 words long.
 Raffenetti 2 integral format.
 Two-electron integral symmetry is turned on.
 One-electron integrals computed using PRISM.
 NBasis=    76 RedAO= T EigKep=  3.32D-03  NBF=    76
 NBsUse=    76 1.00D-06 EigRej= -1.00D+00 NBFU=    76
 Initial guess from the checkpoint file:  "cyclobutane-ion-relaxed.chk"
 B after Tr=     0.000000   -0.000000    0.000000
         Rot=    1.000000    0.000000    0.000000   -0.000001 Ang=   0.00 deg.
 Initial guess <Sx>= 0.0000 <Sy>= 0.0000 <Sz>= 0.5000 <S**2>= 0.7655 S= 0.5077
 Keep R1 and R2 ints in memory in canonical form, NReq=9465557.
 Requested convergence on RMS density matrix=1.00D-08 within 128 cycles.
 Requested convergence on MAX density matrix=1.00D-06.
 Requested convergence on             energy=1.00D-06.
 No special actions if energy rises.
 SCF Done:  E(UHF) =  -155.760190396     A.U. after   10 cycles
            NFock= 10  Conv=0.60D-08     -V/T= 2.0001
 <Sx>= 0.0000 <Sy>= 0.0000 <Sz>= 0.5000 <S**2>= 0.7656 S= 0.5078
 <L.S>=  0.00000000000    
 Annihilation of the first spin contaminant:
 S**2 before annihilation     0.7656,   after     0.7502
 Calling FoFJK, ICntrl=      2127 FMM=F ISym2X=0 I1Cent= 0 IOpClX= 1 NMat=1 NMatS=1 NMatT=0.
 ***** Axes restored to original set *****
 -------------------------------------------------------------------
 Center     Atomic                   Forces (Hartrees/Bohr)
 Number     Number              X              Y              Z
 -------------------------------------------------------------------
      1        6          -0.000005526   -0.000143324    0.000001350
      2        6          -0.000016139   -0.000000326    0.000000580
      3        6           0.000005511    0.000142879   -0.000001354
      4        6           0.000016160    0.000000971   -0.000000592
      5        1           0.000005429    0.000061375    0.000075865
      6        1          -0.000000112    0.000060150   -0.000077032
      7        1           0.000020226   -0.000000435    0.000037388
      8        1           0.000017467   -0.000001048   -0.000038736
      9        1          -0.000005430   -0.000061378   -0.000075861
     10        1           0.000000111   -0.000060141    0.000077036
     11        1          -0.000017471    0.000000945    0.000038741
     12        1          -0.000020228    0.000000332   -0.000037384
 -------------------------------------------------------------------
 Cartesian Forces:  Max     0.000143324 RMS     0.000049154

 GradGradGradGradGradGradGradGradGradGradGradGradGradGradGradGradGradGrad
 Berny optimization.
 Using GEDIIS/GDIIS optimizer.
 FormGI is forming the generalized inverse of G from B-inverse, IUseBI=4.
 Internal  Forces:  Max     0.000097379 RMS     0.000025354
 Search for a local minimum.
 Step number   4 out of a maximum of   82
 All quantities printed in internal units (Hartrees-Bohrs-Radians)
 Mixed Optimization -- En-DIIS/RFO-DIIS
 Swapping is turned off.
 Update second derivatives using D2CorX and points    1    2    3    4
 DE= -1.14D-05 DEPred=-1.18D-05 R= 9.63D-01
 TightC=F SS=  1.41D+00  RLast= 1.89D-02 DXNew= 8.4853D-01 5.6810D-02
 Trust test= 9.63D-01 RLast= 1.89D-02 DXMaxT set to 5.05D-01
 ITU=  1  1  1  0
     Eigenvalues ---    0.00230   0.01762   0.02928   0.03199   0.03399
     Eigenvalues ---    0.03399   0.04974   0.05044   0.05894   0.05965
     Eigenvalues ---    0.06163   0.06307   0.06307   0.07316   0.07601
     Eigenvalues ---    0.09359   0.09492   0.22067   0.25456   0.25863
[...]
     6  H    1.075135   2.249962   3.167597   2.249955   1.790981
     7  H    2.167151   1.081846   2.167148   2.675393   2.996168
     8  H    2.167151   1.081846   2.167148   2.675393   2.373908
     9  H    3.167597   2.249956   1.075135   2.249963   4.050803
    10  H    3.167598   2.249957   1.075135   2.249963   3.633372
    11  H    2.167149   2.675393   2.167151   1.081846   2.996173
    12  H    2.167149   2.675393   2.167151   1.081846   2.373914
                    6          7          8          9         10
     6  H    0.000000
     7  H    2.373908   0.000000
     8  H    2.996168   1.865784   0.000000
     9  H    3.633370   2.373913   2.996173   0.000000
    10  H    4.050803   2.996172   2.373913   1.790982   0.000000
    11  H    2.373914   3.055295   3.579940   2.373907   2.996167
    12  H    2.996173   3.579940   3.055293   2.996168   2.373907
                   11         12
    11  H    0.000000
    12  H    1.865784   0.000000
 Stoichiometry    C4H8(1+,2)
 Framework group  C1[X(C4H8)]
 Deg. of freedom    30
 Full point group                 C1      NOp   1
 Largest Abelian subgroup         C1      NOp   1
 Largest concise Abelian subgroup C1      NOp   1
                         Standard orientation:                         
 ---------------------------------------------------------------------
 Center     Atomic      Atomic             Coordinates (Angstroms)
 Number     Number       Type             X           Y           Z
 ---------------------------------------------------------------------
      1          6           0        1.221697    0.000007   -0.000000
      2          6           0       -0.000013    0.979830    0.000000
      3          6           0       -1.221698   -0.000007   -0.000000
      4          6           0        0.000014   -0.979830    0.000000
      5          1           0        1.816686    0.000018    0.895490
      6          1           0        1.816685    0.000018   -0.895491
      7          1           0       -0.000012    1.527648   -0.932892
      8          1           0       -0.000012    1.527647    0.932893
      9          1           0       -1.816685   -0.000018   -0.895491
     10          1           0       -1.816686   -0.000018    0.895490
     11          1           0        0.000010   -1.527648   -0.932892
     12          1           0        0.000010   -1.527646    0.932893
 ---------------------------------------------------------------------
 Rotational constants (GHZ):     12.8954252      9.0461309      6.1952514

 **********************************************************************

            Population analysis using the SCF density.

 **********************************************************************

 Orbital symmetries:
 Alpha Orbitals:
       Occupied  (A) (A) (A) (A) (A) (A) (A) (A) (A) (A) (A) (A)
                 (A) (A) (A) (A)
       Virtual   (A) (A) (A) (A) (A) (A) (A) (A) (A) (A) (A) (A)
                 (A) (A) (A) (A) (A) (A) (A) (A) (A) (A) (A) (A)
                 (A) (A) (A) (A) (A) (A) (A) (A) (A) (A) (A) (A)
                 (A) (A) (A) (A) (A) (A) (A) (A) (A) (A) (A) (A)
                 (A) (A) (A) (A) (A) (A) (A) (A) (A) (A) (A) (A)
 Beta  Orbitals:
       Occupied  (A) (A) (A) (A) (A) (A) (A) (A) (A) (A) (A) (A)
                 (A) (A) (A)
       Virtual   (A) (A) (A) (A) (A) (A) (A) (A) (A) (A) (A) (A)
                 (A) (A) (A) (A) (A) (A) (A) (A) (A) (A) (A) (A)
                 (A) (A) (A) (A) (A) (A) (A) (A) (A) (A) (A) (A)
                 (A) (A) (A) (A) (A) (A) (A) (A) (A) (A) (A) (A)
                 (A) (A) (A) (A) (A) (A) (A) (A) (A) (A) (A) (A)
                 (A)
 The electronic state is 2-A.
 Alpha  occ. eigenvalues --  -11.49880 -11.49875 -11.48430 -11.48426  -1.41037
 Alpha  occ. eigenvalues --   -1.18061  -1.15131  -0.99483  -0.93436  -0.88760
 Alpha  occ. eigenvalues --   -0.81728  -0.80370  -0.76363  -0.74835  -0.71468
 Alpha  occ. eigenvalues --   -0.62482
 Alpha virt. eigenvalues --    0.00563   0.02796   0.02920   0.08542   0.11287
 Alpha virt. eigenvalues --    0.12820   0.14302   0.14678   0.14857   0.18771
 Alpha virt. eigenvalues --    0.21989   0.26595   0.46954   0.47849   0.47919
 Alpha virt. eigenvalues --    0.49365   0.54750   0.63342   0.64185   0.65449
 Alpha virt. eigenvalues --    0.66995   0.76865   0.81554   0.81981   0.90175
 Alpha virt. eigenvalues --    0.90686   0.92524   0.93998   0.95673   0.97790
 Alpha virt. eigenvalues --    0.99731   1.02099   1.24402   1.27159   1.34874
 Alpha virt. eigenvalues --    1.35905   1.58621   1.76251   1.84918   1.91440
 Alpha virt. eigenvalues --    1.93807   1.95290   1.99520   2.11024   2.11728
 Alpha virt. eigenvalues --    2.13028   2.16840   2.31646   2.34123   2.40914
 Alpha virt. eigenvalues --    2.45308   2.61484   2.62904   2.63059   2.73627
 Alpha virt. eigenvalues --    2.84751   4.24355   4.50204   4.53431   4.75115
  Beta  occ. eigenvalues --  -11.49473 -11.49459 -11.47588 -11.47583  -1.36852
  Beta  occ. eigenvalues --   -1.14620  -1.11099  -0.97048  -0.92584  -0.82081
  Beta  occ. eigenvalues --   -0.80215  -0.79878  -0.73792  -0.70497  -0.68669
  Beta virt. eigenvalues --   -0.24412   0.01311   0.03755   0.05834   0.08497
  Beta virt. eigenvalues --    0.12802   0.13652   0.14589   0.15485   0.15655
  Beta virt. eigenvalues --    0.21886   0.22268   0.27835   0.47875   0.48530
  Beta virt. eigenvalues --    0.51238   0.53420   0.55178   0.64165   0.65191
  Beta virt. eigenvalues --    0.68482   0.69993   0.79004   0.83115   0.83451
  Beta virt. eigenvalues --    0.91249   0.92010   0.93568   0.94456   0.97248
  Beta virt. eigenvalues --    0.98715   1.00548   1.03324   1.27565   1.27752
  Beta virt. eigenvalues --    1.36733   1.37070   1.59111   1.79038   1.87046
  Beta virt. eigenvalues --    1.92416   1.93758   1.97309   2.02189   2.11943
  Beta virt. eigenvalues --    2.12639   2.15393   2.18046   2.34011   2.35794
  Beta virt. eigenvalues --    2.41181   2.46465   2.63222   2.64247   2.64552
  Beta virt. eigenvalues --    2.74485   2.86722   4.25314   4.51228   4.54031
  Beta virt. eigenvalues --    4.75726
          Condensed to atoms (all electrons):
               1          2          3          4          5          6
     1  C    5.248156   0.225072  -0.083561   0.225077   0.394397   0.394397
     2  C    0.225072   5.413476   0.225076  -0.106208  -0.026860  -0.026860
     3  C   -0.083561   0.225076   5.248159   0.225071   0.004088   0.004088
     4  C    0.225077  -0.106208   0.225071   5.413476  -0.026860  -0.026860
     5  H    0.394397  -0.026860   0.004088  -0.026860   0.382773  -0.009830
     6  H    0.394397  -0.026860   0.004088  -0.026860  -0.009830   0.382773
     7  H   -0.026014   0.371347  -0.026014   0.002265   0.001110  -0.001998
     8  H   -0.026014   0.371347  -0.026014   0.002265  -0.001998   0.001110
     9  H    0.004088  -0.026860   0.394397  -0.026860  -0.000067  -0.000100
    10  H    0.004088  -0.026860   0.394397  -0.026860  -0.000100  -0.000067
    11  H   -0.026014   0.002265  -0.026014   0.371347   0.001110  -0.001998
    12  H   -0.026014   0.002265  -0.026014   0.371347  -0.001998   0.001110
               7          8          9         10         11         12
     1  C   -0.026014  -0.026014   0.004088   0.004088  -0.026014  -0.026014
     2  C    0.371347   0.371347  -0.026860  -0.026860   0.002265   0.002265
     3  C   -0.026014  -0.026014   0.394397   0.394397  -0.026014  -0.026014
     4  C    0.002265   0.002265  -0.026860  -0.026860   0.371347   0.371347
     5  H    0.001110  -0.001998  -0.000067  -0.000100   0.001110  -0.001998
     6  H   -0.001998   0.001110  -0.000100  -0.000067  -0.001998   0.001110
     7  H    0.366006  -0.003877  -0.001998   0.001110  -0.000059  -0.000073
     8  H   -0.003877   0.366006   0.001110  -0.001998  -0.000073  -0.000059
     9  H   -0.001998   0.001110   0.382773  -0.009830  -0.001998   0.001110
    10  H    0.001110  -0.001998  -0.009830   0.382773   0.001110  -0.001998
    11  H   -0.000059  -0.000073  -0.001998   0.001110   0.366006  -0.003877
    12  H   -0.000073  -0.000059   0.001110  -0.001998  -0.003877   0.366006
          Atomic-Atomic Spin Densities.
               1          2          3          4          5          6
     1  C    0.366710   0.018533   0.004464   0.018518  -0.007818  -0.007818
     2  C    0.018533   0.122806   0.018519  -0.105259   0.001095   0.001095
     3  C    0.004464   0.018519   0.366716   0.018533   0.000126   0.000126
     4  C    0.018518  -0.105259   0.018533   0.122806   0.001095   0.001095
     5  H   -0.007818   0.001095   0.000126   0.001095  -0.020281   0.000882
     6  H   -0.007818   0.001095   0.000126   0.001095   0.000882  -0.020281
     7  H   -0.012009   0.007063  -0.012008   0.011397   0.000035   0.000026
     8  H   -0.012009   0.007063  -0.012008   0.011397   0.000026   0.000035
     9  H    0.000126   0.001095  -0.007819   0.001095   0.000004  -0.000014
    10  H    0.000126   0.001095  -0.007819   0.001095  -0.000014   0.000004
    11  H   -0.012008   0.011397  -0.012009   0.007063   0.000035   0.000026
    12  H   -0.012008   0.011397  -0.012009   0.007063   0.000026   0.000035
               7          8          9         10         11         12
     1  C   -0.012009  -0.012009   0.000126   0.000126  -0.012008  -0.012008
     2  C    0.007063   0.007063   0.001095   0.001095   0.011397   0.011397
     3  C   -0.012008  -0.012008  -0.007819  -0.007819  -0.012009  -0.012009
     4  C    0.011397   0.011397   0.001095   0.001095   0.007063   0.007063
     5  H    0.000035   0.000026   0.000004  -0.000014   0.000035   0.000026
     6  H    0.000026   0.000035  -0.000014   0.000004   0.000026   0.000035
     7  H    0.056906   0.004274   0.000026   0.000035  -0.000980  -0.000328
     8  H    0.004274   0.056906   0.000035   0.000026  -0.000328  -0.000980
     9  H    0.000026   0.000035  -0.020282   0.000882   0.000026   0.000035
    10  H    0.000035   0.000026   0.000882  -0.020282   0.000035   0.000026
    11  H   -0.000980  -0.000328   0.000026   0.000035   0.056906   0.004274
    12  H   -0.000328  -0.000980   0.000035   0.000026   0.004274   0.056906
 Mulliken charges and spin densities:
               1          2
     1  C   -0.307659   0.344806
     2  C   -0.397200   0.095898
     3  C   -0.307658   0.344813
     4  C   -0.397200   0.095898
     5  H    0.284235  -0.024790
     6  H    0.284235  -0.024790
     7  H    0.318195   0.054436
     8  H    0.318195   0.054436
     9  H    0.284235  -0.024790
    10  H    0.284235  -0.024790
    11  H    0.318195   0.054436
    12  H    0.318195   0.054436
 Sum of Mulliken charges =   1.00000   1.00000
 Mulliken charges and spin densities with hydrogens summed into heavy atoms:
               1          2
     1  C    0.260811   0.295227
     2  C    0.239189   0.204770
     3  C    0.260812   0.295233
     4  C    0.239189   0.204770
 Electronic spatial extent (au):  <R**2>=            252.5612
 Charge=              1.0000 electrons
 Dipole moment (field-independent basis, Debye):
    X=             -0.0000    Y=             -0.0000    Z=             -0.0000  Tot=              0.0000
 Quadrupole moment (field-independent basis, Debye-Ang):
   XX=            -18.3719   YY=            -19.4532   ZZ=            -20.1401
   XY=              0.0000   XZ=              0.0000   YZ=              0.0000
 Traceless Quadrupole moment (field-independent basis, Debye-Ang):
   XX=              0.9499   YY=             -0.1315   ZZ=             -0.8184
   XY=              0.0000   XZ=              0.0000   YZ=              0.0000
 Octapole moment (field-independent basis, Debye-Ang**2):
  XXX=             -0.0000  YYY=              0.0000  ZZZ=              0.0000  XYY=             -0.0000
  XXY=              0.0000  XXZ=              0.0000  XZZ=             -0.0000  YZZ=             -0.0000
  YYZ=             -0.0000  XYZ=             -0.0000
 Hexadecapole moment (field-independent basis, Debye-Ang**3):
 XXXX=           -139.3832 YYYY=           -102.2484 ZZZZ=            -41.0257 XXXY=              0.0003
 XXXZ=              0.0000 YYYX=             -0.0001 YYYZ=              0.0000 ZZZX=             -0.0000
 ZZZY=             -0.0000 XXYY=            -48.4027 XXZZ=            -26.3602 YYZZ=            -18.9635
 XXYZ=              0.0000 YYXZ=             -0.0000 ZZXY=              0.0001
 N-N= 1.270430567259D+02 E-N=-6.083419900531D+02  KE= 1.557475225261D+02
                          Isotropic Fermi Contact Couplings
        Atom                 a.u.       MegaHertz       Gauss      10(-4) cm-1
     1  C(13)              0.03538      39.77401      14.19236      13.26718
     2  C(13)              0.00100       1.12033       0.39976       0.37370
     3  C(13)              0.03538      39.77450      14.19253      13.26735
     4  C(13)              0.00100       1.12033       0.39976       0.37370
     5  H(1)              -0.00911     -40.71629     -14.52858     -13.58149
     6  H(1)              -0.00911     -40.71629     -14.52858     -13.58149
     7  H(1)               0.03045     136.11159      48.56800      45.40194
     8  H(1)               0.03045     136.11105      48.56781      45.40176
     9  H(1)              -0.00911     -40.71697     -14.52883     -13.58172
    10  H(1)              -0.00911     -40.71697     -14.52883     -13.58172
    11  H(1)               0.03045     136.11158      48.56799      45.40194
    12  H(1)               0.03045     136.11106      48.56781      45.40176
 --------------------------------------------------------
       Center         ----  Spin Dipole Couplings  ----
                      3XX-RR        3YY-RR        3ZZ-RR
 --------------------------------------------------------
     1   Atom       -0.192408      0.406726     -0.214318
     2   Atom       -0.197503      0.385360     -0.187857
     3   Atom       -0.192412      0.406733     -0.214322
     4   Atom       -0.197503      0.385360     -0.187857
     5   Atom        0.002219     -0.010991      0.008772
     6   Atom        0.002219     -0.010991      0.008772
     7   Atom       -0.022607     -0.008405      0.031013
     8   Atom       -0.022607     -0.008405      0.031013
     9   Atom        0.002219     -0.010991      0.008772
    10   Atom        0.002219     -0.010991      0.008772
    11   Atom       -0.022607     -0.008405      0.031013
    12   Atom       -0.022607     -0.008405      0.031013
 --------------------------------------------------------
                        XY            XZ            YZ
 --------------------------------------------------------
     1   Atom       -0.000024      0.000000     -0.000000
     2   Atom       -0.000014     -0.000000      0.000000
     3   Atom       -0.000024     -0.000000     -0.000000
     4   Atom       -0.000018      0.000000     -0.000000
     5   Atom       -0.000000      0.032796      0.000001
     6   Atom       -0.000000     -0.032796     -0.000001
     7   Atom       -0.000000     -0.000001     -0.005998
     8   Atom       -0.000000      0.000001      0.005998
     9   Atom       -0.000000      0.032797      0.000001
    10   Atom       -0.000000     -0.032797     -0.000001
    11   Atom       -0.000000      0.000001      0.005998
    12   Atom       -0.000000     -0.000001     -0.005998
 --------------------------------------------------------


 ---------------------------------------------------------------------------------
              Anisotropic Spin Dipole Couplings in Principal Axis System
 ---------------------------------------------------------------------------------

       Atom             a.u.   MegaHertz   Gauss  10(-4) cm-1        Axes

              Baa    -0.2143   -28.759   -10.262    -9.593 -0.0000  0.0000  1.0000
     1 C(13)  Bbb    -0.1924   -25.819    -9.213    -8.612  1.0000  0.0000  0.0000
              Bcc     0.4067    54.579    19.475    18.205 -0.0000  1.0000 -0.0000
 
              Baa    -0.1975   -26.503    -9.457    -8.840  1.0000  0.0000 -0.0000
     2 C(13)  Bbb    -0.1879   -25.209    -8.995    -8.409  0.0000 -0.0000  1.0000
              Bcc     0.3854    51.712    18.452    17.249 -0.0000  1.0000  0.0000
 
              Baa    -0.2143   -28.760   -10.262    -9.593  0.0000  0.0000  1.0000
     3 C(13)  Bbb    -0.1924   -25.820    -9.213    -8.613  1.0000  0.0000 -0.0000
              Bcc     0.4067    54.580    19.475    18.206 -0.0000  1.0000 -0.0000
 
              Baa    -0.1975   -26.503    -9.457    -8.840  1.0000  0.0000  0.0000
     4 C(13)  Bbb    -0.1879   -25.209    -8.995    -8.409 -0.0000  0.0000  1.0000
              Bcc     0.3854    51.712    18.452    17.249 -0.0000  1.0000 -0.0000
 
              Baa    -0.0275   -14.654    -5.229    -4.888  0.7414  0.0000 -0.6710
     5 H(1)   Bbb    -0.0110    -5.864    -2.092    -1.956 -0.0000  1.0000  0.0000
              Bcc     0.0385    20.518     7.321     6.844  0.6710  0.0000  0.7414
 
              Baa    -0.0275   -14.654    -5.229    -4.888  0.7414  0.0000  0.6710
     6 H(1)   Bbb    -0.0110    -5.864    -2.092    -1.956 -0.0000  1.0000 -0.0000
              Bcc     0.0385    20.518     7.321     6.844 -0.6710 -0.0000  0.7414
 
              Baa    -0.0226   -12.062    -4.304    -4.023  1.0000  0.0000  0.0000
     7 H(1)   Bbb    -0.0093    -4.961    -1.770    -1.655 -0.0000  0.9891  0.1472
              Bcc     0.0319    17.023     6.074     5.678 -0.0000 -0.1472  0.9891
 
              Baa    -0.0226   -12.062    -4.304    -4.023  1.0000  0.0000 -0.0000
     8 H(1)   Bbb    -0.0093    -4.961    -1.770    -1.655 -0.0000  0.9891 -0.1472
              Bcc     0.0319    17.023     6.074     5.678  0.0000  0.1472  0.9891
 
              Baa    -0.0275   -14.654    -5.229    -4.888  0.7414  0.0000 -0.6710
     9 H(1)   Bbb    -0.0110    -5.864    -2.092    -1.956 -0.0000  1.0000  0.0000
              Bcc     0.0385    20.518     7.321     6.844  0.6710  0.0000  0.7414
 
              Baa    -0.0275   -14.654    -5.229    -4.888  0.7414  0.0000  0.6710
    10 H(1)   Bbb    -0.0110    -5.864    -2.092    -1.956 -0.0000  1.0000 -0.0000
              Bcc     0.0385    20.518     7.321     6.844 -0.6710 -0.0000  0.7414
 
              Baa    -0.0226   -12.062    -4.304    -4.023  1.0000  0.0000 -0.0000
    11 H(1)   Bbb    -0.0093    -4.961    -1.770    -1.655 -0.0000  0.9891 -0.1472
              Bcc     0.0319    17.023     6.074     5.678  0.0000  0.1472  0.9891
 
              Baa    -0.0226   -12.062    -4.304    -4.023  1.0000  0.0000  0.0000
    12 H(1)   Bbb    -0.0093    -4.961    -1.770    -1.655 -0.0000  0.9891  0.1472
              Bcc     0.0319    17.023     6.074     5.678 -0.0000 -0.1472  0.9891
 

 ---------------------------------------------------------------------------------

 1\1\GINC-GTX1080DELTA\FOpt\UHF\6-31G(d)\C4H8(1+,2)\MVEROT\16-Apr-2022\
 0\\# hf/6-31G* Opt\\Optimisation de geometrie\\1,2\C,1.8278312495,2.97
 01165197,0.9291885576\C,0.7937242452,1.7949354443,0.9761152638\C,1.715
 9353916,0.5294001658,0.9528942042\C,2.7500425275,1.7045827493,0.905968
 7556\H,1.8874905537,3.5716586561,1.8182905727\H,1.8226510332,3.5572470
 32,0.0285412888\H,0.2130671175,1.8126966209,0.0634742672\H,0.280615758
 2,1.827708929,1.9279751518\H,1.6562761231,-0.0721407232,0.0637913458\H
 ,1.7211155435,-0.0577313843,1.8535407846\H,3.2631519447,1.6718067932,-
 0.0458905832\H,3.3306985124,1.6868191973,1.8186103912\\Version=AM64L-G
 09RevD.01\State=2-A\HF=-155.7601904\S2=0.765563\S2-1=0.\S2A=0.750156\R
 MSD=5.956e-09\RMSF=4.915e-05\Dipole=-0.0000003,-0.0000061,0.\Quadrupol
 e=-0.0967315,0.7044021,-0.6076706,0.0366132,-0.0188335,-0.0118971\PG=C
 01 [X(C4H8)]\\@


 SILVERMAN'S PARADOX - IF MURPHY'S LAW CAN GO WRONG, IT WILL.
 Job cpu time:       0 days  0 hours  0 minutes  7.6 seconds.
 File lengths (MBytes):  RWF=    132 Int=      0 D2E=      0 Chk=      3 Scr=      2
 Normal termination of Gaussian 09 at Sat Apr 16 16:26:37 2022.
