42
	Energy:     242.7533458
X	0.0000000	0.0000000	0.0000000
X	1.7604556	0.0000000	0.0000000
O	1.7850434	1.7831954	0.0000000
O	1.7358678	-1.7831954	0.0000001
C	0.9433394	1.3466250	-0.9541934
C	0.9868957	1.9289906	-2.2268929
C	0.1145060	1.5131516	-3.2255938
C	-0.8220697	0.5065074	-2.9701412
C	-1.7023501	0.1002033	-3.9823410
C	-2.6389977	-0.9034456	-3.7379215
C	-2.7043746	-1.5125942	-2.4844261
C	-1.8335436	-1.1215312	-1.4646104
C	-0.8811421	-0.1032404	-1.6902151
C	0.0158280	0.3192558	-0.6741845
C	-0.0158280	-0.3192558	0.6741845
C	0.8668056	-1.3816065	0.9479031
C	0.8261648	-2.0339501	2.1889448
C	-0.0979088	-1.6500603	3.1587874
C	-0.9927902	-0.6034561	2.9036953
C	-1.9306104	-0.2272604	3.8769916
C	-2.8221207	0.8167445	3.6255921
C	-2.7843855	1.4946577	2.4060532
C	-1.8602249	1.1297348	1.4255696
C	-0.9545207	0.0765050	1.6576088
H	1.7014550	2.7141587	-2.4410209
H	0.1671590	1.9812470	-4.2010646
H	-1.6627692	0.5624902	-4.9611777
H	-3.3159042	-1.2095900	-4.5242801
H	-3.4329719	-2.2917158	-2.3022422
H	-1.9107948	-1.6158091	-0.5044114
H	1.5078178	-2.8489613	2.3997214
H	-0.1172330	-2.1722282	4.1089733
H	-1.9716190	-0.7420451	4.8299618
H	-3.5440624	1.1025219	4.3788012
H	-3.4752083	2.3046320	2.2166377
H	-1.8556310	1.6734954	0.4903321
H	2.4399017	2.4740953	-0.1783269
H	2.3175421	-2.5388427	0.1387009
X	-2.2415041	-6.3377122	1.2256986
X	-3.0852062	-6.1219171	0.7341709
X	-2.3389419	-7.2997067	0.9706057
X	-2.7693987	-6.5050412	2.0583620
