 Entering Gaussian System, Link 0=g09
 Input=/scratch/mverot/anthracene-1-5-opt-zindo/anthracene-1-5-opt-zindo.com
 Output=/scratch/mverot/anthracene-1-5-opt-zindo/anthracene-1-5-opt-zindo.log
 Initial command:
 /opt/g09/l1.exe "/scratch/mverot/anthracene-1-5-opt-zindo/Gau-2824128.inp" -scrdir="/scratch/mverot/anthracene-1-5-opt-zindo/"
 Entering Link 1 = /opt/g09/l1.exe PID=   2824130.
  
 Copyright (c) 1988,1990,1992,1993,1995,1998,2003,2009,2013,
            Gaussian, Inc.  All Rights Reserved.
  
 This is part of the Gaussian(R) 09 program.  It is based on
 the Gaussian(R) 03 system (copyright 2003, Gaussian, Inc.),
 the Gaussian(R) 98 system (copyright 1998, Gaussian, Inc.),
 the Gaussian(R) 94 system (copyright 1995, Gaussian, Inc.),
 the Gaussian 92(TM) system (copyright 1992, Gaussian, Inc.),
 the Gaussian 90(TM) system (copyright 1990, Gaussian, Inc.),
 the Gaussian 88(TM) system (copyright 1988, Gaussian, Inc.),
 the Gaussian 86(TM) system (copyright 1986, Carnegie Mellon
 University), and the Gaussian 82(TM) system (copyright 1983,
 Carnegie Mellon University). Gaussian is a federally registered
 trademark of Gaussian, Inc.
  
 This software contains proprietary and confidential information,
 including trade secrets, belonging to Gaussian, Inc.
  
 This software is provided under written license and may be
 used, copied, transmitted, or stored only in accord with that
 written license.
  
 The following legend is applicable only to US Government
 contracts under FAR:
  
                    RESTRICTED RIGHTS LEGEND
  
 Use, reproduction and disclosure by the US Government is
 subject to restrictions as set forth in subparagraphs (a)
 and (c) of the Commercial Computer Software - Restricted
 Rights clause in FAR 52.227-19.
  
 Gaussian, Inc.
 340 Quinnipiac St., Bldg. 40, Wallingford CT 06492
  
  
 ---------------------------------------------------------------
 Warning -- This program may not be used in any manner that
 competes with the business of Gaussian, Inc. or will provide
 assistance to any competitor of Gaussian, Inc.  The licensee
 of this program is prohibited from giving any competitor of
 Gaussian, Inc. access to this program.  By using this program,
 the user acknowledges that Gaussian, Inc. is engaged in the
 business of creating and licensing software in the field of
 computational chemistry and represents and warrants to the
 licensee that it is not a competitor of Gaussian, Inc. and that
 it will not use this program in any manner prohibited above.
 ---------------------------------------------------------------
  

 Cite this work as:
 Gaussian 09, Revision D.01,
 M. J. Frisch, G. W. Trucks, H. B. Schlegel, G. E. Scuseria, 
 M. A. Robb, J. R. Cheeseman, G. Scalmani, V. Barone, B. Mennucci, 
 G. A. Petersson, H. Nakatsuji, M. Caricato, X. Li, H. P. Hratchian, 
 A. F. Izmaylov, J. Bloino, G. Zheng, J. L. Sonnenberg, M. Hada, 
 M. Ehara, K. Toyota, R. Fukuda, J. Hasegawa, M. Ishida, T. Nakajima, 
 Y. Honda, O. Kitao, H. Nakai, T. Vreven, J. A. Montgomery, Jr., 
 J. E. Peralta, F. Ogliaro, M. Bearpark, J. J. Heyd, E. Brothers, 
 K. N. Kudin, V. N. Staroverov, T. Keith, R. Kobayashi, J. Normand, 
 K. Raghavachari, A. Rendell, J. C. Burant, S. S. Iyengar, J. Tomasi, 
 M. Cossi, N. Rega, J. M. Millam, M. Klene, J. E. Knox, J. B. Cross, 
 V. Bakken, C. Adamo, J. Jaramillo, R. Gomperts, R. E. Stratmann, 
 O. Yazyev, A. J. Austin, R. Cammi, C. Pomelli, J. W. Ochterski, 
 R. L. Martin, K. Morokuma, V. G. Zakrzewski, G. A. Voth, 
 P. Salvador, J. J. Dannenberg, S. Dapprich, A. D. Daniels, 
 O. Farkas, J. B. Foresman, J. V. Ortiz, J. Cioslowski, 
 and D. J. Fox, Gaussian, Inc., Wallingford CT, 2013.
 
 ******************************************
 Gaussian 09:  AM64L-G09RevD.01 24-Apr-2013
                12-Apr-2022 
 ******************************************
 %chk=anthracene-1-5-opt-zindo
 ------------------------------------
 #n ZINDO(NSTATE=10) pop=full gfinput
 ------------------------------------
 1/38=1/1;
 2/12=2,17=6,18=5,40=1/2;
 3/5=2,16=1,24=10,25=1,41=400000/1,2,8,3;
 4/5=3,35=1/1;
 5/5=2,35=1,38=5/2;
 8/6=1,108=10/1;
 9/41=10,42=1,49=10/14;
 6/7=3/1;
 99/5=1,9=1/99;
 ----------
 UV-spectra
 ----------
 Symbolic Z-matrix:
 Charge =  0 Multiplicity = 1
 C                    -0.01408   1.47219   0.00029 
 C                     1.2616    0.7456    0.00017 
 C                    -1.27085   0.68854   0.00011 
 O                    -0.06103   2.71625   0.00055 
 C                     0.01129  -1.45033  -0.00036 
 C                    -1.26439  -0.72374  -0.0002 
 O                     0.05824  -2.69438  -0.00062 
 C                     1.26806  -0.66668  -0.00014 
 C                     2.50117   1.41582   0.00036 
 C                    -2.50397  -1.39395  -0.00035 
 C                     2.46774  -1.37325  -0.00025 
 C                    -2.47053   1.39511   0.00026 
 C                     3.71847   0.6881    0.00024 
 C                     3.69207  -0.6921   -0.00006 
 C                    -3.69486   0.71397   0.00011 
 C                    -3.72126  -0.66623  -0.00019 
 H                     2.447    -2.47598  -0.0005 
 H                    -2.44979   2.49785   0.0005 
 H                     4.66521   1.24933   0.0004 
 H                     4.63339  -1.26387  -0.00015 
 H                    -4.66801  -1.22747  -0.00032 
 H                    -4.63618   1.28573   0.00023 
 O                     2.68051   2.7683    0.00067 
 H                     1.82807   3.23366   0.00073 
 O                    -2.6833   -2.74644  -0.00065 
 H                    -1.83087  -3.2118   -0.00076 
 
                          Input orientation:                          
 ---------------------------------------------------------------------
 Center     Atomic      Atomic             Coordinates (Angstroms)
 Number     Number       Type             X           Y           Z
 ---------------------------------------------------------------------
      1          6           0       -0.014077    1.472195    0.000285
      2          6           0        1.261598    0.745604    0.000169
      3          6           0       -1.270851    0.688543    0.000108
      4          8           0       -0.061033    2.716247    0.000546
      5          6           0        0.011286   -1.450331   -0.000362
      6          6           0       -1.264390   -0.723740   -0.000201
      7          8           0        0.058244   -2.694383   -0.000624
      8          6           0        1.268059   -0.666679   -0.000141
      9          6           0        2.501174    1.415819    0.000360
     10          6           0       -2.503967   -1.393954   -0.000350
     11          6           0        2.467739   -1.373249   -0.000254
     12          6           0       -2.470530    1.395114    0.000261
     13          6           0        3.718466    0.688099    0.000244
     14          6           0        3.692069   -0.692101   -0.000061
     15          6           0       -3.694860    0.713967    0.000110
     16          6           0       -3.721258   -0.666233   -0.000192
     17          1           0        2.447004   -2.475983   -0.000500
     18          1           0       -2.449794    2.497848    0.000502
     19          1           0        4.665214    1.249333    0.000401
     20          1           0        4.633394   -1.263866   -0.000154
     21          1           0       -4.668006   -1.227467   -0.000316
     22          1           0       -4.636185    1.285733    0.000235
     23          8           0        2.680505    2.768302    0.000666
     24          1           0        1.828071    3.233658    0.000730
     25          8           0       -2.683302   -2.746437   -0.000647
     26          1           0       -1.830871   -3.211798   -0.000755
 ---------------------------------------------------------------------
                    Distance matrix (angstroms):
                    1          2          3          4          5
     1  C    0.000000
     2  C    1.468088   0.000000
     3  C    1.481077   2.533092   0.000000
     4  O    1.244938   2.373349   2.361195   0.000000
     5  C    2.922636   2.526937   2.493724   4.167206   0.000000
     6  C    2.526938   2.922258   1.412299   3.644391   1.468088
     7  O    4.167206   3.644390   3.634650   5.411945   1.244938
     8  C    2.493723   1.412298   2.877967   3.634649   1.481077
     9  C    2.515882   1.409161   3.841497   2.873328   3.796624
    10  C    3.796625   4.330957   2.420201   4.781389   2.515884
    11  C    3.775707   2.438096   4.269431   4.808187   2.457662
    12  C    2.457662   3.788224   1.392290   2.747921   3.775707
    13  C    3.814011   2.457540   4.989316   4.289288   4.279727
    14  C    4.291817   2.823860   5.151383   5.069774   3.758068
    15  C    3.758068   4.956560   2.424143   4.148955   4.291819
    16  C    4.279727   5.179010   2.799985   4.983816   3.814013
    17  H    4.652421   3.432755   4.882281   5.766238   2.642855
    18  H    2.642854   4.104240   2.159511   2.398724   4.652422
    19  H    4.684595   3.440689   5.962495   4.948660   5.380263
    20  H    5.393053   3.925172   6.218682   6.154587   4.625868
    21  H    5.380263   6.249257   3.900226   6.064411   4.684596
    22  H    4.625867   5.922464   3.417910   4.793577   5.393054
    23  O    2.990095   2.470750   4.465267   2.742032   4.992154
    24  H    2.548777   2.551726   4.010103   1.958680   5.023989
    25  O    4.992156   5.268453   3.714042   6.059473   2.990100
    26  H    5.023995   5.022389   3.940340   6.186602   2.548785
                    6          7          8          9         10
     6  C    0.000000
     7  O    2.373351   0.000000
     8  C    2.533092   2.361194   0.000000
     9  C    4.330957   4.781388   2.420200   0.000000
    10  C    1.409161   2.873332   3.841498   5.739883   0.000000
    11  C    3.788225   2.747920   1.392291   2.789268   4.971749
    12  C    2.438097   4.808189   4.269431   4.971747   2.789268
    13  C    5.179010   4.983815   2.799985   1.418230   6.561525
    14  C    4.956560   4.148954   2.424143   2.421066   6.235660
    15  C    2.823861   5.069777   5.151384   6.235658   2.421066
    16  C    2.457541   4.289292   4.989317   6.561524   1.418230
    17  H    4.104242   2.398723   2.159511   3.892179   5.067829
    18  H    3.432756   5.766239   4.882280   5.067826   3.892179
    19  H    6.249258   6.064410   3.900226   2.170435   7.640950
    20  H    5.922465   4.793577   3.417910   3.424482   7.138546
    21  H    3.440689   4.948665   5.962496   7.640949   2.170434
    22  H    3.925173   6.154590   6.218682   7.138544   3.424482
    23  O    5.268450   6.059471   3.714041   1.364321   6.648543
    24  H    5.022382   6.186595   3.940336   1.938455   6.338876
    25  O    2.470752   2.742040   4.465272   6.648546   1.364321
    26  H    2.551731   1.958691   4.010112   6.338883   1.938456
                   11         12         13         14         15
    11  C    0.000000
    12  C    5.661302   0.000000
    13  C    2.411114   6.229248   0.000000
    14  C    1.401051   6.506465   1.380453   0.000000
    15  C    6.506466   1.401051   7.413371   7.519558   0.000000
    16  C    6.229250   2.411114   7.561991   7.413372   1.380453
    17  H    1.102929   6.258396   3.409990   2.175413   6.920858
    18  H    6.258396   1.102929   6.428267   6.920856   2.175412
    19  H    3.421525   7.137232   1.100598   2.171677   8.377198
    20  H    2.168415   7.585243   2.155751   1.101366   8.559886
    21  H    7.137235   3.421525   8.602459   8.377200   2.171677
    22  H    7.585244   2.168415   8.375998   8.559885   1.101366
    23  O    4.147013   5.330929   2.324781   3.605226   6.698177
    24  H    4.651104   4.675277   3.170719   4.345811   6.070553
    25  O    5.330936   4.147013   7.264893   6.698183   3.605225
    26  H    4.675287   4.651107   6.782649   6.070563   4.345813
                   16         17         18         19         20
    16  C    0.000000
    17  H    6.428270   0.000000
    18  H    3.409989   6.979800   0.000000
    19  H    8.602459   4.335716   7.223719   0.000000
    20  H    8.376000   2.499906   8.020102   2.513401   0.000000
    21  H    1.100598   7.223722   4.335716   9.656269   9.301471
    22  H    2.155751   8.020104   2.499905   9.301469   9.613820
    23  O    7.264888   5.249481   5.137423   2.499266   4.480196
    24  H    6.782640   5.743089   4.340685   3.462213   5.300713
    25  O    2.324780   5.137430   5.249481   8.364620   7.465391
    26  H    3.170720   4.340695   5.743093   7.880406   6.751382
                   21         22         23         24         25
    21  H    0.000000
    22  H    2.513401   0.000000
    23  O    8.364615   7.465384   0.000000
    24  H    7.880397   6.751371   0.971185   0.000000
    25  O    2.499264   4.480195   7.693035   7.490930   0.000000
    26  H    3.462211   5.300714   7.490935   7.411596   0.971185
                   26
    26  H    0.000000
 Stoichiometry    C14H8O4
 Framework group  C1[X(C14H8O4)]
 Deg. of freedom    72
 Full point group                 C1      NOp   1
 Largest Abelian subgroup         C1      NOp   1
 Largest concise Abelian subgroup C1      NOp   1
                         Standard orientation:                         
 ---------------------------------------------------------------------
 Center     Atomic      Atomic             Coordinates (Angstroms)
 Number     Number       Type             X           Y           Z
 ---------------------------------------------------------------------
      1          6           0       -0.397596   -1.406188   -0.000030
      2          6           0       -1.418337   -0.351025   -0.000011
      3          6           0        1.028504   -1.006405   -0.000012
      4          8           0       -0.701383   -2.613493   -0.000042
      5          6           0        0.397595    1.406190   -0.000039
      6          6           0        1.418337    0.351026   -0.000013
      7          8           0        0.701380    2.613495   -0.000029
      8          6           0       -1.028505    1.006406   -0.000013
      9          6           0       -2.796119   -0.646746    0.000009
     10          6           0        2.796120    0.646745    0.000008
     11          6           0       -1.981913    2.021041    0.000006
     12          6           0        1.981912   -2.021041    0.000008
     13          6           0       -3.760502    0.393130    0.000029
     14          6           0       -3.348127    1.710551    0.000027
     15          6           0        3.348126   -1.710552    0.000030
     16          6           0        3.760502   -0.393131    0.000030
     17          1           0       -1.652780    3.073715    0.000002
     18          1           0        1.652778   -3.073715    0.000008
     19          1           0       -4.826645    0.119902    0.000046
     20          1           0       -4.091349    2.523342    0.000042
     21          1           0        4.826645   -0.119904    0.000047
     22          1           0        4.091347   -2.523344    0.000047
     23          8           0       -3.347520   -1.894675    0.000016
     24          1           0       -2.659783   -2.580400   -0.000005
     25          8           0        3.347524    1.894673    0.000011
     26          1           0        2.659792    2.580402   -0.000012
 ---------------------------------------------------------------------
 Rotational constants (GHZ):      0.7958863      0.3502568      0.2432197
 Standard basis: VSTO-6G (5D, 7F)
 AO basis set in the form of general basis input (Overlap normalization):
      1 0
 S   6 1.00       0.000000000000
      0.7310560386D+02 -0.4151277819D-02
      0.1340682447D+02 -0.2067024148D-01
      0.3767606913D+01 -0.5150303337D-01
      0.5387761534D+00  0.3346271174D+00
      0.2445297546D+00  0.5621061301D+00
      0.1166148582D+00  0.1712994697D+00
 P   6 1.00       0.000000000000
      0.1549594249D+02  0.7924233646D-02
      0.4041026682D+01  0.5144104825D-01
      0.1445917850D+01  0.1898400060D+00
      0.6044212998D+00  0.4049863191D+00
      0.2763825918D+00  0.4012362861D+00
      0.1306639377D+00  0.1051855189D+00
 ****
      2 0
 S   6 1.00       0.000000000000
      0.7310560386D+02 -0.4151277819D-02
      0.1340682447D+02 -0.2067024148D-01
      0.3767606913D+01 -0.5150303337D-01
      0.5387761534D+00  0.3346271174D+00
      0.2445297546D+00  0.5621061301D+00
      0.1166148582D+00  0.1712994697D+00
 P   6 1.00       0.000000000000
      0.1549594249D+02  0.7924233646D-02
      0.4041026682D+01  0.5144104825D-01
      0.1445917850D+01  0.1898400060D+00
      0.6044212998D+00  0.4049863191D+00
      0.2763825918D+00  0.4012362861D+00
      0.1306639377D+00  0.1051855189D+00
 ****
      3 0
 S   6 1.00       0.000000000000
      0.7310560386D+02 -0.4151277819D-02
      0.1340682447D+02 -0.2067024148D-01
      0.3767606913D+01 -0.5150303337D-01
      0.5387761534D+00  0.3346271174D+00
      0.2445297546D+00  0.5621061301D+00
      0.1166148582D+00  0.1712994697D+00
 P   6 1.00       0.000000000000
      0.1549594249D+02  0.7924233646D-02
      0.4041026682D+01  0.5144104825D-01
      0.1445917850D+01  0.1898400060D+00
      0.6044212998D+00  0.4049863191D+00
      0.2763825918D+00  0.4012362861D+00
      0.1306639377D+00  0.1051855189D+00
 ****
      4 0
 S   6 1.00       0.000000000000
      0.1432869836D+03 -0.4151277819D-02
      0.2627737596D+02 -0.2067024148D-01
      0.7384509550D+01 -0.5150303337D-01
      0.1056001261D+01  0.3346271174D+00
      0.4792783190D+00  0.5621061301D+00
      0.2285651220D+00  0.1712994697D+00
 P   6 1.00       0.000000000000
      0.3037204728D+02  0.7924233646D-02
      0.7920412296D+01  0.5144104825D-01
      0.2833998986D+01  0.1898400060D+00
      0.1184665748D+01  0.4049863191D+00
      0.5417098800D+00  0.4012362861D+00
      0.2561013179D+00  0.1051855189D+00
 ****
      5 0
 S   6 1.00       0.000000000000
      0.7310560386D+02 -0.4151277819D-02
      0.1340682447D+02 -0.2067024148D-01
      0.3767606913D+01 -0.5150303337D-01
      0.5387761534D+00  0.3346271174D+00
      0.2445297546D+00  0.5621061301D+00
      0.1166148582D+00  0.1712994697D+00
 P   6 1.00       0.000000000000
      0.1549594249D+02  0.7924233646D-02
      0.4041026682D+01  0.5144104825D-01
      0.1445917850D+01  0.1898400060D+00
      0.6044212998D+00  0.4049863191D+00
      0.2763825918D+00  0.4012362861D+00
      0.1306639377D+00  0.1051855189D+00
 ****
      6 0
 S   6 1.00       0.000000000000
      0.7310560386D+02 -0.4151277819D-02
      0.1340682447D+02 -0.2067024148D-01
      0.3767606913D+01 -0.5150303337D-01
      0.5387761534D+00  0.3346271174D+00
      0.2445297546D+00  0.5621061301D+00
      0.1166148582D+00  0.1712994697D+00
 P   6 1.00       0.000000000000
      0.1549594249D+02  0.7924233646D-02
      0.4041026682D+01  0.5144104825D-01
      0.1445917850D+01  0.1898400060D+00
      0.6044212998D+00  0.4049863191D+00
      0.2763825918D+00  0.4012362861D+00
      0.1306639377D+00  0.1051855189D+00
 ****
      7 0
 S   6 1.00       0.000000000000
      0.1432869836D+03 -0.4151277819D-02
      0.2627737596D+02 -0.2067024148D-01
      0.7384509550D+01 -0.5150303337D-01
      0.1056001261D+01  0.3346271174D+00
      0.4792783190D+00  0.5621061301D+00
      0.2285651220D+00  0.1712994697D+00
 P   6 1.00       0.000000000000
      0.3037204728D+02  0.7924233646D-02
      0.7920412296D+01  0.5144104825D-01
      0.2833998986D+01  0.1898400060D+00
      0.1184665748D+01  0.4049863191D+00
      0.5417098800D+00  0.4012362861D+00
      0.2561013179D+00  0.1051855189D+00
 ****
      8 0
 S   6 1.00       0.000000000000
      0.7310560386D+02 -0.4151277819D-02
      0.1340682447D+02 -0.2067024148D-01
      0.3767606913D+01 -0.5150303337D-01
      0.5387761534D+00  0.3346271174D+00
      0.2445297546D+00  0.5621061301D+00
      0.1166148582D+00  0.1712994697D+00
 P   6 1.00       0.000000000000
      0.1549594249D+02  0.7924233646D-02
      0.4041026682D+01  0.5144104825D-01
      0.1445917850D+01  0.1898400060D+00
      0.6044212998D+00  0.4049863191D+00
      0.2763825918D+00  0.4012362861D+00
      0.1306639377D+00  0.1051855189D+00
 ****
      9 0
 S   6 1.00       0.000000000000
      0.7310560386D+02 -0.4151277819D-02
      0.1340682447D+02 -0.2067024148D-01
      0.3767606913D+01 -0.5150303337D-01
      0.5387761534D+00  0.3346271174D+00
      0.2445297546D+00  0.5621061301D+00
      0.1166148582D+00  0.1712994697D+00
 P   6 1.00       0.000000000000
      0.1549594249D+02  0.7924233646D-02
      0.4041026682D+01  0.5144104825D-01
      0.1445917850D+01  0.1898400060D+00
      0.6044212998D+00  0.4049863191D+00
      0.2763825918D+00  0.4012362861D+00
      0.1306639377D+00  0.1051855189D+00
 ****
     10 0
 S   6 1.00       0.000000000000
      0.7310560386D+02 -0.4151277819D-02
      0.1340682447D+02 -0.2067024148D-01
      0.3767606913D+01 -0.5150303337D-01
      0.5387761534D+00  0.3346271174D+00
      0.2445297546D+00  0.5621061301D+00
      0.1166148582D+00  0.1712994697D+00
 P   6 1.00       0.000000000000
      0.1549594249D+02  0.7924233646D-02
      0.4041026682D+01  0.5144104825D-01
      0.1445917850D+01  0.1898400060D+00
      0.6044212998D+00  0.4049863191D+00
      0.2763825918D+00  0.4012362861D+00
      0.1306639377D+00  0.1051855189D+00
 ****
     11 0
 S   6 1.00       0.000000000000
      0.7310560386D+02 -0.4151277819D-02
      0.1340682447D+02 -0.2067024148D-01
      0.3767606913D+01 -0.5150303337D-01
      0.5387761534D+00  0.3346271174D+00
      0.2445297546D+00  0.5621061301D+00
      0.1166148582D+00  0.1712994697D+00
 P   6 1.00       0.000000000000
      0.1549594249D+02  0.7924233646D-02
      0.4041026682D+01  0.5144104825D-01
      0.1445917850D+01  0.1898400060D+00
      0.6044212998D+00  0.4049863191D+00
      0.2763825918D+00  0.4012362861D+00
      0.1306639377D+00  0.1051855189D+00
 ****
     12 0
 S   6 1.00       0.000000000000
      0.7310560386D+02 -0.4151277819D-02
      0.1340682447D+02 -0.2067024148D-01
      0.3767606913D+01 -0.5150303337D-01
      0.5387761534D+00  0.3346271174D+00
      0.2445297546D+00  0.5621061301D+00
      0.1166148582D+00  0.1712994697D+00
 P   6 1.00       0.000000000000
      0.1549594249D+02  0.7924233646D-02
      0.4041026682D+01  0.5144104825D-01
      0.1445917850D+01  0.1898400060D+00
      0.6044212998D+00  0.4049863191D+00
      0.2763825918D+00  0.4012362861D+00
      0.1306639377D+00  0.1051855189D+00
 ****
     13 0
 S   6 1.00       0.000000000000
      0.7310560386D+02 -0.4151277819D-02
      0.1340682447D+02 -0.2067024148D-01
      0.3767606913D+01 -0.5150303337D-01
      0.5387761534D+00  0.3346271174D+00
      0.2445297546D+00  0.5621061301D+00
      0.1166148582D+00  0.1712994697D+00
 P   6 1.00       0.000000000000
      0.1549594249D+02  0.7924233646D-02
      0.4041026682D+01  0.5144104825D-01
      0.1445917850D+01  0.1898400060D+00
      0.6044212998D+00  0.4049863191D+00
      0.2763825918D+00  0.4012362861D+00
      0.1306639377D+00  0.1051855189D+00
 ****
     14 0
 S   6 1.00       0.000000000000
      0.7310560386D+02 -0.4151277819D-02
      0.1340682447D+02 -0.2067024148D-01
      0.3767606913D+01 -0.5150303337D-01
      0.5387761534D+00  0.3346271174D+00
      0.2445297546D+00  0.5621061301D+00
      0.1166148582D+00  0.1712994697D+00
 P   6 1.00       0.000000000000
      0.1549594249D+02  0.7924233646D-02
      0.4041026682D+01  0.5144104825D-01
      0.1445917850D+01  0.1898400060D+00
      0.6044212998D+00  0.4049863191D+00
      0.2763825918D+00  0.4012362861D+00
      0.1306639377D+00  0.1051855189D+00
 ****
     15 0
 S   6 1.00       0.000000000000
      0.7310560386D+02 -0.4151277819D-02
      0.1340682447D+02 -0.2067024148D-01
      0.3767606913D+01 -0.5150303337D-01
      0.5387761534D+00  0.3346271174D+00
      0.2445297546D+00  0.5621061301D+00
      0.1166148582D+00  0.1712994697D+00
 P   6 1.00       0.000000000000
      0.1549594249D+02  0.7924233646D-02
      0.4041026682D+01  0.5144104825D-01
      0.1445917850D+01  0.1898400060D+00
      0.6044212998D+00  0.4049863191D+00
      0.2763825918D+00  0.4012362861D+00
      0.1306639377D+00  0.1051855189D+00
 ****
     16 0
 S   6 1.00       0.000000000000
      0.7310560386D+02 -0.4151277819D-02
      0.1340682447D+02 -0.2067024148D-01
      0.3767606913D+01 -0.5150303337D-01
      0.5387761534D+00  0.3346271174D+00
      0.2445297546D+00  0.5621061301D+00
      0.1166148582D+00  0.1712994697D+00
 P   6 1.00       0.000000000000
      0.1549594249D+02  0.7924233646D-02
      0.4041026682D+01  0.5144104825D-01
      0.1445917850D+01  0.1898400060D+00
      0.6044212998D+00  0.4049863191D+00
      0.2763825918D+00  0.4012362861D+00
      0.1306639377D+00  0.1051855189D+00
 ****
     17 0
 S   6 1.00       0.000000000000
      0.3326836535D+02  0.9163596281D-02
      0.6099718369D+01  0.4936149294D-01
      0.1706481387D+01  0.1685383049D+00
      0.5862224134D+00  0.3705627997D+00
      0.2276473177D+00  0.4164915298D+00
      0.9375773694D-01  0.1303340841D+00
 ****
     18 0
 S   6 1.00       0.000000000000
      0.3326836535D+02  0.9163596281D-02
      0.6099718369D+01  0.4936149294D-01
      0.1706481387D+01  0.1685383049D+00
      0.5862224134D+00  0.3705627997D+00
      0.2276473177D+00  0.4164915298D+00
      0.9375773694D-01  0.1303340841D+00
 ****
     19 0
 S   6 1.00       0.000000000000
      0.3326836535D+02  0.9163596281D-02
      0.6099718369D+01  0.4936149294D-01
      0.1706481387D+01  0.1685383049D+00
      0.5862224134D+00  0.3705627997D+00
      0.2276473177D+00  0.4164915298D+00
      0.9375773694D-01  0.1303340841D+00
 ****
     20 0
 S   6 1.00       0.000000000000
      0.3326836535D+02  0.9163596281D-02
      0.6099718369D+01  0.4936149294D-01
      0.1706481387D+01  0.1685383049D+00
      0.5862224134D+00  0.3705627997D+00
      0.2276473177D+00  0.4164915298D+00
      0.9375773694D-01  0.1303340841D+00
 ****
     21 0
 S   6 1.00       0.000000000000
      0.3326836535D+02  0.9163596281D-02
      0.6099718369D+01  0.4936149294D-01
      0.1706481387D+01  0.1685383049D+00
      0.5862224134D+00  0.3705627997D+00
      0.2276473177D+00  0.4164915298D+00
      0.9375773694D-01  0.1303340841D+00
 ****
     22 0
 S   6 1.00       0.000000000000
      0.3326836535D+02  0.9163596281D-02
      0.6099718369D+01  0.4936149294D-01
      0.1706481387D+01  0.1685383049D+00
      0.5862224134D+00  0.3705627997D+00
      0.2276473177D+00  0.4164915298D+00
      0.9375773694D-01  0.1303340841D+00
 ****
     23 0
 S   6 1.00       0.000000000000
      0.1432869836D+03 -0.4151277819D-02
      0.2627737596D+02 -0.2067024148D-01
      0.7384509550D+01 -0.5150303337D-01
      0.1056001261D+01  0.3346271174D+00
      0.4792783190D+00  0.5621061301D+00
      0.2285651220D+00  0.1712994697D+00
 P   6 1.00       0.000000000000
      0.3037204728D+02  0.7924233646D-02
      0.7920412296D+01  0.5144104825D-01
      0.2833998986D+01  0.1898400060D+00
      0.1184665748D+01  0.4049863191D+00
      0.5417098800D+00  0.4012362861D+00
      0.2561013179D+00  0.1051855189D+00
 ****
     24 0
 S   6 1.00       0.000000000000
      0.3326836535D+02  0.9163596281D-02
      0.6099718369D+01  0.4936149294D-01
      0.1706481387D+01  0.1685383049D+00
      0.5862224134D+00  0.3705627997D+00
      0.2276473177D+00  0.4164915298D+00
      0.9375773694D-01  0.1303340841D+00
 ****
     25 0
 S   6 1.00       0.000000000000
      0.1432869836D+03 -0.4151277819D-02
      0.2627737596D+02 -0.2067024148D-01
      0.7384509550D+01 -0.5150303337D-01
      0.1056001261D+01  0.3346271174D+00
      0.4792783190D+00  0.5621061301D+00
      0.2285651220D+00  0.1712994697D+00
 P   6 1.00       0.000000000000
      0.3037204728D+02  0.7924233646D-02
      0.7920412296D+01  0.5144104825D-01
      0.2833998986D+01  0.1898400060D+00
      0.1184665748D+01  0.4049863191D+00
      0.5417098800D+00  0.4012362861D+00
      0.2561013179D+00  0.1051855189D+00
 ****
     26 0
 S   6 1.00       0.000000000000
      0.3326836535D+02  0.9163596281D-02
      0.6099718369D+01  0.4936149294D-01
      0.1706481387D+01  0.1685383049D+00
      0.5862224134D+00  0.3705627997D+00
      0.2276473177D+00  0.4164915298D+00
      0.9375773694D-01  0.1303340841D+00
 ****

 There are    80 symmetry adapted cartesian basis functions of A   symmetry.
 There are    80 symmetry adapted basis functions of A   symmetry.
    80 basis functions,   480 primitive gaussians,    80 cartesian basis functions
    44 alpha electrons       44 beta electrons
       nuclear repulsion energy       612.1609840188 Hartrees.
 Integral buffers will be    131072 words long.
 Regular integral format.
 Two-electron integral symmetry is turned off.
 Do NDO integrals.
 One-electron integrals computed using PRISM.
 Generate ZINDO/S integrals.
 NDO Nuclear repulsion=   472.833819759322 Hartrees.
 NBasis=    80 RedAO= F EigKep=  0.00D+00  NBF=    80
 NBsUse=    80 1.00D-04 EigRej=  0.00D+00 NBFU=    80
 DipDrv:  will hold  3 matrices at once.
 Simple Huckel Guess.
 Overlap will be assumed to be unity.
 Requested convergence on RMS density matrix=1.00D-08 within 128 cycles.
 Requested convergence on MAX density matrix=1.00D-06.
 Requested convergence on             energy=1.00D-06.
 No special actions if energy rises.
 SCF Done:  E(RZINDO/S) =  -132.254741787     A.U. after   14 cycles
            NFock= 14  Conv=0.38D-08     -V/T= 0.8840
 Range of M.O.s used for correlation:     1    80
 NBasis=    80 NAE=    44 NBE=    44 NFC=     0 NFV=     0
 NROrb=     80 NOA=    44 NOB=    44 NVA=    36 NVB=    36
 Orbital symmetries:
       Occupied  (A) (A) (A) (A) (A) (A) (A) (A) (A) (A) (A) (A)
                 (A) (A) (A) (A) (A) (A) (A) (A) (A) (A) (A) (A)
                 (A) (A) (A) (A) (A) (A) (A) (A) (A) (A) (A) (A)
                 (A) (A) (A) (A) (A) (A) (A) (A)
       Virtual   (A) (A) (A) (A) (A) (A) (A) (A) (A) (A) (A) (A)
                 (A) (A) (A) (A) (A) (A) (A) (A) (A) (A) (A) (A)
                 (A) (A) (A) (A) (A) (A) (A) (A) (A) (A) (A) (A)
    40 initial guesses have been made.
 Convergence on wavefunction:    0.001000000000000
 Iteration     1 Dimension    40 NMult     0 NNew     40
 CISAX will form    40 AO SS matrices at one time.
 New state      1 was old state      6
 New state      2 was old state      5
 New state      3 was old state      1
 New state      4 was old state      2
 New state      5 was old state      3
 New state      6 was old state      4
 New state      7 was old state      9
 New state      8 was old state     11
 New state      9 was old state      7
 New state     10 was old state      8
 Iteration     2 Dimension    80 NMult    40 NNew     40
 New state      1 was old state      2
 New state      2 was old state      1
 New state      7 was old state      9
 New state      8 was old state      7
 New state      9 was old state      8
 Iteration     3 Dimension    90 NMult    80 NNew     10
 Iteration     4 Dimension   100 NMult    90 NNew     10
 Iteration     5 Dimension   110 NMult   100 NNew     10
 Iteration     6 Dimension   113 NMult   110 NNew      3
 ***********************************************************************
 Excited states from <AA,BB:AA,BB> singles matrix:
 ***********************************************************************
 
 Ground to excited state transition densities written to RWF  633
 Ground to excited state transition electric dipole moments (Au):
       state          X           Y           Z        Dip. S.      Osc.
         1         0.0001     -0.0001     -0.0000      0.0000      0.0000
         2        -0.0000      0.0000     -0.0060      0.0000      0.0000
         3         2.2014     -0.4473      0.0000      5.0463      0.4333
         4         0.0000     -0.0000      0.0000      0.0000      0.0000
         5        -0.0000      0.0000     -0.0000      0.0000      0.0000
         6        -0.2631     -0.9883     -0.0000      1.0459      0.1139
         7         0.0000     -0.0000     -0.0000      0.0000      0.0000
         8        -0.0000      0.0000     -0.0000      0.0000      0.0000
         9         1.8157     -0.2305      0.0000      3.3500      0.4095
        10         0.3491      2.4747     -0.0000      6.2458      0.7875
 Ground to excited state transition velocity dipole moments (Au):
       state          X           Y           Z        Dip. S.      Osc.
         1        -0.0000      0.0000      0.0000      0.0000      0.0000
         2         0.0000     -0.0000      0.0010      0.0000      0.0000
         3        -0.1476      0.0263     -0.0000      0.0225      0.1163
         4        -0.0000      0.0000     -0.0000      0.0000      0.0000
         5         0.0000     -0.0000      0.0000      0.0000      0.0000
         6         0.0164      0.0305      0.0000      0.0012      0.0049
         7        -0.0000      0.0000      0.0000      0.0000      0.0000
         8         0.0000     -0.0000      0.0000      0.0000      0.0000
         9        -0.1992      0.0328     -0.0000      0.0408      0.1482
        10        -0.0139     -0.1831      0.0000      0.0337      0.1188
 Ground to excited state transition magnetic dipole moments (Au):
       state          X           Y           Z
         1         0.1978      0.9009      0.0001
         2        -0.0000     -0.0000     -0.0000
         3         0.0000      0.0000      0.0000
         4         0.0000      0.0000      0.0906
         5         0.0000      0.0000      1.3821
         6         0.0000     -0.0000      0.0000
         7         0.0000      0.0000     -1.2909
         8         0.0000     -0.0000     -0.1580
         9         0.0000      0.0000      0.0000
        10         0.0000     -0.0000     -0.0000
 Ground to excited state transition velocity quadrupole moments (Au):
       state          XX          YY          ZZ          XY          XZ          YZ
         1         0.0000      0.0000     -0.0000      0.0001     -0.0115     -0.0125
         2         0.0000     -0.0000      0.0000      0.0000      0.0000     -0.0000
         3         0.0000     -0.0000      0.0000     -0.0000     -0.0000      0.0000
         4        -0.4537     -0.0161     -0.0132      0.0891     -0.0000      0.0000
         5         0.2280     -0.0858      0.0074      0.0566     -0.0000      0.0000
         6         0.0000      0.0000     -0.0000     -0.0000      0.0000     -0.0000
         7        -0.1841      0.2279      0.0187     -0.8616      0.0000     -0.0000
         8         0.4606     -0.0341      0.0276     -0.3032      0.0000     -0.0000
         9         0.0000     -0.0000      0.0000     -0.0000     -0.0000      0.0000
        10        -0.0000      0.0000     -0.0000     -0.0000      0.0000     -0.0000
 <0|del|b> * <b|rxdel|0> + <0|del|b> * <b|delr+rdel|0>
 Rotatory Strengths (R) in cgs (10**-40 erg-esu-cm/Gauss)
       state          XX          YY          ZZ    R(velocity)    E-M Angle
         1         0.0292     -0.0096      0.0175      0.0124       90.00
         2        -0.0001     -0.0002      0.0000     -0.0001       90.00
         3         0.0013     -0.0049     -0.0031     -0.0022       90.00
         4        -0.0011     -0.0000     -0.0000     -0.0004       90.00
         5         0.0024      0.0022     -0.0000      0.0015       90.00
         6        -0.0008     -0.0001      0.0001     -0.0003       90.00
         7        -0.0030     -0.0006     -0.0000     -0.0012       90.00
         8        -0.0019      0.0006      0.0000     -0.0004       90.00
         9         0.0013     -0.0051     -0.0008     -0.0015       90.00
        10         0.0014     -0.0000     -0.0014     -0.0000       90.00
 1/2[<0|r|b>*<b|rxdel|0> + (<0|rxdel|b>*<b|r|0>)*]
 Rotatory Strengths (R) in cgs (10**-40 erg-esu-cm/Gauss)
       state          XX          YY          ZZ     R(length)
         1        -0.0073      0.0354      0.0000      0.0094
         2        -0.0000      0.0000     -0.0002     -0.0001
         3        -0.0145      0.0018     -0.0000     -0.0042
         4        -0.0000      0.0000     -0.0020     -0.0007
         5         0.0000     -0.0000      0.0092      0.0031
         6         0.0014     -0.0072      0.0000     -0.0019
         7        -0.0000      0.0000     -0.0019     -0.0006
         8         0.0000      0.0000     -0.0015     -0.0005
         9        -0.0105      0.0021     -0.0000     -0.0028
        10        -0.0007      0.0003     -0.0000     -0.0001
  1/2[<0|del|b>*<b|r|0> + (<0|r|b>*<b|del|0>)*] (Au)
       state          X           Y           Z        Dip. S.   Osc.(frdel)
         1        -0.0000     -0.0000     -0.0000      0.0000      0.0000
         2        -0.0000     -0.0000     -0.0000      0.0000      0.0000
         3        -0.3249     -0.0118     -0.0000      0.3367      0.2245
         4        -0.0000     -0.0000     -0.0000      0.0000      0.0000
         5        -0.0000     -0.0000     -0.0000      0.0000      0.0000
         6        -0.0043     -0.0302     -0.0000      0.0345      0.0230
         7        -0.0000     -0.0000     -0.0000      0.0000      0.0000
         8        -0.0000     -0.0000     -0.0000      0.0000      0.0000
         9        -0.3617     -0.0076     -0.0000      0.3692      0.2462
        10        -0.0048     -0.4531     -0.0000      0.4579      0.3053

 Excitation energies and oscillator strengths:
 
 Excited State   1:      Singlet-A      2.6288 eV  471.64 nm  f=0.0000  <S**2>=0.000
      39 -> 46        -0.29386
      39 -> 49         0.20954
      40 -> 45         0.57369
      40 -> 50        -0.15569
 This state for optimization and/or second-order correction.
 Total Energy, E(CIS) =  -132.158135016    
 Copying the excited state density for this state as the 1-particle RhoCI density.
 
 Excited State   2:      Singlet-A      2.6742 eV  463.64 nm  f=0.0000  <S**2>=0.000
      39 -> 45         0.56477
      39 -> 50        -0.16557
      40 -> 46        -0.30545
      40 -> 49         0.21028
 
 Excited State   3:      Singlet-A      3.5051 eV  353.73 nm  f=0.4333  <S**2>=0.000
      42 -> 46        -0.10956
      43 -> 47         0.16740
      44 -> 45         0.66164
 
 Excited State   4:      Singlet-A      3.6845 eV  336.51 nm  f=0.0000  <S**2>=0.000
      42 -> 45         0.20804
      42 -> 48         0.13411
      43 -> 45         0.61743
      44 -> 47         0.16367
 
 Excited State   5:      Singlet-A      3.8913 eV  318.62 nm  f=0.0000  <S**2>=0.000
      41 -> 47         0.10174
      42 -> 45         0.62900
      43 -> 45        -0.20362
      44 -> 46         0.14087
 
 Excited State   6:      Singlet-A      4.4457 eV  278.89 nm  f=0.1139  <S**2>=0.000
      41 -> 45         0.52991
      42 -> 47         0.10784
      43 -> 46         0.35232
      44 -> 48        -0.24098
 
 Excited State   7:      Singlet-A      4.8862 eV  253.74 nm  f=0.0000  <S**2>=0.000
      42 -> 45        -0.18974
      43 -> 48        -0.28957
      44 -> 46         0.58544
 
 Excited State   8:      Singlet-A      4.9575 eV  250.10 nm  f=0.0000  <S**2>=0.000
      41 -> 46        -0.33114
      42 -> 48         0.27227
      43 -> 45        -0.23870
      43 -> 50         0.22250
      44 -> 47         0.43119
 
 Excited State   9:      Singlet-A      4.9895 eV  248.49 nm  f=0.4095  <S**2>=0.000
      41 -> 48        -0.24048
      42 -> 46         0.46118
      43 -> 47        -0.33697
      44 -> 45         0.20585
      44 -> 50        -0.22191
 
 Excited State  10:      Singlet-A      5.1466 eV  240.90 nm  f=0.7875  <S**2>=0.000
      41 -> 45        -0.43587
      43 -> 46         0.47240
      44 -> 48        -0.24066
 SavETr:  write IOETrn=   770 NScale= 10 NData=  16 NLR=1 NState=   10 LETran=     190.

 **********************************************************************

            Population analysis using the SCF density.

 **********************************************************************

 Orbital symmetries:
       Occupied  (A) (A) (A) (A) (A) (A) (A) (A) (A) (A) (A) (A)
                 (A) (A) (A) (A) (A) (A) (A) (A) (A) (A) (A) (A)
                 (A) (A) (A) (A) (A) (A) (A) (A) (A) (A) (A) (A)
                 (A) (A) (A) (A) (A) (A) (A) (A)
       Virtual   (A) (A) (A) (A) (A) (A) (A) (A) (A) (A) (A) (A)
                 (A) (A) (A) (A) (A) (A) (A) (A) (A) (A) (A) (A)
                 (A) (A) (A) (A) (A) (A) (A) (A) (A) (A) (A) (A)
 The electronic state is 1-A.
 Alpha  occ. eigenvalues --   -1.75088  -1.69861  -1.61469  -1.58542  -1.53492
 Alpha  occ. eigenvalues --   -1.49035  -1.36196  -1.22504  -1.16583  -1.14875
 Alpha  occ. eigenvalues --   -1.04978  -1.02696  -1.00388  -0.89510  -0.87252
 Alpha  occ. eigenvalues --   -0.86808  -0.75619  -0.72937  -0.72755  -0.68375
 Alpha  occ. eigenvalues --   -0.66669  -0.64271  -0.61539  -0.60021  -0.58249
 Alpha  occ. eigenvalues --   -0.57559  -0.57156  -0.55523  -0.53041  -0.52399
 Alpha  occ. eigenvalues --   -0.51337  -0.50447  -0.50272  -0.48617  -0.48254
 Alpha  occ. eigenvalues --   -0.46477  -0.46465  -0.44815  -0.37436  -0.36563
 Alpha  occ. eigenvalues --   -0.36182  -0.35354  -0.33534  -0.32848
 Alpha virt. eigenvalues --   -0.06826  -0.01849  -0.00035   0.00790   0.04539
 Alpha virt. eigenvalues --    0.04779   0.05437   0.07996   0.08736   0.09206
 Alpha virt. eigenvalues --    0.10517   0.10608   0.11399   0.12209   0.12917
 Alpha virt. eigenvalues --    0.17793   0.18066   0.18403   0.20522   0.23020
 Alpha virt. eigenvalues --    0.24582   0.25257   0.27461   0.29102   0.30070
 Alpha virt. eigenvalues --    0.33864   0.34944   0.36544   0.39621   0.41509
 Alpha virt. eigenvalues --    0.43324   0.43407   0.45003   0.45735   0.48309
 Alpha virt. eigenvalues --    0.49570
     Molecular Orbital Coefficients:
                           1         2         3         4         5
                           O         O         O         O         O
     Eigenvalues --    -1.75088  -1.69861  -1.61469  -1.58542  -1.53492
   1 1   C  1S          0.27882  -0.16422  -0.25084  -0.17676   0.22833
   2        2PX        -0.01865   0.07717  -0.02926  -0.06900  -0.04630
   3        2PY        -0.01445   0.05660   0.13580  -0.02653  -0.16303
   4        2PZ         0.00000  -0.00000   0.00000  -0.00000  -0.00000
   5 2   C  1S          0.27542  -0.19939   0.08132  -0.11748  -0.06332
   6        2PX        -0.00077   0.06483  -0.06486  -0.09615   0.08477
   7        2PY        -0.00232   0.04091   0.12687  -0.07986  -0.11687
   8        2PZ         0.00000  -0.00000   0.00000   0.00000  -0.00000
   9 3   C  1S          0.24708   0.05502  -0.26223  -0.23716  -0.07247
  10        2PX        -0.00597   0.07134  -0.04108   0.02081  -0.13467
  11        2PY         0.02387   0.04194   0.05456  -0.01176  -0.04699
  12        2PZ         0.00000   0.00000  -0.00000   0.00000  -0.00000
  13 4   O  1S          0.22543  -0.20410  -0.32501  -0.08310   0.37702
  14        2PX         0.00941   0.01002  -0.04121  -0.04659   0.02764
  15        2PY         0.08643  -0.07629  -0.11414  -0.03434   0.13054
  16        2PZ         0.00000  -0.00000  -0.00000  -0.00000   0.00000
  17 5   C  1S          0.27881   0.16423   0.25085  -0.17676   0.22833
  18        2PX         0.01865   0.07717  -0.02926   0.06900   0.04630
  19        2PY         0.01445   0.05660   0.13580   0.02653   0.16304
  20        2PZ         0.00000   0.00000   0.00000  -0.00000   0.00000
  21 6   C  1S          0.27542   0.19940  -0.08131  -0.11748  -0.06331
  22        2PX         0.00076   0.06483  -0.06486   0.09614  -0.08477
  23        2PY         0.00232   0.04091   0.12686   0.07986   0.11687
  24        2PZ         0.00000   0.00000  -0.00000   0.00000  -0.00000
  25 7   O  1S          0.22542   0.20410   0.32501  -0.08309   0.37703
  26        2PX        -0.00941   0.01002  -0.04121   0.04659  -0.02764
  27        2PY        -0.08643  -0.07629  -0.11414   0.03434  -0.13054
  28        2PZ         0.00000  -0.00000  -0.00000   0.00000  -0.00000
  29 8   C  1S          0.24708  -0.05502   0.26223  -0.23716  -0.07247
  30        2PX         0.00597   0.07134  -0.04108  -0.02081   0.13467
  31        2PY        -0.02387   0.04194   0.05456   0.01176   0.04699
  32        2PZ         0.00000  -0.00000   0.00000   0.00000  -0.00000
  33 9   C  1S          0.25743  -0.31866   0.11048   0.17984  -0.14594
  34        2PX         0.02101   0.00924  -0.00596  -0.09162   0.02481
  35        2PY        -0.02792   0.07734   0.09929  -0.17481  -0.11448
  36        2PZ        -0.00000   0.00000   0.00000   0.00000  -0.00000
  37 10  C  1S          0.25742   0.31866  -0.11048   0.17984  -0.14593
  38        2PX        -0.02101   0.00924  -0.00596   0.09162  -0.02481
  39        2PY         0.02792   0.07734   0.09929   0.17481   0.11448
  40        2PZ        -0.00000  -0.00000  -0.00000   0.00000  -0.00000
  41 11  C  1S          0.15313  -0.06775   0.25925  -0.14763  -0.15394
  42        2PX         0.01637   0.03071   0.01537  -0.02724   0.08272
  43        2PY        -0.05753   0.04077  -0.07877   0.04716   0.07915
  44        2PZ        -0.00000  -0.00000  -0.00000   0.00000  -0.00000
  45 12  C  1S          0.15313   0.06775  -0.25925  -0.14763  -0.15394
  46        2PX        -0.01637   0.03071   0.01537   0.02724  -0.08272
  47        2PY         0.05753   0.04078  -0.07877  -0.04716  -0.07915
  48        2PZ        -0.00000   0.00000   0.00000   0.00000  -0.00000
  49 13  C  1S          0.14456  -0.16566   0.17383   0.02733  -0.23166
  50        2PX         0.05901  -0.05796   0.07150  -0.01568  -0.08216
  51        2PY        -0.01719   0.03894   0.03187  -0.07868  -0.03345
  52        2PZ        -0.00000   0.00000  -0.00000  -0.00000   0.00000
  53 14  C  1S          0.11615  -0.10103   0.20434  -0.07767  -0.23507
  54        2PX         0.03829  -0.02315   0.06484  -0.03938  -0.05009
  55        2PY        -0.03918   0.04198  -0.05286   0.00744   0.07329
  56        2PZ        -0.00000   0.00000  -0.00000   0.00000   0.00000
  57 15  C  1S          0.11614   0.10103  -0.20434  -0.07768  -0.23507
  58        2PX        -0.03829  -0.02315   0.06484   0.03938   0.05009
  59        2PY         0.03918   0.04198  -0.05286  -0.00744  -0.07329
  60        2PZ        -0.00000  -0.00000   0.00000   0.00000   0.00000
  61 16  C  1S          0.14456   0.16567  -0.17383   0.02732  -0.23166
  62        2PX        -0.05901  -0.05796   0.07150   0.01568   0.08216
  63        2PY         0.01719   0.03894   0.03187   0.07868   0.03345
  64        2PZ        -0.00000  -0.00000   0.00000  -0.00000   0.00000
  65 17  H  1S          0.05041  -0.00514   0.09248  -0.05267  -0.01597
  66 18  H  1S          0.05041   0.00514  -0.09248  -0.05267  -0.01597
  67 19  H  1S          0.04244  -0.05574   0.04391   0.03083  -0.06560
  68 20  H  1S          0.02776  -0.02454   0.05547  -0.02096  -0.06705
  69 21  H  1S          0.04244   0.05574  -0.04391   0.03083  -0.06560
  70 22  H  1S          0.02776   0.02454  -0.05547  -0.02096  -0.06705
  71 23  O  1S          0.25283  -0.39107  -0.02464   0.45496   0.00930
  72        2PX         0.06356  -0.09254  -0.01919   0.09157   0.02275
  73        2PY         0.04074  -0.06247   0.01543   0.06666  -0.02769
  74        2PZ        -0.00000   0.00000   0.00000  -0.00000  -0.00000
  75 24  H  1S          0.12409  -0.17890  -0.03820   0.17870   0.04266
  76 25  O  1S          0.25282   0.39108   0.02463   0.45496   0.00930
  77        2PX        -0.06356  -0.09254  -0.01919  -0.09157  -0.02275
  78        2PY        -0.04074  -0.06247   0.01543  -0.06666   0.02769
  79        2PZ        -0.00000  -0.00000  -0.00000  -0.00000  -0.00000
  80 26  H  1S          0.12409   0.17890   0.03820   0.17871   0.04266
                           6         7         8         9        10
                           O         O         O         O         O
     Eigenvalues --    -1.49035  -1.36196  -1.22504  -1.16583  -1.14875
   1 1   C  1S         -0.20572   0.09402  -0.00310  -0.03073  -0.05606
   2        2PX         0.04453   0.03493   0.18723   0.17826  -0.02011
   3        2PY         0.11078   0.29680  -0.03564   0.00751  -0.11845
   4        2PZ         0.00000   0.00000   0.00000   0.00000  -0.00000
   5 2   C  1S         -0.14977   0.24780  -0.24757  -0.17303  -0.23957
   6        2PX        -0.00318   0.14853  -0.01213   0.07438   0.07267
   7        2PY        -0.02885   0.03236  -0.02957   0.07991   0.00073
   8        2PZ         0.00000  -0.00000   0.00000  -0.00000  -0.00000
   9 3   C  1S          0.07760   0.16383   0.28281   0.18619  -0.04993
  10        2PX         0.11910  -0.12180   0.02147   0.00889   0.01731
  11        2PY         0.05669   0.17671   0.00239  -0.16677   0.16637
  12        2PZ         0.00000  -0.00000  -0.00000   0.00000  -0.00000
  13 4   O  1S         -0.29472  -0.28596  -0.02843  -0.10140   0.17551
  14        2PX        -0.04172  -0.03598   0.06249   0.05185  -0.02669
  15        2PY        -0.10463  -0.06696  -0.01790  -0.04470   0.01814
  16        2PZ        -0.00000  -0.00000   0.00000   0.00000  -0.00000
  17 5   C  1S          0.20572   0.09402   0.00310  -0.03073   0.05606
  18        2PX         0.04453  -0.03493   0.18723  -0.17826  -0.02011
  19        2PY         0.11078  -0.29680  -0.03564  -0.00751  -0.11845
  20        2PZ         0.00000   0.00000  -0.00000   0.00000   0.00000
  21 6   C  1S          0.14977   0.24780   0.24757  -0.17303   0.23957
  22        2PX        -0.00318  -0.14853  -0.01213  -0.07439   0.07267
  23        2PY        -0.02885  -0.03236  -0.02957  -0.07991   0.00073
  24        2PZ         0.00000  -0.00000  -0.00000  -0.00000   0.00000
  25 7   O  1S          0.29471  -0.28596   0.02843  -0.10140  -0.17551
  26        2PX        -0.04172   0.03598   0.06249  -0.05185  -0.02669
  27        2PY        -0.10463   0.06696  -0.01790   0.04470   0.01814
  28        2PZ        -0.00000   0.00000  -0.00000   0.00000   0.00000
  29 8   C  1S         -0.07760   0.16383  -0.28281   0.18619   0.04993
  30        2PX         0.11910   0.12180   0.02147  -0.00889   0.01731
  31        2PY         0.05669  -0.17671   0.00239   0.16677   0.16637
  32        2PZ        -0.00000  -0.00000   0.00000   0.00000   0.00000
  33 9   C  1S          0.04339   0.00226   0.02526  -0.18541  -0.23210
  34        2PX        -0.10234   0.06230  -0.18651  -0.05774  -0.04978
  35        2PY        -0.18801  -0.06581   0.05461  -0.13762  -0.12408
  36        2PZ         0.00000  -0.00000   0.00000   0.00000   0.00000
  37 10  C  1S         -0.04339   0.00226  -0.02526  -0.18541   0.23210
  38        2PX        -0.10234  -0.06230  -0.18651   0.05774  -0.04978
  39        2PY        -0.18801   0.06581   0.05461   0.13762  -0.12408
  40        2PZ        -0.00000  -0.00000  -0.00000   0.00000  -0.00000
  41 11  C  1S         -0.13289  -0.16479  -0.09548   0.32576   0.30898
  42        2PX         0.06757   0.06594  -0.15792   0.07018  -0.03834
  43        2PY         0.06563  -0.00568   0.04308   0.02433   0.06110
  44        2PZ        -0.00000  -0.00000   0.00000  -0.00000   0.00000
  45 12  C  1S          0.13290  -0.16479   0.09548   0.32577  -0.30897
  46        2PX         0.06757  -0.06594  -0.15792  -0.07018  -0.03834
  47        2PY         0.06563   0.00568   0.04308  -0.02433   0.06110
  48        2PZ         0.00000  -0.00000  -0.00000  -0.00000  -0.00000
  49 13  C  1S         -0.09455  -0.17407   0.32967  -0.22100  -0.13412
  50        2PX        -0.05591  -0.02581  -0.02306  -0.03296  -0.05498
  51        2PY        -0.08802  -0.06411   0.04828   0.02618   0.10923
  52        2PZ         0.00000   0.00000   0.00000   0.00000   0.00000
  53 14  C  1S         -0.18250  -0.23901   0.25411   0.03041   0.19968
  54        2PX        -0.04751  -0.02552  -0.09002   0.11035   0.07255
  55        2PY         0.04465   0.03083  -0.07265   0.12926   0.12867
  56        2PZ         0.00000   0.00000   0.00000  -0.00000  -0.00000
  57 15  C  1S          0.18251  -0.23901  -0.25411   0.03041  -0.19968
  58        2PX        -0.04751   0.02552  -0.09002  -0.11035   0.07255
  59        2PY         0.04465  -0.03083  -0.07265  -0.12926   0.12867
  60        2PZ        -0.00000   0.00000  -0.00000  -0.00000   0.00000
  61 16  C  1S          0.09455  -0.17407  -0.32967  -0.22100   0.13412
  62        2PX        -0.05591   0.02581  -0.02306   0.03296  -0.05498
  63        2PY        -0.08802   0.06411   0.04828  -0.02618   0.10923
  64        2PZ        -0.00000   0.00000  -0.00000   0.00000  -0.00000
  65 17  H  1S         -0.01541  -0.07673  -0.04890   0.17732   0.16852
  66 18  H  1S          0.01541  -0.07673   0.04890   0.17733  -0.16852
  67 19  H  1S         -0.00563  -0.06105   0.16248  -0.08996  -0.04861
  68 20  H  1S         -0.05370  -0.09240   0.12447   0.02564   0.12061
  69 21  H  1S          0.00563  -0.06105  -0.16248  -0.08996   0.04861
  70 22  H  1S          0.05370  -0.09240  -0.12447   0.02564  -0.12061
  71 23  O  1S          0.37432   0.06662   0.00784   0.21737   0.15491
  72        2PX         0.06247   0.01866  -0.04874   0.02361   0.03333
  73        2PY         0.04758   0.00017   0.05436  -0.05445  -0.08858
  74        2PZ        -0.00000  -0.00000   0.00000  -0.00000  -0.00000
  75 24  H  1S          0.12705   0.01973  -0.04880   0.09033   0.11010
  76 25  O  1S         -0.37432   0.06662  -0.00784   0.21737  -0.15491
  77        2PX         0.06247  -0.01866  -0.04874  -0.02361   0.03333
  78        2PY         0.04758  -0.00017   0.05436   0.05445  -0.08858
  79        2PZ         0.00000  -0.00000  -0.00000  -0.00000   0.00000
  80 26  H  1S         -0.12705   0.01973   0.04880   0.09033  -0.11010
                          11        12        13        14        15
                           O         O         O         O         O
     Eigenvalues --    -1.04978  -1.02696  -1.00388  -0.89510  -0.87252
   1 1   C  1S          0.15011   0.02260  -0.21561   0.10035  -0.08723
   2        2PX         0.11329  -0.19849  -0.04768   0.07470   0.07608
   3        2PY         0.10091   0.08935  -0.22192   0.00836  -0.05649
   4        2PZ         0.00000   0.00000  -0.00001   0.00000  -0.00000
   5 2   C  1S         -0.13101   0.13026  -0.18586  -0.06222  -0.04748
   6        2PX         0.25044   0.04535  -0.03689  -0.04068   0.00219
   7        2PY        -0.02092  -0.12067   0.16286  -0.10610   0.18858
   8        2PZ        -0.00000  -0.00000  -0.00000   0.00000   0.00000
   9 3   C  1S          0.00852  -0.15513  -0.21165   0.13187   0.12191
  10        2PX        -0.24425   0.00586   0.08607  -0.07666   0.07492
  11        2PY         0.01564   0.12016   0.09707   0.09826   0.05300
  12        2PZ        -0.00000   0.00000  -0.00000  -0.00000   0.00000
  13 4   O  1S         -0.04185  -0.01337   0.28002  -0.03651   0.10887
  14        2PX         0.03745  -0.11044   0.00839   0.04257  -0.02546
  15        2PY         0.00259   0.01247  -0.02162   0.04719  -0.06019
  16        2PZ        -0.00000   0.00000  -0.00000  -0.00000  -0.00000
  17 5   C  1S          0.15011   0.02260   0.21561  -0.10035  -0.08724
  18        2PX        -0.11329   0.19849  -0.04769   0.07470  -0.07609
  19        2PY        -0.10091  -0.08936  -0.22192   0.00836   0.05649
  20        2PZ         0.00000   0.00000   0.00000  -0.00000  -0.00000
  21 6   C  1S         -0.13101   0.13026   0.18586   0.06222  -0.04748
  22        2PX        -0.25044  -0.04535  -0.03689  -0.04068  -0.00218
  23        2PY         0.02092   0.12067   0.16286  -0.10610  -0.18859
  24        2PZ        -0.00000  -0.00000  -0.00000  -0.00000   0.00000
  25 7   O  1S         -0.04185  -0.01337  -0.28002   0.03651   0.10887
  26        2PX        -0.03745   0.11044   0.00839   0.04257   0.02545
  27        2PY        -0.00259  -0.01247  -0.02162   0.04719   0.06020
  28        2PZ         0.00000   0.00000   0.00000   0.00000  -0.00000
  29 8   C  1S          0.00852  -0.15513   0.21165  -0.13187   0.12191
  30        2PX         0.24425  -0.00586   0.08607  -0.07666  -0.07491
  31        2PY        -0.01564  -0.12016   0.09707   0.09826  -0.05300
  32        2PZ        -0.00000   0.00000  -0.00000   0.00000   0.00000
  33 9   C  1S         -0.14025  -0.13398   0.04119   0.19569  -0.18657
  34        2PX        -0.21206   0.20020  -0.18009  -0.11652   0.03935
  35        2PY        -0.05239  -0.07066   0.06222  -0.05066   0.13047
  36        2PZ         0.00000  -0.00000   0.00000   0.00000  -0.00000
  37 10  C  1S         -0.14025  -0.13398  -0.04119  -0.19569  -0.18657
  38        2PX         0.21206  -0.20020  -0.18008  -0.11652  -0.03935
  39        2PY         0.05239   0.07066   0.06222  -0.05067  -0.13048
  40        2PZ         0.00000  -0.00000  -0.00000  -0.00000  -0.00000
  41 11  C  1S         -0.10696   0.02156  -0.02772   0.22598  -0.14575
  42        2PX        -0.02303  -0.22375   0.16767  -0.02870   0.06201
  43        2PY         0.08106   0.06503  -0.07820   0.11947  -0.19937
  44        2PZ         0.00000   0.00000  -0.00000   0.00000  -0.00000
  45 12  C  1S         -0.10697   0.02156   0.02772  -0.22598  -0.14575
  46        2PX         0.02303   0.22376   0.16767  -0.02870  -0.06200
  47        2PY        -0.08106  -0.06503  -0.07820   0.11948   0.19938
  48        2PZ         0.00000   0.00000   0.00000  -0.00000  -0.00000
  49 13  C  1S          0.24376  -0.14278   0.14178  -0.07243   0.06826
  50        2PX        -0.15941  -0.01812  -0.00572   0.06926   0.02151
  51        2PY         0.06710   0.21045  -0.13318  -0.23033   0.15740
  52        2PZ         0.00000   0.00000  -0.00000  -0.00000   0.00000
  53 14  C  1S          0.17505   0.27816  -0.18664  -0.09550  -0.01490
  54        2PX        -0.18410  -0.00635  -0.01483   0.18677  -0.05908
  55        2PY        -0.01658   0.11101  -0.10485   0.12886  -0.19927
  56        2PZ         0.00000   0.00000  -0.00000  -0.00000   0.00000
  57 15  C  1S          0.17504   0.27816   0.18664   0.09550  -0.01490
  58        2PX         0.18410   0.00635  -0.01483   0.18677   0.05906
  59        2PY         0.01658  -0.11101  -0.10485   0.12886   0.19927
  60        2PZ         0.00000   0.00000   0.00000   0.00000  -0.00000
  61 16  C  1S          0.24376  -0.14278  -0.14178   0.07243   0.06825
  62        2PX         0.15941   0.01812  -0.00572   0.06926  -0.02153
  63        2PY        -0.06710  -0.21045  -0.13318  -0.23033  -0.15740
  64        2PZ         0.00000   0.00000   0.00000   0.00000   0.00000
  65 17  H  1S         -0.01224   0.00426  -0.03575   0.17866  -0.17980
  66 18  H  1S         -0.01225   0.00426   0.03575  -0.17866  -0.17981
  67 19  H  1S          0.19860  -0.09067   0.09346  -0.04424  -0.00116
  68 20  H  1S          0.14903   0.18657  -0.13230  -0.06776  -0.07684
  69 21  H  1S          0.19860  -0.09067  -0.09346   0.04424  -0.00117
  70 22  H  1S          0.14903   0.18657   0.13229   0.06776  -0.07684
  71 23  O  1S          0.06957   0.02809  -0.01758  -0.10001   0.13873
  72        2PX        -0.05480   0.09153  -0.06625  -0.05507   0.01590
  73        2PY         0.02968  -0.16263   0.08225   0.30726  -0.33747
  74        2PZ         0.00000  -0.00000   0.00000   0.00000  -0.00000
  75 24  H  1S         -0.02005   0.12754  -0.05561  -0.19746   0.20742
  76 25  O  1S          0.06957   0.02809   0.01758   0.10001   0.13874
  77        2PX         0.05480  -0.09153  -0.06625  -0.05507  -0.01590
  78        2PY        -0.02969   0.16263   0.08225   0.30726   0.33747
  79        2PZ         0.00000  -0.00000  -0.00000  -0.00000  -0.00000
  80 26  H  1S         -0.02005   0.12754   0.05561   0.19746   0.20742
                          16        17        18        19        20
                           O         O         O         O         O
     Eigenvalues --    -0.86808  -0.75619  -0.72937  -0.72755  -0.68375
   1 1   C  1S         -0.04750   0.25152   0.03407  -0.09254  -0.05997
   2        2PX         0.27602   0.05086   0.02153   0.01358  -0.12032
   3        2PY        -0.08159   0.10538  -0.01429   0.02705   0.10526
   4        2PZ         0.00000   0.00000  -0.00000  -0.00001   0.00000
   5 2   C  1S         -0.09289  -0.00605   0.09485  -0.02690   0.06576
   6        2PX        -0.12337   0.24218   0.20403   0.15037   0.09818
   7        2PY         0.19639   0.00309   0.23329   0.21496  -0.01990
   8        2PZ         0.00000  -0.00000  -0.00000  -0.00000  -0.00000
   9 3   C  1S          0.05974  -0.02133  -0.18012   0.01067  -0.09313
  10        2PX        -0.17341  -0.21730  -0.03803  -0.00172   0.03960
  11        2PY        -0.09604   0.01727  -0.23519   0.23986   0.09694
  12        2PZ        -0.00000  -0.00000   0.00000  -0.00000   0.00000
  13 4   O  1S          0.00637  -0.12730  -0.01970   0.25449   0.10745
  14        2PX         0.13442   0.03024   0.14405  -0.03472  -0.11106
  15        2PY        -0.05841   0.08535   0.01142  -0.16421  -0.13405
  16        2PZ         0.00000   0.00000  -0.00000  -0.00001  -0.00000
  17 5   C  1S          0.04749  -0.25152  -0.03406  -0.09254  -0.05997
  18        2PX         0.27602   0.05086   0.02153  -0.01358   0.12032
  19        2PY        -0.08159   0.10538  -0.01428  -0.02705  -0.10526
  20        2PZ         0.00000  -0.00000   0.00000  -0.00000  -0.00000
  21 6   C  1S          0.09289   0.00605  -0.09484  -0.02690   0.06576
  22        2PX        -0.12337   0.24218   0.20404  -0.15036  -0.09818
  23        2PY         0.19638   0.00309   0.23330  -0.21495   0.01991
  24        2PZ        -0.00001   0.00000   0.00000  -0.00000  -0.00000
  25 7   O  1S         -0.00636   0.12730   0.01968   0.25449   0.10745
  26        2PX         0.13443   0.03024   0.14404   0.03473   0.11106
  27        2PY        -0.05840   0.08536   0.01141   0.16421   0.13405
  28        2PZ        -0.00000   0.00000   0.00000  -0.00000   0.00000
  29 8   C  1S         -0.05974   0.02133   0.18012   0.01068  -0.09312
  30        2PX        -0.17342  -0.21730  -0.03803   0.00172  -0.03960
  31        2PY        -0.09604   0.01727  -0.23518  -0.23988  -0.09694
  32        2PZ         0.00000   0.00000  -0.00000  -0.00000   0.00000
  33 9   C  1S          0.00747  -0.19838  -0.09497  -0.01816  -0.06414
  34        2PX        -0.00011  -0.14955  -0.14097  -0.20687  -0.04027
  35        2PY         0.11380   0.08236  -0.16035  -0.00215   0.16787
  36        2PZ         0.00000   0.00000   0.00000   0.00000   0.00000
  37 10  C  1S         -0.00748   0.19838   0.09498  -0.01815  -0.06414
  38        2PX        -0.00011  -0.14955  -0.14099   0.20687   0.04027
  39        2PY         0.11379   0.08236  -0.16035   0.00214  -0.16787
  40        2PZ        -0.00000  -0.00000  -0.00000   0.00000   0.00000
  41 11  C  1S          0.01033   0.12579  -0.07098  -0.04472   0.15188
  42        2PX        -0.16271   0.11481  -0.08839  -0.24466  -0.01562
  43        2PY        -0.15190  -0.04586  -0.07440  -0.04683   0.21936
  44        2PZ         0.00000  -0.00000   0.00000   0.00000   0.00000
  45 12  C  1S         -0.01034  -0.12579   0.07098  -0.04472   0.15188
  46        2PX        -0.16271   0.11481  -0.08840   0.24466   0.01562
  47        2PY        -0.15189  -0.04586  -0.07440   0.04682  -0.21936
  48        2PZ        -0.00000   0.00000  -0.00000   0.00000   0.00000
  49 13  C  1S         -0.13431   0.13963  -0.09878  -0.09540   0.13537
  50        2PX         0.22694  -0.10594  -0.08821   0.13703  -0.13086
  51        2PY        -0.00439  -0.04538  -0.02880  -0.10465  -0.19047
  52        2PZ        -0.00000   0.00000   0.00000  -0.00000   0.00000
  53 14  C  1S         -0.01340  -0.14509   0.08573   0.07484  -0.15702
  54        2PX         0.21547   0.08138  -0.03636   0.16074   0.12299
  55        2PY        -0.05074  -0.13110   0.16630   0.10780   0.03118
  56        2PZ        -0.00000  -0.00000   0.00000  -0.00000  -0.00000
  57 15  C  1S          0.01340   0.14509  -0.08573   0.07484  -0.15702
  58        2PX         0.21547   0.08138  -0.03635  -0.16074  -0.12299
  59        2PY        -0.05073  -0.13110   0.16630  -0.10779  -0.03118
  60        2PZ         0.00000   0.00000  -0.00000  -0.00000  -0.00000
  61 16  C  1S          0.13431  -0.13963   0.09879  -0.09540   0.13537
  62        2PX         0.22694  -0.10594  -0.08821  -0.13704   0.13086
  63        2PY        -0.00440  -0.04538  -0.02880   0.10465   0.19047
  64        2PZ         0.00000  -0.00000  -0.00000  -0.00000   0.00000
  65 17  H  1S         -0.12281   0.05687  -0.11363  -0.09992   0.23250
  66 18  H  1S          0.12280  -0.05687   0.11363  -0.09992   0.23250
  67 19  H  1S         -0.20654   0.15679   0.02372  -0.12292   0.20207
  68 20  H  1S         -0.12612  -0.18294   0.15300   0.01688  -0.12583
  69 21  H  1S          0.20654  -0.15679  -0.02371  -0.12292   0.20207
  70 22  H  1S          0.12611   0.18295  -0.15300   0.01687  -0.12583
  71 23  O  1S          0.11502   0.12026   0.10390   0.07193   0.00038
  72        2PX        -0.01794  -0.12012  -0.14617  -0.13913  -0.05313
  73        2PY        -0.12330  -0.14983   0.23960   0.14870  -0.22486
  74        2PZ        -0.00000   0.00000   0.00000   0.00000  -0.00000
  75 24  H  1S          0.06562   0.04579  -0.16883  -0.09648   0.11432
  76 25  O  1S         -0.11501  -0.12026  -0.10390   0.07193   0.00038
  77        2PX        -0.01794  -0.12012  -0.14617   0.13912   0.05313
  78        2PY        -0.12328  -0.14983   0.23961  -0.14868   0.22486
  79        2PZ         0.00000  -0.00000  -0.00001   0.00000  -0.00000
  80 26  H  1S         -0.06561  -0.04579   0.16884  -0.09647   0.11432
                          21        22        23        24        25
                           O         O         O         O         O
     Eigenvalues --    -0.66669  -0.64271  -0.61539  -0.60021  -0.58249
   1 1   C  1S          0.20765  -0.08183  -0.03014  -0.00000   0.03125
   2        2PX        -0.06519   0.06573  -0.22324   0.00000  -0.04649
   3        2PY         0.00619   0.01250   0.01315   0.00001  -0.31265
   4        2PZ        -0.00000   0.00000  -0.00000   0.29784  -0.00000
   5 2   C  1S         -0.09714   0.10705   0.02538  -0.00000  -0.05153
   6        2PX         0.11778  -0.03465   0.14919   0.00001  -0.11598
   7        2PY        -0.15073   0.12946  -0.02182  -0.00001   0.06304
   8        2PZ        -0.00000   0.00000  -0.00000   0.31138   0.00001
   9 3   C  1S         -0.10862   0.04004   0.05046  -0.00000  -0.05135
  10        2PX        -0.07752   0.07080   0.24019  -0.00001   0.07243
  11        2PY        -0.08194  -0.21493  -0.03187  -0.00000  -0.01084
  12        2PZ        -0.00000   0.00000   0.00000   0.28814   0.00000
  13 4   O  1S         -0.19216   0.09135   0.00643   0.00001  -0.28081
  14        2PX        -0.00207   0.00413  -0.16588  -0.00001   0.13042
  15        2PY         0.23251  -0.12682   0.06791  -0.00002   0.48167
  16        2PZ         0.00000  -0.00000  -0.00000   0.22345   0.00001
  17 5   C  1S          0.20765   0.08183  -0.03014  -0.00001  -0.03125
  18        2PX         0.06519   0.06573   0.22324   0.00000  -0.04649
  19        2PY        -0.00619   0.01250  -0.01315   0.00000  -0.31265
  20        2PZ        -0.00000  -0.00000  -0.00000   0.29784   0.00001
  21 6   C  1S         -0.09714  -0.10705   0.02538  -0.00000   0.05154
  22        2PX        -0.11778  -0.03465  -0.14919  -0.00001  -0.11598
  23        2PY         0.15073   0.12947   0.02182   0.00001   0.06304
  24        2PZ        -0.00000  -0.00000  -0.00001   0.31138   0.00001
  25 7   O  1S         -0.19216  -0.09135   0.00644  -0.00000   0.28080
  26        2PX         0.00207   0.00413   0.16588  -0.00000   0.13042
  27        2PY        -0.23251  -0.12682  -0.06791  -0.00001   0.48167
  28        2PZ        -0.00000  -0.00000  -0.00000   0.22345   0.00002
  29 8   C  1S         -0.10862  -0.04004   0.05046  -0.00000   0.05135
  30        2PX         0.07752   0.07080  -0.24020   0.00001   0.07243
  31        2PY         0.08194  -0.21493   0.03187   0.00000  -0.01084
  32        2PZ        -0.00000  -0.00000   0.00001   0.28814   0.00001
  33 9   C  1S         -0.03909   0.02160  -0.15190  -0.00000   0.03332
  34        2PX        -0.13856   0.01718  -0.02400   0.00000   0.04641
  35        2PY         0.12726   0.20377  -0.22948  -0.00000   0.07064
  36        2PZ         0.00000  -0.00000  -0.00000   0.25046   0.00000
  37 10  C  1S         -0.03909  -0.02160  -0.15190   0.00000  -0.03332
  38        2PX         0.13856   0.01718   0.02401  -0.00000   0.04641
  39        2PY        -0.12726   0.20377   0.22948   0.00000   0.07064
  40        2PZ         0.00000  -0.00000  -0.00000   0.25046   0.00001
  41 11  C  1S          0.04568   0.01848   0.09663   0.00000  -0.02427
  42        2PX        -0.17530  -0.07371   0.01027   0.00000   0.04132
  43        2PY        -0.05631   0.26624  -0.21044  -0.00000   0.06424
  44        2PZ         0.00000   0.00000   0.00000   0.17235   0.00000
  45 12  C  1S          0.04568  -0.01848   0.09663  -0.00000   0.02426
  46        2PX         0.17530  -0.07371  -0.01026  -0.00000   0.04132
  47        2PY         0.05631   0.26624   0.21044  -0.00000   0.06424
  48        2PZ         0.00000  -0.00000  -0.00000   0.17235   0.00000
  49 13  C  1S          0.04408   0.03383   0.02517   0.00000  -0.00681
  50        2PX         0.20423  -0.08636  -0.23151   0.00001   0.02640
  51        2PY        -0.01316  -0.25115   0.09311   0.00000  -0.02689
  52        2PZ        -0.00000  -0.00000   0.00000   0.15157   0.00000
  53 14  C  1S          0.00592  -0.07648  -0.03164   0.00000  -0.01137
  54        2PX         0.25029   0.01003   0.10996   0.00001  -0.07708
  55        2PY        -0.15032   0.22531  -0.09409  -0.00001   0.04142
  56        2PZ        -0.00000   0.00000  -0.00000   0.13299   0.00000
  57 15  C  1S          0.00592   0.07648  -0.03164   0.00000   0.01137
  58        2PX        -0.25029   0.01003  -0.10996  -0.00000  -0.07708
  59        2PY         0.15032   0.22531   0.09409   0.00001   0.04142
  60        2PZ        -0.00001  -0.00000  -0.00000   0.13299   0.00000
  61 16  C  1S          0.04408  -0.03383   0.02517   0.00000   0.00681
  62        2PX        -0.20423  -0.08636   0.23151  -0.00001   0.02640
  63        2PY         0.01316  -0.25116  -0.09311  -0.00000  -0.02689
  64        2PZ        -0.00000   0.00000   0.00000   0.15157   0.00000
  65 17  H  1S         -0.06599   0.19161  -0.12576  -0.00000   0.06020
  66 18  H  1S         -0.06599  -0.19161  -0.12576   0.00000  -0.06020
  67 19  H  1S         -0.12906   0.13369   0.18437  -0.00000  -0.01932
  68 20  H  1S         -0.22066   0.09317  -0.13819  -0.00001   0.06674
  69 21  H  1S         -0.12906  -0.13369   0.18437  -0.00000   0.01932
  70 22  H  1S         -0.22066  -0.09317  -0.13819  -0.00000  -0.06674
  71 23  O  1S          0.05865   0.02288  -0.01147  -0.00000   0.03703
  72        2PX        -0.07804  -0.09099   0.02184   0.00001  -0.03722
  73        2PY        -0.09714  -0.23291   0.20502   0.00000  -0.08954
  74        2PZ         0.00000  -0.00000   0.00000   0.21974   0.00001
  75 24  H  1S          0.01943   0.09216  -0.07647   0.00000   0.00221
  76 25  O  1S          0.05865  -0.02288  -0.01147  -0.00000  -0.03702
  77        2PX         0.07804  -0.09100  -0.02184  -0.00001  -0.03722
  78        2PY         0.09714  -0.23291  -0.20502   0.00000  -0.08954
  79        2PZ        -0.00000   0.00000   0.00000   0.21974   0.00001
  80 26  H  1S          0.01943  -0.09216  -0.07647  -0.00000  -0.00221
                          26        27        28        29        30
                           O         O         O         O         O
     Eigenvalues --    -0.57559  -0.57156  -0.55523  -0.53041  -0.52399
   1 1   C  1S         -0.01260   0.00201   0.00000  -0.05237  -0.03302
   2        2PX         0.07902  -0.26494   0.00001  -0.09440  -0.08944
   3        2PY         0.20180   0.05895  -0.00000  -0.06062   0.02647
   4        2PZ        -0.00000  -0.00000  -0.07159   0.00001  -0.00001
   5 2   C  1S         -0.07019   0.00278  -0.00000  -0.00476   0.09987
   6        2PX         0.03476   0.19932  -0.00001   0.05366   0.01535
   7        2PY        -0.11518  -0.09991   0.00001   0.02758  -0.02708
   8        2PZ        -0.00001  -0.00002  -0.23055   0.00000  -0.00000
   9 3   C  1S         -0.03283   0.00088   0.00000  -0.01857  -0.07256
  10        2PX        -0.11608   0.23858  -0.00001   0.13080   0.06069
  11        2PY        -0.08665  -0.02142   0.00000  -0.09215   0.03484
  12        2PZ        -0.00001   0.00001   0.13459   0.00001  -0.00001
  13 4   O  1S          0.15711  -0.00325  -0.00000  -0.06816   0.03685
  14        2PX        -0.08348  -0.16961   0.00001  -0.05214   0.10850
  15        2PY        -0.30651   0.05755  -0.00000   0.10200  -0.06167
  16        2PZ        -0.00000  -0.00000  -0.06942   0.00002  -0.00001
  17 5   C  1S         -0.01260  -0.00201  -0.00000   0.05237  -0.03302
  18        2PX        -0.07903  -0.26494   0.00001  -0.09441   0.08944
  19        2PY        -0.20180   0.05895  -0.00000  -0.06062  -0.02647
  20        2PZ        -0.00000   0.00000   0.07159  -0.00001  -0.00001
  21 6   C  1S         -0.07019  -0.00278   0.00000   0.00476   0.09987
  22        2PX        -0.03476   0.19932  -0.00001   0.05366  -0.01535
  23        2PY         0.11518  -0.09991   0.00001   0.02758   0.02708
  24        2PZ        -0.00001   0.00002   0.23055  -0.00000  -0.00000
  25 7   O  1S          0.15711   0.00325   0.00000   0.06816   0.03685
  26        2PX         0.08348  -0.16961   0.00001  -0.05214  -0.10850
  27        2PY         0.30652   0.05754  -0.00000   0.10200   0.06167
  28        2PZ         0.00000   0.00000   0.06942  -0.00001  -0.00000
  29 8   C  1S         -0.03283  -0.00088  -0.00000   0.01857  -0.07256
  30        2PX         0.11608   0.23858  -0.00001   0.13080  -0.06068
  31        2PY         0.08665  -0.02142   0.00000  -0.09215  -0.03485
  32        2PZ        -0.00001  -0.00001  -0.13459  -0.00001  -0.00000
  33 9   C  1S          0.05143  -0.02290   0.00000  -0.03563  -0.06572
  34        2PX        -0.03148  -0.19913   0.00000  -0.02355   0.07248
  35        2PY        -0.10556   0.15465  -0.00001  -0.09130  -0.02816
  36        2PZ        -0.00001  -0.00001  -0.34844   0.00000   0.00000
  37 10  C  1S          0.05143   0.02290  -0.00000   0.03563  -0.06572
  38        2PX         0.03147  -0.19913   0.00000  -0.02355  -0.07248
  39        2PY         0.10556   0.15465  -0.00001  -0.09130   0.02816
  40        2PZ        -0.00001   0.00001   0.34844  -0.00001   0.00001
  41 11  C  1S          0.03120  -0.07261   0.00000   0.01605   0.01756
  42        2PX         0.01286  -0.16047   0.00000  -0.29571   0.13302
  43        2PY         0.05123   0.04256  -0.00000  -0.04976   0.14286
  44        2PZ        -0.00001  -0.00000  -0.13035   0.00000  -0.00000
  45 12  C  1S          0.03120   0.07261  -0.00000  -0.01605   0.01756
  46        2PX        -0.01287  -0.16047   0.00000  -0.29571  -0.13302
  47        2PY        -0.05123   0.04256  -0.00000  -0.04976  -0.14286
  48        2PZ        -0.00000   0.00000   0.13035  -0.00000  -0.00001
  49 13  C  1S          0.04625   0.01465  -0.00000   0.04860  -0.00793
  50        2PX         0.11752   0.26853  -0.00002  -0.16556   0.07373
  51        2PY         0.17095  -0.05998   0.00000  -0.07185   0.23195
  52        2PZ        -0.00001  -0.00001  -0.22176   0.00000   0.00000
  53 14  C  1S          0.01268   0.07278  -0.00000   0.00184  -0.00104
  54        2PX         0.03219   0.10199  -0.00000   0.30854  -0.12051
  55        2PY        -0.23188  -0.03109   0.00000   0.02563  -0.22664
  56        2PZ        -0.00001  -0.00001  -0.16227  -0.00000   0.00000
  57 15  C  1S          0.01268  -0.07278   0.00000  -0.00184  -0.00104
  58        2PX        -0.03219   0.10199  -0.00000   0.30853   0.12051
  59        2PY         0.23188  -0.03109   0.00000   0.02563   0.22664
  60        2PZ        -0.00001   0.00001   0.16227   0.00000   0.00000
  61 16  C  1S          0.04625  -0.01465   0.00000  -0.04860  -0.00793
  62        2PX        -0.11752   0.26853  -0.00002  -0.16556  -0.07374
  63        2PY        -0.17095  -0.05997   0.00000  -0.07185  -0.23195
  64        2PZ        -0.00001   0.00002   0.22176  -0.00001   0.00000
  65 17  H  1S          0.06555  -0.03465  -0.00000  -0.11291   0.17677
  66 18  H  1S          0.06555   0.03465  -0.00000   0.11290   0.17677
  67 19  H  1S         -0.12044  -0.20512   0.00001   0.18330  -0.11545
  68 20  H  1S         -0.16638  -0.04514  -0.00000  -0.17729  -0.07904
  69 21  H  1S         -0.12044   0.20512  -0.00001  -0.18329  -0.11546
  70 22  H  1S         -0.16638   0.04514   0.00000   0.17729  -0.07903
  71 23  O  1S         -0.14186   0.07440  -0.00001  -0.14387   0.20161
  72        2PX         0.29301  -0.20778   0.00001   0.30984  -0.38461
  73        2PY         0.10372  -0.05496   0.00001   0.01701   0.07090
  74        2PZ        -0.00001  -0.00001  -0.45264  -0.00000   0.00002
  75 24  H  1S          0.06247  -0.02419   0.00000   0.10679  -0.18378
  76 25  O  1S         -0.14186  -0.07439   0.00001   0.14386   0.20162
  77        2PX        -0.29302  -0.20778   0.00001   0.30983   0.38462
  78        2PY        -0.10372  -0.05496   0.00001   0.01701  -0.07090
  79        2PZ        -0.00001   0.00001   0.45264  -0.00000   0.00003
  80 26  H  1S          0.06247   0.02418  -0.00000  -0.10679  -0.18379
                          31        32        33        34        35
                           O         O         O         O         O
     Eigenvalues --    -0.51337  -0.50447  -0.50272  -0.48617  -0.48254
   1 1   C  1S          0.00000  -0.04797  -0.00000   0.08521   0.04234
   2        2PX         0.00001   0.02416  -0.00000   0.05860  -0.06498
   3        2PY         0.00000  -0.03973  -0.00001   0.03221   0.19832
   4        2PZ        -0.22635   0.00000   0.38547   0.00000  -0.00000
   5 2   C  1S         -0.00000   0.06638  -0.00000  -0.06246  -0.03532
   6        2PX        -0.00000   0.02885  -0.00000   0.17216   0.03063
   7        2PY         0.00000   0.13679  -0.00000   0.11749  -0.24475
   8        2PZ        -0.06244  -0.00000   0.03961  -0.00000  -0.00000
   9 3   C  1S          0.00000   0.02936  -0.00000  -0.05728   0.01562
  10        2PX         0.00000   0.08965  -0.00001  -0.09329   0.06487
  11        2PY        -0.00000  -0.22261   0.00001  -0.08118  -0.27477
  12        2PZ        -0.14800   0.00001   0.22445  -0.00000  -0.00000
  13 4   O  1S         -0.00000   0.02297   0.00000  -0.02381   0.08276
  14        2PX         0.00000   0.06667   0.00000  -0.05961  -0.22264
  15        2PY         0.00000  -0.01114  -0.00000   0.01526  -0.18034
  16        2PZ        -0.25352   0.00000   0.48478   0.00001  -0.00001
  17 5   C  1S          0.00001   0.04797   0.00001  -0.08520   0.04235
  18        2PX        -0.00001   0.02416   0.00000   0.05861   0.06497
  19        2PY         0.00000  -0.03973  -0.00000   0.03220  -0.19833
  20        2PZ        -0.22635   0.00000  -0.38547  -0.00001  -0.00000
  21 6   C  1S         -0.00001  -0.06638   0.00000   0.06246  -0.03533
  22        2PX         0.00000   0.02885  -0.00000   0.17216  -0.03064
  23        2PY        -0.00000   0.13680  -0.00000   0.11751   0.24474
  24        2PZ        -0.06245   0.00000  -0.03961  -0.00000  -0.00001
  25 7   O  1S         -0.00000  -0.02297   0.00000   0.02381   0.08275
  26        2PX         0.00000   0.06667   0.00001  -0.05959   0.22265
  27        2PY         0.00000  -0.01114   0.00001   0.01527   0.18034
  28        2PZ        -0.25352   0.00000  -0.48478  -0.00001   0.00000
[...]
   2        2PX         0.98277
   3        2PY         0.92452
   4        2PZ         0.68739
   5 2   C  1S          1.05177
   6        2PX         0.93131
   7        2PY         0.94568
   8        2PZ         1.08430
   9 3   C  1S          1.06073
  10        2PX         0.94339
  11        2PY         0.97794
  12        2PZ         1.00387
  13 4   O  1S          1.82009
  14        2PX         1.91791
  15        2PY         1.30753
  16        2PZ         1.47326
  17 5   C  1S          1.08158
  18        2PX         0.98277
  19        2PY         0.92452
  20        2PZ         0.68739
  21 6   C  1S          1.05177
  22        2PX         0.93131
  23        2PY         0.94568
  24        2PZ         1.08430
  25 7   O  1S          1.82009
  26        2PX         1.91791
  27        2PY         1.30752
  28        2PZ         1.47326
  29 8   C  1S          1.06073
  30        2PX         0.94339
  31        2PY         0.97794
  32        2PZ         1.00386
  33 9   C  1S          1.06228
  34        2PX         0.97241
  35        2PY         0.87238
  36        2PZ         0.90575
  37 10  C  1S          1.06228
  38        2PX         0.97241
  39        2PY         0.87238
  40        2PZ         0.90575
  41 11  C  1S          1.09694
  42        2PX         0.97845
  43        2PY         0.96528
  44        2PZ         0.96946
  45 12  C  1S          1.09694
  46        2PX         0.97845
  47        2PY         0.96528
  48        2PZ         0.96946
  49 13  C  1S          1.09242
  50        2PX         0.95341
  51        2PY         0.97341
  52        2PZ         1.00478
  53 14  C  1S          1.09466
  54        2PX         0.98156
  55        2PY         0.97798
  56        2PZ         0.95170
  57 15  C  1S          1.09466
  58        2PX         0.98156
  59        2PY         0.97798
  60        2PZ         0.95170
  61 16  C  1S          1.09242
  62        2PX         0.95341
  63        2PY         0.97341
  64        2PZ         1.00478
  65 17  H  1S          0.94311
  66 18  H  1S          0.94311
  67 19  H  1S          0.95086
  68 20  H  1S          0.95767
  69 21  H  1S          0.95086
  70 22  H  1S          0.95767
  71 23  O  1S          1.69465
  72        2PX         1.53729
  73        2PY         1.19231
  74        2PZ         1.91949
  75 24  H  1S          0.75772
  76 25  O  1S          1.69465
  77        2PX         1.53729
  78        2PY         1.19231
  79        2PZ         1.91949
  80 26  H  1S          0.75772
          Condensed to atoms (all electrons):
               1          2          3          4          5          6
     1  C    3.676256   0.000000   0.000000   0.000000   0.000000   0.000000
     2  C    0.000000   4.013059   0.000000   0.000000   0.000000   0.000000
     3  C    0.000000   0.000000   3.985926   0.000000   0.000000   0.000000
     4  O    0.000000   0.000000   0.000000   6.518785   0.000000   0.000000
     5  C    0.000000   0.000000   0.000000   0.000000   3.676256   0.000000
     6  C    0.000000   0.000000   0.000000   0.000000   0.000000   4.013059
     7  O    0.000000   0.000000   0.000000   0.000000   0.000000   0.000000
     8  C    0.000000   0.000000   0.000000   0.000000   0.000000   0.000000
     9  C    0.000000   0.000000   0.000000   0.000000   0.000000   0.000000
    10  C    0.000000   0.000000   0.000000   0.000000   0.000000   0.000000
    11  C    0.000000   0.000000   0.000000   0.000000   0.000000   0.000000
    12  C    0.000000   0.000000   0.000000   0.000000   0.000000   0.000000
    13  C    0.000000   0.000000   0.000000   0.000000   0.000000   0.000000
    14  C    0.000000   0.000000   0.000000   0.000000   0.000000   0.000000
    15  C    0.000000   0.000000   0.000000   0.000000   0.000000   0.000000
    16  C    0.000000   0.000000   0.000000   0.000000   0.000000   0.000000
    17  H    0.000000   0.000000   0.000000   0.000000   0.000000   0.000000
    18  H    0.000000   0.000000   0.000000   0.000000   0.000000   0.000000
    19  H    0.000000   0.000000   0.000000   0.000000   0.000000   0.000000
    20  H    0.000000   0.000000   0.000000   0.000000   0.000000   0.000000
    21  H    0.000000   0.000000   0.000000   0.000000   0.000000   0.000000
    22  H    0.000000   0.000000   0.000000   0.000000   0.000000   0.000000
    23  O    0.000000   0.000000   0.000000   0.000000   0.000000   0.000000
    24  H    0.000000   0.000000   0.000000   0.000000   0.000000   0.000000
    25  O    0.000000   0.000000   0.000000   0.000000   0.000000   0.000000
    26  H    0.000000   0.000000   0.000000   0.000000   0.000000   0.000000
               7          8          9         10         11         12
     1  C    0.000000   0.000000   0.000000   0.000000   0.000000   0.000000
     2  C    0.000000   0.000000   0.000000   0.000000   0.000000   0.000000
     3  C    0.000000   0.000000   0.000000   0.000000   0.000000   0.000000
     4  O    0.000000   0.000000   0.000000   0.000000   0.000000   0.000000
     5  C    0.000000   0.000000   0.000000   0.000000   0.000000   0.000000
     6  C    0.000000   0.000000   0.000000   0.000000   0.000000   0.000000
     7  O    6.518786   0.000000   0.000000   0.000000   0.000000   0.000000
     8  C    0.000000   3.985926   0.000000   0.000000   0.000000   0.000000
     9  C    0.000000   0.000000   3.812825   0.000000   0.000000   0.000000
    10  C    0.000000   0.000000   0.000000   3.812825   0.000000   0.000000
    11  C    0.000000   0.000000   0.000000   0.000000   4.010126   0.000000
    12  C    0.000000   0.000000   0.000000   0.000000   0.000000   4.010126
    13  C    0.000000   0.000000   0.000000   0.000000   0.000000   0.000000
    14  C    0.000000   0.000000   0.000000   0.000000   0.000000   0.000000
    15  C    0.000000   0.000000   0.000000   0.000000   0.000000   0.000000
    16  C    0.000000   0.000000   0.000000   0.000000   0.000000   0.000000
    17  H    0.000000   0.000000   0.000000   0.000000   0.000000   0.000000
    18  H    0.000000   0.000000   0.000000   0.000000   0.000000   0.000000
    19  H    0.000000   0.000000   0.000000   0.000000   0.000000   0.000000
    20  H    0.000000   0.000000   0.000000   0.000000   0.000000   0.000000
    21  H    0.000000   0.000000   0.000000   0.000000   0.000000   0.000000
    22  H    0.000000   0.000000   0.000000   0.000000   0.000000   0.000000
    23  O    0.000000   0.000000   0.000000   0.000000   0.000000   0.000000
    24  H    0.000000   0.000000   0.000000   0.000000   0.000000   0.000000
    25  O    0.000000   0.000000   0.000000   0.000000   0.000000   0.000000
    26  H    0.000000   0.000000   0.000000   0.000000   0.000000   0.000000
              13         14         15         16         17         18
     1  C    0.000000   0.000000   0.000000   0.000000   0.000000   0.000000
     2  C    0.000000   0.000000   0.000000   0.000000   0.000000   0.000000
     3  C    0.000000   0.000000   0.000000   0.000000   0.000000   0.000000
     4  O    0.000000   0.000000   0.000000   0.000000   0.000000   0.000000
     5  C    0.000000   0.000000   0.000000   0.000000   0.000000   0.000000
     6  C    0.000000   0.000000   0.000000   0.000000   0.000000   0.000000
     7  O    0.000000   0.000000   0.000000   0.000000   0.000000   0.000000
     8  C    0.000000   0.000000   0.000000   0.000000   0.000000   0.000000
     9  C    0.000000   0.000000   0.000000   0.000000   0.000000   0.000000
    10  C    0.000000   0.000000   0.000000   0.000000   0.000000   0.000000
    11  C    0.000000   0.000000   0.000000   0.000000   0.000000   0.000000
    12  C    0.000000   0.000000   0.000000   0.000000   0.000000   0.000000
    13  C    4.024029   0.000000   0.000000   0.000000   0.000000   0.000000
    14  C    0.000000   4.005902   0.000000   0.000000   0.000000   0.000000
    15  C    0.000000   0.000000   4.005902   0.000000   0.000000   0.000000
    16  C    0.000000   0.000000   0.000000   4.024028   0.000000   0.000000
    17  H    0.000000   0.000000   0.000000   0.000000   0.943112   0.000000
    18  H    0.000000   0.000000   0.000000   0.000000   0.000000   0.943112
    19  H    0.000000   0.000000   0.000000   0.000000   0.000000   0.000000
    20  H    0.000000   0.000000   0.000000   0.000000   0.000000   0.000000
    21  H    0.000000   0.000000   0.000000   0.000000   0.000000   0.000000
    22  H    0.000000   0.000000   0.000000   0.000000   0.000000   0.000000
    23  O    0.000000   0.000000   0.000000   0.000000   0.000000   0.000000
    24  H    0.000000   0.000000   0.000000   0.000000   0.000000   0.000000
    25  O    0.000000   0.000000   0.000000   0.000000   0.000000   0.000000
    26  H    0.000000   0.000000   0.000000   0.000000   0.000000   0.000000
              19         20         21         22         23         24
     1  C    0.000000   0.000000   0.000000   0.000000   0.000000   0.000000
     2  C    0.000000   0.000000   0.000000   0.000000   0.000000   0.000000
     3  C    0.000000   0.000000   0.000000   0.000000   0.000000   0.000000
     4  O    0.000000   0.000000   0.000000   0.000000   0.000000   0.000000
     5  C    0.000000   0.000000   0.000000   0.000000   0.000000   0.000000
     6  C    0.000000   0.000000   0.000000   0.000000   0.000000   0.000000
     7  O    0.000000   0.000000   0.000000   0.000000   0.000000   0.000000
     8  C    0.000000   0.000000   0.000000   0.000000   0.000000   0.000000
     9  C    0.000000   0.000000   0.000000   0.000000   0.000000   0.000000
    10  C    0.000000   0.000000   0.000000   0.000000   0.000000   0.000000
    11  C    0.000000   0.000000   0.000000   0.000000   0.000000   0.000000
    12  C    0.000000   0.000000   0.000000   0.000000   0.000000   0.000000
    13  C    0.000000   0.000000   0.000000   0.000000   0.000000   0.000000
    14  C    0.000000   0.000000   0.000000   0.000000   0.000000   0.000000
    15  C    0.000000   0.000000   0.000000   0.000000   0.000000   0.000000
    16  C    0.000000   0.000000   0.000000   0.000000   0.000000   0.000000
    17  H    0.000000   0.000000   0.000000   0.000000   0.000000   0.000000
    18  H    0.000000   0.000000   0.000000   0.000000   0.000000   0.000000
    19  H    0.950855   0.000000   0.000000   0.000000   0.000000   0.000000
    20  H    0.000000   0.957675   0.000000   0.000000   0.000000   0.000000
    21  H    0.000000   0.000000   0.950855   0.000000   0.000000   0.000000
    22  H    0.000000   0.000000   0.000000   0.957675   0.000000   0.000000
    23  O    0.000000   0.000000   0.000000   0.000000   6.343733   0.000000
    24  H    0.000000   0.000000   0.000000   0.000000   0.000000   0.757716
    25  O    0.000000   0.000000   0.000000   0.000000   0.000000   0.000000
    26  H    0.000000   0.000000   0.000000   0.000000   0.000000   0.000000
              25         26
     1  C    0.000000   0.000000
     2  C    0.000000   0.000000
     3  C    0.000000   0.000000
     4  O    0.000000   0.000000
     5  C    0.000000   0.000000
     6  C    0.000000   0.000000
     7  O    0.000000   0.000000
     8  C    0.000000   0.000000
     9  C    0.000000   0.000000
    10  C    0.000000   0.000000
    11  C    0.000000   0.000000
    12  C    0.000000   0.000000
    13  C    0.000000   0.000000
    14  C    0.000000   0.000000
    15  C    0.000000   0.000000
    16  C    0.000000   0.000000
    17  H    0.000000   0.000000
    18  H    0.000000   0.000000
    19  H    0.000000   0.000000
    20  H    0.000000   0.000000
    21  H    0.000000   0.000000
    22  H    0.000000   0.000000
    23  O    0.000000   0.000000
    24  H    0.000000   0.000000
    25  O    6.343733   0.000000
    26  H    0.000000   0.757716
 Mulliken charges:
               1
     1  C    0.323744
     2  C   -0.013059
     3  C    0.014074
     4  O   -0.518785
     5  C    0.323744
     6  C   -0.013059
     7  O   -0.518786
     8  C    0.014074
     9  C    0.187175
    10  C    0.187175
    11  C   -0.010126
    12  C   -0.010126
    13  C   -0.024029
    14  C   -0.005902
    15  C   -0.005902
    16  C   -0.024028
    17  H    0.056888
    18  H    0.056888
    19  H    0.049145
    20  H    0.042325
    21  H    0.049145
    22  H    0.042325
    23  O   -0.343733
    24  H    0.242284
    25  O   -0.343733
    26  H    0.242284
 Sum of Mulliken charges =  -0.00000
 Mulliken charges with hydrogens summed into heavy atoms:
               1
     1  C    0.323744
     2  C   -0.013059
     3  C    0.014074
     4  O   -0.518785
     5  C    0.323744
     6  C   -0.013059
     7  O   -0.518786
     8  C    0.014074
     9  C    0.187175
    10  C    0.187175
    11  C    0.046761
    12  C    0.046761
    13  C    0.025116
    14  C    0.036423
    15  C    0.036423
    16  C    0.025116
    23  O   -0.101449
    25  O   -0.101448
 Charge=             -0.0000 electrons
 Dipole moment (field-independent basis, Debye):
    X=              0.0000    Y=              0.0000    Z=              0.0000  Tot=              0.0000
 N-N= 4.728338197593D+02 E-N= 0.000000000000D+00  KE=-1.140097346894D+03
 Orbital energies and kinetic energies (alpha):
                                 1                 2
   1         O                -1.750882        -14.233944
   2         O                -1.698612        -13.828555
   3         O                -1.614690        -14.004644
   4         O                -1.585421        -13.733053
   5         O                -1.534916        -13.814032
   6         O                -1.490350        -13.673450
   7         O                -1.361965        -13.858089
   8         O                -1.225037        -13.196505
   9         O                -1.165830        -13.263655
  10         O                -1.148747        -13.155986
  11         O                -1.049780        -13.046839
  12         O                -1.026961        -12.894692
  13         O                -1.003882        -13.392419
  14         O                -0.895096        -12.702171
  15         O                -0.872522        -12.788541
  16         O                -0.868079        -12.877132
  17         O                -0.756185        -12.867228
  18         O                -0.729365        -12.987577
  19         O                -0.727547        -12.984847
  20         O                -0.683750        -12.318593
  21         O                -0.666686        -12.582625
  22         O                -0.642714        -12.512395
  23         O                -0.615389        -12.630965
  24         O                -0.600210        -13.316171
  25         O                -0.582487        -13.332077
  26         O                -0.575592        -12.598573
  27         O                -0.571563        -12.782531
  28         O                -0.555235        -12.703278
  29         O                -0.530408        -12.082806
  30         O                -0.523989        -12.171670
  31         O                -0.513370        -12.746645
  32         O                -0.504469        -12.060109
  33         O                -0.502718        -13.287034
  34         O                -0.486169        -12.362223
  35         O                -0.482535        -12.813255
  36         O                -0.464772        -12.518589
  37         O                -0.464648        -12.584104
  38         O                -0.448146        -12.474871
  39         O                -0.374360        -13.117800
  40         O                -0.365632        -13.062971
  41         O                -0.361816        -12.762531
  42         O                -0.353544        -12.680961
  43         O                -0.335339        -12.672017
  44         O                -0.328479        -12.570518
  45         V                -0.068261        -12.901014
  46         V                -0.018493        -12.586535
  47         V                -0.000349        -12.528686
  48         V                 0.007902        -12.435400
  49         V                 0.045388        -13.087121
  50         V                 0.047786        -12.217290
  51         V                 0.054375        -12.897314
  52         V                 0.079962        -12.521445
  53         V                 0.087359        -12.265565
  54         V                 0.092055        -12.680243
  55         V                 0.105174        -12.831569
  56         V                 0.106076        -11.584177
  57         V                 0.113993        -11.893522
  58         V                 0.122093        -12.053158
  59         V                 0.129168        -12.304112
  60         V                 0.177932        -11.165209
  61         V                 0.180661        -10.782312
  62         V                 0.184033        -11.559060
  63         V                 0.205216        -11.811908
  64         V                 0.230199        -12.546947
  65         V                 0.245822        -12.037416
  66         V                 0.252568        -11.509482
  67         V                 0.274607        -12.149727
  68         V                 0.291019        -11.249693
  69         V                 0.300700        -11.082153
  70         V                 0.338637        -11.722627
  71         V                 0.349437        -11.753570
  72         V                 0.365435        -11.880752
  73         V                 0.396210        -12.670768
  74         V                 0.415087        -12.330460
  75         V                 0.433243        -12.253685
  76         V                 0.434072        -11.539610
  77         V                 0.450032        -12.318581
  78         V                 0.457354        -12.190063
  79         V                 0.483087        -12.374803
  80         V                 0.495696        -12.677675
 Total kinetic energy from orbitals=-1.140097346894D+03
 1\1\GINC-GTX1080DELTA\SP\RZINDO\STO-3G\C14H8O4\MVEROT\12-Apr-2022\0\\#
 n ZINDO(NSTATE=10) pop=full gfinput\\UV-spectra\\0,1\C,0,-0.0140770913
 ,1.4721946105,0.0002853726\C,0,1.2615984374,0.7456040493,0.0001692931\
 C,0,-1.2708505432,0.6885433159,0.000108279\O,0,-0.0610328099,2.7162469
 126,0.0005455296\C,0,0.011286029,-1.4503310296,-0.0003624542\C,0,-1.26
 43901597,-0.7237404362,-0.0002014704\O,0,0.0582435583,-2.6943832161,-0
 .0006236773\C,0,1.2680593724,-0.6666792346,-0.0001414637\C,0,2.5011735
 851,1.4158187808,0.0003602049\C,0,-2.5039665676,-1.3939541201,-0.00035
 02344\C,0,2.4677393566,-1.3732489888,-0.0002543324\C,0,-2.4705298722,1
 .3951137067,0.0002607901\C,0,3.7184657651,0.6880990021,0.0002435956\C,
 0,3.6920689774,-0.6921014963,-0.0000607245\C,0,-3.6948601707,0.7139674
 12,0.0001102511\C,0,-3.7212580708,-0.6662329394,-0.0001919568\H,0,2.44
 70037956,-2.4759828421,-0.0004997205\H,0,-2.4497935992,2.4978475929,0.
 0005022355\H,0,4.6652135062,1.2493334285,0.0004013598\H,0,4.6333940081
 ,-1.2638662488,-0.0001535508\H,0,-4.6680061765,-1.2274666977,-0.000315
 9606\H,0,-4.6361845759,1.2857330809,0.0002345531\O,0,2.6805052309,2.76
 83020257,0.0006660004\H,0,1.8280712465,3.233657943,0.0007304677\O,0,-2
 .6833023695,-2.7464370126,-0.0006470616\H,0,-1.8308708621,-3.211797598
 6,-0.0007553253\\Version=AM64L-G09RevD.01\State=1-A\HF=-132.2547418\RM
 SD=3.771e-09\PG=C01 [X(C14H8O4)]\\@


 WE'RE IN THE POSITION OF A VISITOR FROM ANOTHER
 DIMENSION WHO COMES TO EARTH AND SEES A CHESS MATCH.
 ASSUMING HE KNOWS IT'S A GAME, HE'S GOT TWO PROBLEMS:
 FIRST, FIGURE OUT THE RULES, AND SECOND, FIGURE OUT HOW TO WIN.
 NINETY PERCENT OF SCIENCE (INCLUDING VIRTUALLY ALL OF CHEMISRY)
 IS IN THAT SECOND CATEGORY.  THEY'RE TRYING TO APPLY
 THE LAWS THAT ARE ALREADY KNOWN.

                     -- SHELDON GLASHOW, 1979
 Job cpu time:       0 days  0 hours  0 minutes  1.1 seconds.
 File lengths (MBytes):  RWF=    127 Int=      0 D2E=      0 Chk=      5 Scr=      2
 Normal termination of Gaussian 09 at Tue Apr 12 00:35:52 2022.
