 Entering Gaussian System, Link 0=g09
 Input=/scratch/mverot/1-3-propanediol-open-opt/1-3-propanediol-open-opt.com
 Output=/scratch/mverot/1-3-propanediol-open-opt/1-3-propanediol-open-opt.log
 Initial command:
 /opt/g09/l1.exe "/scratch/mverot/1-3-propanediol-open-opt/Gau-1477541.inp" -scrdir="/scratch/mverot/1-3-propanediol-open-opt/"
 Entering Link 1 = /opt/g09/l1.exe PID=   1477543.
  
 Copyright (c) 1988,1990,1992,1993,1995,1998,2003,2009,2013,
            Gaussian, Inc.  All Rights Reserved.
  
 This is part of the Gaussian(R) 09 program.  It is based on
 the Gaussian(R) 03 system (copyright 2003, Gaussian, Inc.),
 the Gaussian(R) 98 system (copyright 1998, Gaussian, Inc.),
 the Gaussian(R) 94 system (copyright 1995, Gaussian, Inc.),
 the Gaussian 92(TM) system (copyright 1992, Gaussian, Inc.),
 the Gaussian 90(TM) system (copyright 1990, Gaussian, Inc.),
 the Gaussian 88(TM) system (copyright 1988, Gaussian, Inc.),
 the Gaussian 86(TM) system (copyright 1986, Carnegie Mellon
 University), and the Gaussian 82(TM) system (copyright 1983,
 Carnegie Mellon University). Gaussian is a federally registered
 trademark of Gaussian, Inc.
  
 This software contains proprietary and confidential information,
 including trade secrets, belonging to Gaussian, Inc.
  
 This software is provided under written license and may be
 used, copied, transmitted, or stored only in accord with that
 written license.
  
 The following legend is applicable only to US Government
 contracts under FAR:
  
                    RESTRICTED RIGHTS LEGEND
  
 Use, reproduction and disclosure by the US Government is
 subject to restrictions as set forth in subparagraphs (a)
 and (c) of the Commercial Computer Software - Restricted
 Rights clause in FAR 52.227-19.
  
 Gaussian, Inc.
 340 Quinnipiac St., Bldg. 40, Wallingford CT 06492
  
  
 ---------------------------------------------------------------
 Warning -- This program may not be used in any manner that
 competes with the business of Gaussian, Inc. or will provide
 assistance to any competitor of Gaussian, Inc.  The licensee
 of this program is prohibited from giving any competitor of
 Gaussian, Inc. access to this program.  By using this program,
 the user acknowledges that Gaussian, Inc. is engaged in the
 business of creating and licensing software in the field of
 computational chemistry and represents and warrants to the
 licensee that it is not a competitor of Gaussian, Inc. and that
 it will not use this program in any manner prohibited above.
 ---------------------------------------------------------------
  

 Cite this work as:
 Gaussian 09, Revision D.01,
 M. J. Frisch, G. W. Trucks, H. B. Schlegel, G. E. Scuseria, 
 M. A. Robb, J. R. Cheeseman, G. Scalmani, V. Barone, B. Mennucci, 
 G. A. Petersson, H. Nakatsuji, M. Caricato, X. Li, H. P. Hratchian, 
 A. F. Izmaylov, J. Bloino, G. Zheng, J. L. Sonnenberg, M. Hada, 
 M. Ehara, K. Toyota, R. Fukuda, J. Hasegawa, M. Ishida, T. Nakajima, 
 Y. Honda, O. Kitao, H. Nakai, T. Vreven, J. A. Montgomery, Jr., 
 J. E. Peralta, F. Ogliaro, M. Bearpark, J. J. Heyd, E. Brothers, 
 K. N. Kudin, V. N. Staroverov, T. Keith, R. Kobayashi, J. Normand, 
 K. Raghavachari, A. Rendell, J. C. Burant, S. S. Iyengar, J. Tomasi, 
 M. Cossi, N. Rega, J. M. Millam, M. Klene, J. E. Knox, J. B. Cross, 
 V. Bakken, C. Adamo, J. Jaramillo, R. Gomperts, R. E. Stratmann, 
 O. Yazyev, A. J. Austin, R. Cammi, C. Pomelli, J. W. Ochterski, 
 R. L. Martin, K. Morokuma, V. G. Zakrzewski, G. A. Voth, 
 P. Salvador, J. J. Dannenberg, S. Dapprich, A. D. Daniels, 
 O. Farkas, J. B. Foresman, J. V. Ortiz, J. Cioslowski, 
 and D. J. Fox, Gaussian, Inc., Wallingford CT, 2013.
 
 ******************************************
 Gaussian 09:  AM64L-G09RevD.01 24-Apr-2013
                17-Apr-2022 
 ******************************************
 %chk=1-3-propanediol-open-opt
 ---------------
 # hf/6-31G* opt
 ---------------
 1/18=20,19=15,38=1/1,3;
 2/9=110,12=2,17=6,18=5,40=1/2;
 3/5=1,6=6,7=1,11=9,16=1,25=1,30=1,71=1/1,2,3;
 4//1;
 5/5=2,38=5/2;
 6/7=2,8=2,9=2,10=2,28=1/1;
 7//1,2,3,16;
 1/18=20,19=15/3(2);
 2/9=110/2;
 99//99;
 2/9=110/2;
 3/5=1,6=6,7=1,11=9,16=1,25=1,30=1,71=1/1,2,3;
 4/5=5,16=3,69=1/1;
 5/5=2,38=5/2;
 7//1,2,3,16;
 1/18=20,19=15/3(-5);
 2/9=110/2;
 6/7=2,8=2,9=2,10=2,19=2,28=1/1;
 99/9=1/99;
 -------------------------
 Optimisation de geometrie
 -------------------------
 Symbolic Z-matrix:
 Charge =  0 Multiplicity = 1
 C                     1.35234   2.2671    1.22173 
 O                     0.00813   2.03948   0.8116 
 C                     2.07311   0.92948   1.30359 
 C                     3.47119   1.06237   1.88454 
 O                     4.25953   1.9209    1.07292 
 H                     1.3328    2.76292   2.19737 
 H                     1.82988   2.93046   0.49372 
 H                    -0.4074    2.91344   0.714 
 H                     2.12648   0.50186   0.29456 
 H                     1.48589   0.22668   1.90634 
 H                     3.95461   0.08103   1.92404 
 H                     3.43572   1.47544   2.89774 
 H                     5.165     1.89747   1.42856 
 

 GradGradGradGradGradGradGradGradGradGradGradGradGradGradGradGradGradGrad
 Berny optimization.
 Initialization pass.
                           ----------------------------
                           !    Initial Parameters    !
                           ! (Angstroms and Degrees)  !
 --------------------------                            --------------------------
 ! Name  Definition              Value          Derivative Info.                !
 --------------------------------------------------------------------------------
 ! R1    R(1,2)                  1.4237         estimate D2E/DX2                !
 ! R2    R(1,3)                  1.5217         estimate D2E/DX2                !
 ! R3    R(1,6)                  1.0946         estimate D2E/DX2                !
 ! R4    R(1,7)                  1.0946         estimate D2E/DX2                !
 ! R5    R(2,8)                  0.9726         estimate D2E/DX2                !
 ! R6    R(3,4)                  1.5198         estimate D2E/DX2                !
 ! R7    R(3,9)                  1.0972         estimate D2E/DX2                !
 ! R8    R(3,10)                 1.0964         estimate D2E/DX2                !
 ! R9    R(4,5)                  1.4203         estimate D2E/DX2                !
 ! R10   R(4,11)                 1.0947         estimate D2E/DX2                !
 ! R11   R(4,12)                 1.0947         estimate D2E/DX2                !
 ! R12   R(5,13)                 0.9731         estimate D2E/DX2                !
 ! A1    A(2,1,3)              108.795          estimate D2E/DX2                !
 ! A2    A(2,1,6)              108.2003         estimate D2E/DX2                !
 ! A3    A(2,1,7)              108.4946         estimate D2E/DX2                !
 ! A4    A(3,1,6)              111.0203         estimate D2E/DX2                !
 ! A5    A(3,1,7)              111.2153         estimate D2E/DX2                !
 ! A6    A(6,1,7)              109.0323         estimate D2E/DX2                !
 ! A7    A(1,2,8)              106.7753         estimate D2E/DX2                !
 ! A8    A(1,3,4)              112.2989         estimate D2E/DX2                !
 ! A9    A(1,3,9)              108.4313         estimate D2E/DX2                !
 ! A10   A(1,3,10)             109.8382         estimate D2E/DX2                !
 ! A11   A(4,3,9)              109.9298         estimate D2E/DX2                !
 ! A12   A(4,3,10)             109.7917         estimate D2E/DX2                !
 ! A13   A(9,3,10)             106.3681         estimate D2E/DX2                !
 ! A14   A(3,4,5)              110.1826         estimate D2E/DX2                !
 ! A15   A(3,4,11)             109.9776         estimate D2E/DX2                !
 ! A16   A(3,4,12)             110.9142         estimate D2E/DX2                !
 ! A17   A(5,4,11)             108.5053         estimate D2E/DX2                !
 ! A18   A(5,4,12)             108.5892         estimate D2E/DX2                !
 ! A19   A(11,4,12)            108.6129         estimate D2E/DX2                !
 ! A20   A(4,5,13)             107.0422         estimate D2E/DX2                !
 ! D1    D(3,1,2,8)           -176.4582         estimate D2E/DX2                !
 ! D2    D(6,1,2,8)             62.8277         estimate D2E/DX2                !
 ! D3    D(7,1,2,8)            -55.333          estimate D2E/DX2                !
 ! D4    D(2,1,3,4)           -173.5853         estimate D2E/DX2                !
 ! D5    D(2,1,3,9)             64.7455         estimate D2E/DX2                !
 ! D6    D(2,1,3,10)           -51.1046         estimate D2E/DX2                !
 ! D7    D(6,1,3,4)            -54.6231         estimate D2E/DX2                !
 ! D8    D(6,1,3,9)           -176.2924         estimate D2E/DX2                !
 ! D9    D(6,1,3,10)            67.8576         estimate D2E/DX2                !
 ! D10   D(7,1,3,4)             66.972          estimate D2E/DX2                !
 ! D11   D(7,1,3,9)            -54.6972         estimate D2E/DX2                !
 ! D12   D(7,1,3,10)          -170.5473         estimate D2E/DX2                !
 ! D13   D(1,3,4,5)            -60.3121         estimate D2E/DX2                !
 ! D14   D(1,3,4,11)          -179.8787         estimate D2E/DX2                !
 ! D15   D(1,3,4,12)            59.9569         estimate D2E/DX2                !
 ! D16   D(9,3,4,5)             60.4977         estimate D2E/DX2                !
 ! D17   D(9,3,4,11)           -59.0689         estimate D2E/DX2                !
 ! D18   D(9,3,4,12)          -179.2332         estimate D2E/DX2                !
 ! D19   D(10,3,4,5)           177.1809         estimate D2E/DX2                !
 ! D20   D(10,3,4,11)           57.6143         estimate D2E/DX2                !
 ! D21   D(10,3,4,12)          -62.5501         estimate D2E/DX2                !
 ! D22   D(3,4,5,13)          -174.0016         estimate D2E/DX2                !
 ! D23   D(11,4,5,13)          -53.5453         estimate D2E/DX2                !
 ! D24   D(12,4,5,13)           64.3379         estimate D2E/DX2                !
 --------------------------------------------------------------------------------
 Trust Radius=3.00D-01 FncErr=1.00D-07 GrdErr=1.00D-07
 Number of steps in this run=     66 maximum allowed number of steps=    100.
 GradGradGradGradGradGradGradGradGradGradGradGradGradGradGradGradGradGrad

                          Input orientation:                          
 ---------------------------------------------------------------------
 Center     Atomic      Atomic             Coordinates (Angstroms)
 Number     Number       Type             X           Y           Z
 ---------------------------------------------------------------------
      1          6           0        1.352340    2.267100    1.221730
      2          8           0        0.008130    2.039480    0.811600
      3          6           0        2.073110    0.929480    1.303590
      4          6           0        3.471190    1.062370    1.884540
      5          8           0        4.259530    1.920900    1.072920
      6          1           0        1.332800    2.762920    2.197370
      7          1           0        1.829880    2.930460    0.493720
      8          1           0       -0.407400    2.913440    0.714000
      9          1           0        2.126480    0.501860    0.294560
     10          1           0        1.485890    0.226680    1.906340
     11          1           0        3.954610    0.081030    1.924040
     12          1           0        3.435720    1.475440    2.897740
     13          1           0        5.165000    1.897470    1.428560
 ---------------------------------------------------------------------
                    Distance matrix (angstroms):
                    1          2          3          4          5
     1  C    0.000000
     2  O    1.423699   0.000000
     3  C    1.521656   2.395474   0.000000
     4  C    2.525909   3.754827   1.519799   0.000000
     5  O    2.931510   4.261074   2.411753   1.420310   0.000000
     6  H    1.094574   2.049018   2.169886   2.749990   3.246403
     7  H    1.094573   2.052722   2.172319   2.849217   2.694046
     8  H    1.942223   0.972624   3.230579   4.454221   4.784788
     9  H    2.138927   2.668148   1.097200   2.156491   2.677577
    10  H    2.156349   2.582339   1.096386   2.154128   3.355302
    11  H    3.470440   4.543980   2.155196   1.094661   2.050001
    12  H    2.788585   4.051974   2.167047   1.094742   2.051113
    13  H    3.836115   5.195586   3.242284   1.942756   0.973090
                    6          7          8          9         10
     6  H    0.000000
     7  H    1.782577   0.000000
     8  H    2.291580   2.248163   0.000000
     9  H    3.059903   2.454737   3.523095   0.000000
    10  H    2.557469   3.069894   3.496413   1.756108   0.000000
    11  H    3.760470   3.831389   5.339838   2.484826   2.473076
    12  H    2.563278   3.236529   4.648240   3.072216   2.518752
    13  H    4.003227   3.614418   5.709153   3.530763   4.068865
                   11         12         13
    11  H    0.000000
    12  H    1.778122   0.000000
    13  H    2.238303   2.308031   0.000000
 Stoichiometry    C3H8O2
 Framework group  C1[X(C3H8O2)]
 Deg. of freedom    33
 Full point group                 C1      NOp   1
 Largest Abelian subgroup         C1      NOp   1
 Largest concise Abelian subgroup C1      NOp   1
                         Standard orientation:                         
 ---------------------------------------------------------------------
 Center     Atomic      Atomic             Coordinates (Angstroms)
 Number     Number       Type             X           Y           Z
 ---------------------------------------------------------------------
      1          6           0        0.983047   -0.379238    0.235436
      2          8           0        2.313491   -0.027686   -0.129593
      3          6           0        0.041097    0.724557   -0.222610
      4          6           0       -1.382330    0.506446    0.263262
      5          8           0       -1.889341   -0.721005   -0.240311
      6          1           0        0.947370   -0.499722    1.322774
      7          1           0        0.733981   -1.334242   -0.237874
      8          1           0        2.881201   -0.775410    0.124596
      9          1           0        0.060144    0.764089   -1.318933
     10          1           0        0.408254    1.696314    0.128026
     11          1           0       -2.026219    1.318786   -0.088582
     12          1           0       -1.421900    0.477923    1.356916
     13          1           0       -2.826911   -0.768796    0.015782
 ---------------------------------------------------------------------
 Rotational constants (GHZ):     13.7431319      2.4037000      2.2010294
 Standard basis: 6-31G(d) (6D, 7F)
 There are    91 symmetry adapted cartesian basis functions of A   symmetry.
 There are    91 symmetry adapted basis functions of A   symmetry.
    91 basis functions,   172 primitive gaussians,    91 cartesian basis functions
    21 alpha electrons       21 beta electrons
       nuclear repulsion energy       187.8867593897 Hartrees.
 NAtoms=   13 NActive=   13 NUniq=   13 SFac= 1.00D+00 NAtFMM=   60 NAOKFM=F Big=F
 Integral buffers will be    131072 words long.
 Raffenetti 1 integral format.
 Two-electron integral symmetry is turned on.
 One-electron integrals computed using PRISM.
 NBasis=    91 RedAO= T EigKep=  4.05D-03  NBF=    91
 NBsUse=    91 1.00D-06 EigRej= -1.00D+00 NBFU=    91
 ExpMin= 1.61D-01 ExpMax= 5.48D+03 ExpMxC= 8.25D+02 IAcc=1 IRadAn=         1 AccDes= 0.00D+00
 Harris functional with IExCor=  205 and IRadAn=       1 diagonalized for initial guess.
 HarFok:  IExCor=  205 AccDes= 0.00D+00 IRadAn=         1 IDoV= 1 UseB2=F ITyADJ=14
 ICtDFT=  3500011 ScaDFX=  1.000000  1.000000  1.000000  1.000000
 FoFCou: FMM=F IPFlag=           0 FMFlag=      100000 FMFlg1=           0
         NFxFlg=           0 DoJE=T BraDBF=F KetDBF=T FulRan=T
         wScrn=  0.000000 ICntrl=     500 IOpCl=  0 I1Cent=   200000004 NGrid=           0
         NMat0=    1 NMatS0=      1 NMatT0=    0 NMatD0=    1 NMtDS0=    0 NMtDT0=    0
 Petite list used in FoFCou.
 Keep R1 ints in memory in canonical form, NReq=9679603.
 Requested convergence on RMS density matrix=1.00D-08 within 128 cycles.
 Requested convergence on MAX density matrix=1.00D-06.
 Requested convergence on             energy=1.00D-06.
 No special actions if energy rises.
 SCF Done:  E(RHF) =  -267.954139675     A.U. after   11 cycles
            NFock= 11  Conv=0.95D-08     -V/T= 2.0022

 **********************************************************************

            Population analysis using the SCF density.

 **********************************************************************

 Orbital symmetries:
       Occupied  (A) (A) (A) (A) (A) (A) (A) (A) (A) (A) (A) (A)
                 (A) (A) (A) (A) (A) (A) (A) (A) (A)
       Virtual   (A) (A) (A) (A) (A) (A) (A) (A) (A) (A) (A) (A)
                 (A) (A) (A) (A) (A) (A) (A) (A) (A) (A) (A) (A)
                 (A) (A) (A) (A) (A) (A) (A) (A) (A) (A) (A) (A)
                 (A) (A) (A) (A) (A) (A) (A) (A) (A) (A) (A) (A)
                 (A) (A) (A) (A) (A) (A) (A) (A) (A) (A) (A) (A)
                 (A) (A) (A) (A) (A) (A) (A) (A) (A) (A)
 The electronic state is 1-A.
 Alpha  occ. eigenvalues --  -20.56079 -20.55072 -11.27756 -11.26699 -11.21964
 Alpha  occ. eigenvalues --   -1.35566  -1.34397  -1.04179  -0.90241  -0.79922
 Alpha  occ. eigenvalues --   -0.70253  -0.67441  -0.65153  -0.62055  -0.56199
 Alpha  occ. eigenvalues --   -0.55242  -0.51289  -0.49411  -0.47319  -0.43808
 Alpha  occ. eigenvalues --   -0.42996
 Alpha virt. eigenvalues --    0.21452   0.22845   0.26705   0.29191   0.30786
 Alpha virt. eigenvalues --    0.31951   0.33769   0.36307   0.38814   0.41190
 Alpha virt. eigenvalues --    0.43363   0.45752   0.74236   0.76042   0.78842
 Alpha virt. eigenvalues --    0.80248   0.81961   0.90806   0.95030   0.97198
 Alpha virt. eigenvalues --    1.01490   1.07519   1.10933   1.11846   1.12407
 Alpha virt. eigenvalues --    1.13686   1.18738   1.19469   1.20612   1.22346
 Alpha virt. eigenvalues --    1.26882   1.27987   1.30013   1.31995   1.47824
 Alpha virt. eigenvalues --    1.50086   1.56872   1.67585   1.68725   1.70869
 Alpha virt. eigenvalues --    1.86346   1.90726   1.96674   2.02128   2.04877
 Alpha virt. eigenvalues --    2.07902   2.15680   2.23247   2.25239   2.28510
 Alpha virt. eigenvalues --    2.39119   2.42604   2.48237   2.55368   2.66248
 Alpha virt. eigenvalues --    2.68143   2.71936   2.75897   2.78522   2.80361
 Alpha virt. eigenvalues --    2.84688   2.97265   3.09203   3.18699   3.27313
 Alpha virt. eigenvalues --    4.14987   4.19351   4.60774   4.76147   4.92724
          Condensed to atoms (all electrons):
               1          2          3          4          5          6
     1  C    4.776224   0.207535   0.348593  -0.049679   0.002496   0.398607
     2  O    0.207535   8.409894  -0.049167   0.002044   0.000006  -0.042244
     3  C    0.348593  -0.049167   5.134010   0.339219  -0.054009  -0.050355
     4  C   -0.049679   0.002044   0.339219   4.809988   0.198784   0.001058
     5  O    0.002496   0.000006  -0.054009   0.198784   8.412931  -0.000065
     6  H    0.398607  -0.042244  -0.050355   0.001058  -0.000065   0.601018
     7  H    0.402315  -0.039822  -0.037334  -0.002213   0.003234  -0.042307
     8  H   -0.024876   0.258742   0.005950  -0.000215   0.000005  -0.003190
     9  H   -0.039371   0.002234   0.388645  -0.032752   0.001523   0.004662
    10  H   -0.035869   0.001795   0.390398  -0.036149   0.002348  -0.003562
    11  H    0.005216  -0.000033  -0.042104   0.405751  -0.038671  -0.000068
    12  H   -0.007769  -0.000037  -0.042754   0.396107  -0.043650   0.003066
    13  H   -0.000125   0.000000   0.005827  -0.023114   0.258478  -0.000028
               7          8          9         10         11         12
     1  C    0.402315  -0.024876  -0.039371  -0.035869   0.005216  -0.007769
     2  O   -0.039822   0.258742   0.002234   0.001795  -0.000033  -0.000037
     3  C   -0.037334   0.005950   0.388645   0.390398  -0.042104  -0.042754
     4  C   -0.002213  -0.000215  -0.032752  -0.036149   0.405751   0.396107
     5  O    0.003234   0.000005   0.001523   0.002348  -0.038671  -0.043650
     6  H   -0.042307  -0.003190   0.004662  -0.003562  -0.000068   0.003066
     7  H    0.552684  -0.003929  -0.004490   0.004236  -0.000075   0.000396
     8  H   -0.003929   0.333914  -0.000195  -0.000109   0.000004  -0.000004
     9  H   -0.004490  -0.000195   0.521650  -0.026199  -0.004575   0.004595
    10  H    0.004236  -0.000109  -0.026199   0.528435  -0.001656   0.000139
    11  H   -0.000075   0.000004  -0.004575  -0.001656   0.575090  -0.043137
    12  H    0.000396  -0.000004   0.004595   0.000139  -0.043137   0.594465
    13  H   -0.000070  -0.000000  -0.000121  -0.000157  -0.004504  -0.002875
              13
     1  C   -0.000125
     2  O    0.000000
     3  C    0.005827
     4  C   -0.023114
     5  O    0.258478
     6  H   -0.000028
     7  H   -0.000070
     8  H   -0.000000
     9  H   -0.000121
    10  H   -0.000157
    11  H   -0.004504
    12  H   -0.002875
    13  H    0.328940
 Mulliken charges:
               1
     1  C    0.016703
     2  O   -0.750948
     3  C   -0.336918
     4  C   -0.008828
     5  O   -0.743409
     6  H    0.133410
     7  H    0.167375
     8  H    0.433903
     9  H    0.184394
    10  H    0.176349
    11  H    0.148761
    12  H    0.141459
    13  H    0.437748
 Sum of Mulliken charges =  -0.00000
 Mulliken charges with hydrogens summed into heavy atoms:
               1
     1  C    0.317489
     2  O   -0.317045
     3  C    0.023824
     4  C    0.281393
     5  O   -0.305660
 Electronic spatial extent (au):  <R**2>=            559.5003
 Charge=             -0.0000 electrons
 Dipole moment (field-independent basis, Debye):
    X=             -1.5633    Y=             -0.3214    Z=              1.6240  Tot=              2.2769
 Quadrupole moment (field-independent basis, Debye-Ang):
   XX=            -26.0481   YY=            -30.9731   ZZ=            -32.1459
   XY=             -5.4922   XZ=              0.0927   YZ=             -0.8747
 Traceless Quadrupole moment (field-independent basis, Debye-Ang):
   XX=              3.6742   YY=             -1.2507   ZZ=             -2.4235
   XY=             -5.4922   XZ=              0.0927   YZ=             -0.8747
 Octapole moment (field-independent basis, Debye-Ang**2):
  XXX=            -19.1912  YYY=             -3.3857  ZZZ=             -0.4475  XYY=              4.3372
  XXY=            -17.2677  XXZ=              8.2182  XZZ=              0.6023  YZZ=             -0.8681
  YYZ=              0.0458  XYZ=              0.7120
 Hexadecapole moment (field-independent basis, Debye-Ang**3):
 XXXX=           -369.0355 YYYY=           -109.4168 ZZZZ=            -59.5515 XXXY=            -18.6738
 XXXZ=              6.0925 YYYX=             -0.4027 YYYZ=              1.2059 ZZZX=              0.4148
 ZZZY=             -0.4910 XXYY=            -88.2985 XXZZ=            -96.9553 YYZZ=            -29.5731
 XXYZ=             -5.1135 YYXZ=              0.5068 ZZXY=              0.3055
 N-N= 1.878867593897D+02 E-N=-1.006185237032D+03  KE= 2.673642630891D+02
 Calling FoFJK, ICntrl=      2127 FMM=F ISym2X=0 I1Cent= 0 IOpClX= 0 NMat=1 NMatS=1 NMatT=0.
 ***** Axes restored to original set *****
 -------------------------------------------------------------------
 Center     Atomic                   Forces (Hartrees/Bohr)
 Number     Number              X              Y              Z
 -------------------------------------------------------------------
      1        6          -0.014217039    0.005058447   -0.003990058
      2        8          -0.001084895    0.024268015    0.000121726
      3        6          -0.002471500   -0.001973561   -0.008158910
      4        6           0.010796814    0.000436493   -0.001452493
      5        8           0.018320651   -0.006364645    0.013805651
      6        1           0.005214521   -0.001960943   -0.003646625
      7        1           0.002074141   -0.005207839    0.007955149
      8        1           0.008634087   -0.025934999    0.001613884
      9        1           0.001238464    0.003095513    0.007659867
     10        1           0.004100411    0.006789532   -0.001617819
     11        1          -0.005382949    0.003396291    0.002806739
     12        1          -0.002378383   -0.004872313   -0.002959957
     13        1          -0.024844324    0.003270009   -0.012137155
 -------------------------------------------------------------------
 Cartesian Forces:  Max     0.025934999 RMS     0.009448757

 GradGradGradGradGradGradGradGradGradGradGradGradGradGradGradGradGradGrad
 Berny optimization.
 FormGI is forming the generalized inverse of G from B-inverse, IUseBI=4.
 GSVD:  received Info=                   1 from GESDD.
 Internal  Forces:  Max     0.027632445 RMS     0.006392229
 Search for a local minimum.
 Step number   1 out of a maximum of   66
 All quantities printed in internal units (Hartrees-Bohrs-Radians)
 Mixed Optimization -- RFO/linear search
 Second derivative matrix not updated -- first step.
 ITU=  0
     Eigenvalues ---    0.00479   0.00504   0.01378   0.01423   0.03653
     Eigenvalues ---    0.04928   0.05169   0.05298   0.05714   0.05826
     Eigenvalues ---    0.08351   0.11407   0.11492   0.12201   0.13697
     Eigenvalues ---    0.13805   0.16000   0.16000   0.21891   0.22017
     Eigenvalues ---    0.22036   0.30208   0.30386   0.33994   0.34085
     Eigenvalues ---    0.34270   0.34279   0.34289   0.34289   0.41908
     Eigenvalues ---    0.42414   0.52750   0.52844
 RFO step:  Lambda=-6.65799598D-03 EMin= 4.79476882D-03
 Linear search not attempted -- first point.
 Iteration  1 RMS(Cart)=  0.03929896 RMS(Int)=  0.00094098
 Iteration  2 RMS(Cart)=  0.00110737 RMS(Int)=  0.00035976
 Iteration  3 RMS(Cart)=  0.00000127 RMS(Int)=  0.00035976
 Iteration  4 RMS(Cart)=  0.00000000 RMS(Int)=  0.00035976
 Variable       Old X    -DE/DX   Delta X   Delta X   Delta X     New X
                                 (Linear)    (Quad)   (Total)
    R1        2.69040  -0.00736   0.00000  -0.01729  -0.01729   2.67311
    R2        2.87551  -0.00373   0.00000  -0.01207  -0.01207   2.86345
    R3        2.06845  -0.00423   0.00000  -0.01211  -0.01211   2.05634
    R4        2.06844  -0.00754   0.00000  -0.02158  -0.02158   2.04687
    R5        1.83799  -0.02715   0.00000  -0.05075  -0.05075   1.78725
    R6        2.87200  -0.00355   0.00000  -0.01142  -0.01142   2.86058
    R7        2.07341  -0.00819   0.00000  -0.02363  -0.02363   2.04978
    R8        2.07187  -0.00744   0.00000  -0.02140  -0.02140   2.05047
    R9        2.68400  -0.00644   0.00000  -0.01496  -0.01496   2.66904
   R10        2.06861  -0.00532   0.00000  -0.01523  -0.01523   2.05338
   R11        2.06876  -0.00450   0.00000  -0.01288  -0.01288   2.05588
   R12        1.83887  -0.02763   0.00000  -0.05173  -0.05173   1.78714
    A1        1.89883  -0.00693   0.00000  -0.02461  -0.02436   1.87447
    A2        1.88845   0.00544   0.00000   0.04479   0.04446   1.93291
    A3        1.89359   0.00600   0.00000   0.04647   0.04604   1.93963
    A4        1.93767  -0.00099   0.00000  -0.01807  -0.01815   1.91952
    A5        1.94107  -0.00224   0.00000  -0.02809  -0.02817   1.91291
    A6        1.90297  -0.00089   0.00000  -0.01674  -0.01834   1.88463
    A7        1.86358   0.00646   0.00000   0.03878   0.03878   1.90236
    A8        1.95999   0.00321   0.00000   0.01158   0.01153   1.97152
    A9        1.89248   0.00035   0.00000   0.01280   0.01282   1.90531
   A10        1.91704  -0.00208   0.00000  -0.01831  -0.01828   1.89875
   A11        1.91864  -0.00197   0.00000  -0.00794  -0.00807   1.91057
   A12        1.91623  -0.00116   0.00000  -0.01361  -0.01364   1.90259
   A13        1.85647   0.00156   0.00000   0.01598   0.01603   1.87250
   A14        1.92305  -0.00892   0.00000  -0.03585  -0.03573   1.88732
   A15        1.91947   0.00035   0.00000  -0.00570  -0.00547   1.91401
   A16        1.93582  -0.00073   0.00000  -0.01848  -0.01842   1.91740
   A17        1.89378   0.00564   0.00000   0.04314   0.04293   1.93670
   A18        1.89524   0.00537   0.00000   0.03291   0.03235   1.92759
   A19        1.89565  -0.00140   0.00000  -0.01387  -0.01466   1.88100
   A20        1.86824   0.00619   0.00000   0.03717   0.03717   1.90541
    D1       -3.07978   0.00050   0.00000   0.00849   0.00855  -3.07123
    D2        1.09655   0.00253   0.00000   0.01822   0.01914   1.11569
    D3       -0.96574  -0.00274   0.00000  -0.01238  -0.01336  -0.97910
    D4       -3.02964  -0.00001   0.00000  -0.00706  -0.00698  -3.03661
    D5        1.13002   0.00015   0.00000  -0.01333  -0.01335   1.11667
    D6       -0.89194  -0.00078   0.00000  -0.02963  -0.02957  -0.92151
    D7       -0.95335   0.00173   0.00000   0.02166   0.02150  -0.93185
    D8       -3.07688   0.00189   0.00000   0.01539   0.01513  -3.06175
    D9        1.18434   0.00097   0.00000  -0.00091  -0.00109   1.18325
   D10        1.16888  -0.00164   0.00000  -0.03158  -0.03138   1.13751
   D11       -0.95465  -0.00148   0.00000  -0.03785  -0.03775  -0.99240
   D12       -2.97661  -0.00240   0.00000  -0.05415  -0.05397  -3.03058
   D13       -1.05264  -0.00037   0.00000  -0.00188  -0.00196  -1.05460
   D14       -3.13948  -0.00197   0.00000  -0.02915  -0.02910   3.11461
   D15        1.04645   0.00002   0.00000   0.00377   0.00385   1.05030
   D16        1.05588   0.00086   0.00000   0.01658   0.01646   1.07234
   D17       -1.03095  -0.00075   0.00000  -0.01069  -0.01069  -1.04164
   D18       -3.12821   0.00124   0.00000   0.02223   0.02227  -3.10594
   D19        3.09239   0.00092   0.00000   0.02335   0.02327   3.11566
   D20        1.00556  -0.00068   0.00000  -0.00392  -0.00388   1.00168
   D21       -1.09170   0.00130   0.00000   0.02900   0.02908  -1.06263
   D22       -3.03690  -0.00087   0.00000  -0.02386  -0.02387  -3.06077
   D23       -0.93454  -0.00231   0.00000  -0.02562  -0.02639  -0.96094
   D24        1.12291   0.00215   0.00000   0.00020   0.00097   1.12388
         Item               Value     Threshold  Converged?
 Maximum Force            0.027632     0.000450     NO 
 RMS     Force            0.006392     0.000300     NO 
 Maximum Displacement     0.109701     0.001800     NO 
 RMS     Displacement     0.039192     0.001200     NO 
 Predicted change in Energy=-3.449443D-03
 GradGradGradGradGradGradGradGradGradGradGradGradGradGradGradGradGradGrad

                          Input orientation:                          
 ---------------------------------------------------------------------
 Center     Atomic      Atomic             Coordinates (Angstroms)
 Number     Number       Type             X           Y           Z
 ---------------------------------------------------------------------
      1          6           0        1.362645    2.281903    1.230042
      2          8           0        0.038099    2.030587    0.801830
      3          6           0        2.076672    0.947321    1.301490
      4          6           0        3.468346    1.052840    1.887634
      5          8           0        4.228030    1.913104    1.064420
      6          1           0        1.367627    2.759086    2.207990
      7          1           0        1.879957    2.934145    0.537083
      8          1           0       -0.410815    2.855389    0.689321
      9          1           0        2.135149    0.520978    0.305812
     10          1           0        1.487837    0.267979    1.909046
     11          1           0        3.919269    0.065555    1.939075
     12          1           0        3.413927    1.446252    2.900473
     13          1           0        5.120538    1.933492    1.376495
 ---------------------------------------------------------------------
                    Distance matrix (angstroms):
                    1          2          3          4          5
     1  C    0.000000
     2  O    1.414549   0.000000
     3  C    1.515271   2.361971   0.000000
     4  C    2.525272   3.728479   1.513756   0.000000
     5  O    2.893764   4.199795   2.370080   1.412393   0.000000
     6  H    1.088168   2.067762   2.146387   2.725238   3.194580
     7  H    1.083155   2.068562   2.137869   2.808251   2.614202
     8  H    1.940729   0.945770   3.194224   4.442188   4.748419
     9  H    2.133500   2.631078   1.084695   2.135990   2.625577
    10  H    2.128992   2.536623   1.085060   2.130465   3.305826
    11  H    3.457058   4.496461   2.139904   1.086604   2.067315
    12  H    2.774240   4.017707   2.143346   1.087924   2.061991
    13  H    3.776851   5.115746   3.200513   1.940760   0.945716
                    6          7          8          9         10
     6  H    0.000000
     7  H    1.756433   0.000000
     8  H    2.340617   2.297176   0.000000
     9  H    3.035869   2.437619   3.475412   0.000000
    10  H    2.511858   3.023984   3.433263   1.747392   0.000000
    11  H    3.719986   3.788559   5.300442   2.461309   2.440028
    12  H    2.527926   3.186299   4.637188   3.037051   2.465984
    13  H    3.931582   3.493893   5.649600   3.471903   4.031632
                   11         12         13
    11  H    0.000000
    12  H    1.756696   0.000000
    13  H    2.291011   2.339324   0.000000
 Stoichiometry    C3H8O2
 Framework group  C1[X(C3H8O2)]
 Deg. of freedom    33
 Full point group                 C1      NOp   1
 Largest Abelian subgroup         C1      NOp   1
 Largest concise Abelian subgroup C1      NOp   1
                         Standard orientation:                         
 ---------------------------------------------------------------------
 Center     Atomic      Atomic             Coordinates (Angstroms)
 Number     Number       Type             X           Y           Z
 ---------------------------------------------------------------------
      1          6           0        0.975957   -0.384758    0.256341
      2          8           0        2.285147   -0.023487   -0.139203
      3          6           0        0.039868    0.704509   -0.226649
      4          6           0       -1.382698    0.517320    0.255767
      5          8           0       -1.855578   -0.718313   -0.238653
      6          1           0        0.911936   -0.477091    1.338693
      7          1           0        0.684542   -1.333262   -0.177988
      8          1           0        2.880990   -0.719074    0.096615
      9          1           0        0.053385    0.730724   -1.310943
     10          1           0        0.408651    1.662964    0.123663
     11          1           0       -1.999674    1.339127   -0.097337
     12          1           0       -1.408326    0.526289    1.343352
     13          1           0       -2.766818   -0.817693   -0.005962
 ---------------------------------------------------------------------
 Rotational constants (GHZ):     13.8283180      2.4600013      2.2521121
 Standard basis: 6-31G(d) (6D, 7F)
 There are    91 symmetry adapted cartesian basis functions of A   symmetry.
 There are    91 symmetry adapted basis functions of A   symmetry.
    91 basis functions,   172 primitive gaussians,    91 cartesian basis functions
    21 alpha electrons       21 beta electrons
       nuclear repulsion energy       189.6026692138 Hartrees.
 NAtoms=   13 NActive=   13 NUniq=   13 SFac= 1.00D+00 NAtFMM=   60 NAOKFM=F Big=F
 Integral buffers will be    131072 words long.
 Raffenetti 1 integral format.
 Two-electron integral symmetry is turned on.
 One-electron integrals computed using PRISM.
 NBasis=    91 RedAO= T EigKep=  3.96D-03  NBF=    91
 NBsUse=    91 1.00D-06 EigRej= -1.00D+00 NBFU=    91
 Initial guess from the checkpoint file:  "1-3-propanediol-open-opt.chk"
 B after Tr=     0.000000   -0.000000    0.000000
         Rot=    0.999978    0.006518    0.000468   -0.000813 Ang=   0.75 deg.
 ExpMin= 1.61D-01 ExpMax= 5.48D+03 ExpMxC= 8.25D+02 IAcc=1 IRadAn=         1 AccDes= 0.00D+00
 Harris functional with IExCor=  205 and IRadAn=       1 diagonalized for initial guess.
 HarFok:  IExCor=  205 AccDes= 0.00D+00 IRadAn=         1 IDoV= 1 UseB2=F ITyADJ=14
 ICtDFT=  3500011 ScaDFX=  1.000000  1.000000  1.000000  1.000000
 FoFCou: FMM=F IPFlag=           0 FMFlag=      100000 FMFlg1=           0
         NFxFlg=           0 DoJE=T BraDBF=F KetDBF=T FulRan=T
         wScrn=  0.000000 ICntrl=     500 IOpCl=  0 I1Cent=   200000004 NGrid=           0
         NMat0=    1 NMatS0=      1 NMatT0=    0 NMatD0=    1 NMtDS0=    0 NMtDT0=    0
 Petite list used in FoFCou.
 Keep R1 ints in memory in canonical form, NReq=9679790.
 Requested convergence on RMS density matrix=1.00D-08 within 128 cycles.
 Requested convergence on MAX density matrix=1.00D-06.
 Requested convergence on             energy=1.00D-06.
 No special actions if energy rises.
 SCF Done:  E(RHF) =  -267.957315049     A.U. after   11 cycles
            NFock= 11  Conv=0.34D-08     -V/T= 2.0014
 Calling FoFJK, ICntrl=      2127 FMM=F ISym2X=0 I1Cent= 0 IOpClX= 0 NMat=1 NMatS=1 NMatT=0.
 ***** Axes restored to original set *****
 -------------------------------------------------------------------
 Center     Atomic                   Forces (Hartrees/Bohr)
 Number     Number              X              Y              Z
 -------------------------------------------------------------------
      1        6          -0.005222040   -0.002267806   -0.002731561
      2        8           0.006506544    0.002052333    0.002417291
      3        6          -0.000787171   -0.002638605   -0.000111974
      4        6           0.001151187    0.003604949   -0.003550277
      5        8          -0.001377325   -0.004250510    0.003548010
      6        1          -0.001018714    0.000500026    0.000505824
      7        1          -0.000759875    0.001477459   -0.000499817
      8        1          -0.001036016    0.000569830   -0.000494777
      9        1          -0.000142059    0.000080950   -0.000199732
     10        1          -0.000740545   -0.000416799    0.000666552
     11        1           0.001001525    0.000002596   -0.000339999
     12        1           0.001090194    0.000196283    0.000862733
     13        1           0.001334295    0.001089295   -0.000072272
 -------------------------------------------------------------------
 Cartesian Forces:  Max     0.006506544 RMS     0.002105112

 GradGradGradGradGradGradGradGradGradGradGradGradGradGradGradGradGradGrad
 Berny optimization.
 Using GEDIIS/GDIIS optimizer.
 FormGI is forming the generalized inverse of G from B-inverse, IUseBI=4.
 Internal  Forces:  Max     0.006170309 RMS     0.001369607
 Search for a local minimum.
 Step number   2 out of a maximum of   66
 All quantities printed in internal units (Hartrees-Bohrs-Radians)
 Mixed Optimization -- RFO/linear search
 Update second derivatives using D2CorX and points    1    2
 DE= -3.18D-03 DEPred=-3.45D-03 R= 9.21D-01
 TightC=F SS=  1.41D+00  RLast= 1.87D-01 DXNew= 5.0454D-01 5.6245D-01
 Trust test= 9.21D-01 RLast= 1.87D-01 DXMaxT set to 5.05D-01
 ITU=  1  0
 Use linear search instead of GDIIS.
     Eigenvalues ---    0.00479   0.00504   0.01378   0.01419   0.03645
     Eigenvalues ---    0.04944   0.05385   0.05440   0.06007   0.06069
     Eigenvalues ---    0.08428   0.11067   0.11823   0.12245   0.13609
     Eigenvalues ---    0.13654   0.15348   0.16006   0.21809   0.21970
     Eigenvalues ---    0.23037   0.30279   0.30764   0.33908   0.34142
     Eigenvalues ---    0.34263   0.34281   0.34288   0.34763   0.39893
     Eigenvalues ---    0.42266   0.52798   0.55094
 RFO step:  Lambda=-3.58176970D-04 EMin= 4.79442378D-03
 Quartic linear search produced a step of -0.05596.
 Iteration  1 RMS(Cart)=  0.01330167 RMS(Int)=  0.00007845
 Iteration  2 RMS(Cart)=  0.00008725 RMS(Int)=  0.00001160
 Iteration  3 RMS(Cart)=  0.00000000 RMS(Int)=  0.00001160
 Variable       Old X    -DE/DX   Delta X   Delta X   Delta X     New X
                                 (Linear)    (Quad)   (Total)
    R1        2.67311  -0.00617   0.00097  -0.01577  -0.01480   2.65831
    R2        2.86345   0.00281   0.00068   0.00745   0.00812   2.87157
    R3        2.05634   0.00067   0.00068   0.00051   0.00119   2.05753
    R4        2.04687   0.00085   0.00121  -0.00004   0.00117   2.04803
    R5        1.78725   0.00105   0.00284  -0.00365  -0.00081   1.78643
    R6        2.86058   0.00316   0.00064   0.00854   0.00918   2.86977
    R7        2.04978   0.00014   0.00132  -0.00219  -0.00087   2.04891
    R8        2.05047   0.00104   0.00120   0.00052   0.00171   2.05218
    R9        2.66904  -0.00397   0.00084  -0.01047  -0.00963   2.65941
   R10        2.05338   0.00040   0.00085  -0.00058   0.00027   2.05366
   R11        2.05588   0.00082   0.00072   0.00084   0.00156   2.05744
   R12        1.78714   0.00126   0.00289  -0.00338  -0.00049   1.78666
    A1        1.87447   0.00114   0.00136   0.00212   0.00347   1.87794
    A2        1.93291  -0.00101  -0.00249  -0.00443  -0.00691   1.92601
    A3        1.93963  -0.00124  -0.00258  -0.00306  -0.00565   1.93398
    A4        1.91952   0.00023   0.00102   0.00115   0.00217   1.92169
    A5        1.91291   0.00118   0.00158   0.00843   0.01000   1.92291
    A6        1.88463  -0.00028   0.00103  -0.00397  -0.00290   1.88173
    A7        1.90236   0.00128  -0.00217   0.01190   0.00973   1.91209
    A8        1.97152   0.00078  -0.00065   0.00464   0.00400   1.97552
    A9        1.90531  -0.00036  -0.00072  -0.00140  -0.00212   1.90319
   A10        1.89875  -0.00040   0.00102  -0.00422  -0.00320   1.89556
   A11        1.91057  -0.00022   0.00045  -0.00179  -0.00133   1.90923
   A12        1.90259  -0.00001   0.00076   0.00024   0.00101   1.90360
   A13        1.87250   0.00018  -0.00090   0.00244   0.00154   1.87404
   A14        1.88732   0.00257   0.00200   0.00776   0.00974   1.89705
   A15        1.91401   0.00001   0.00031   0.00113   0.00144   1.91545
   A16        1.91740   0.00038   0.00103   0.00492   0.00593   1.92333
   A17        1.93670  -0.00158  -0.00240  -0.00686  -0.00926   1.92744
   A18        1.92759  -0.00124  -0.00181  -0.00147  -0.00332   1.92427
   A19        1.88100  -0.00014   0.00082  -0.00541  -0.00458   1.87642
   A20        1.90541   0.00191  -0.00208   0.01542   0.01334   1.91875
    D1       -3.07123  -0.00024  -0.00048   0.00427   0.00379  -3.06743
    D2        1.11569  -0.00065  -0.00107   0.00413   0.00304   1.11872
    D3       -0.97910   0.00119   0.00075   0.01410   0.01486  -0.96424
    D4       -3.03661  -0.00009   0.00039  -0.02018  -0.01979  -3.05640
    D5        1.11667  -0.00008   0.00075  -0.02002  -0.01926   1.09741
    D6       -0.92151   0.00013   0.00165  -0.01979  -0.01814  -0.93965
    D7       -0.93185  -0.00047  -0.00120  -0.02359  -0.02479  -0.95664
    D8       -3.06175  -0.00047  -0.00085  -0.02343  -0.02426  -3.08602
    D9        1.18325  -0.00026   0.00006  -0.02320  -0.02314   1.16011
   D10        1.13751   0.00004   0.00176  -0.02263  -0.02089   1.11662
   D11       -0.99240   0.00005   0.00211  -0.02247  -0.02036  -1.01276
   D12       -3.03058   0.00026   0.00302  -0.02224  -0.01924  -3.04982
   D13       -1.05460  -0.00017   0.00011   0.00107   0.00117  -1.05343
   D14        3.11461   0.00018   0.00163   0.00398   0.00560   3.12021
   D15        1.05030   0.00012  -0.00022   0.00696   0.00675   1.05705
   D16        1.07234  -0.00025  -0.00092   0.00114   0.00022   1.07256
   D17       -1.04164   0.00009   0.00060   0.00405   0.00465  -1.03699
   D18       -3.10594   0.00004  -0.00125   0.00703   0.00580  -3.10014
   D19        3.11566  -0.00016  -0.00130   0.00320   0.00189   3.11755
   D20        1.00168   0.00018   0.00022   0.00611   0.00632   1.00800
   D21       -1.06263   0.00013  -0.00163   0.00909   0.00747  -1.05516
   D22       -3.06077  -0.00007   0.00134  -0.01808  -0.01674  -3.07751
   D23       -0.96094   0.00062   0.00148  -0.01590  -0.01442  -0.97536
   D24        1.12388  -0.00139  -0.00005  -0.02805  -0.02811   1.09577
         Item               Value     Threshold  Converged?
 Maximum Force            0.006170     0.000450     NO 
 RMS     Force            0.001370     0.000300     NO 
 Maximum Displacement     0.047396     0.001800     NO 
 RMS     Displacement     0.013302     0.001200     NO 
 Predicted change in Energy=-1.902722D-04
 GradGradGradGradGradGradGradGradGradGradGradGradGradGradGradGradGradGrad

                          Input orientation:                          
 ---------------------------------------------------------------------
 Center     Atomic      Atomic             Coordinates (Angstroms)
 Number     Number       Type             X           Y           Z
 ---------------------------------------------------------------------
      1          6           0        1.355059    2.282752    1.231898
      2          8           0        0.042222    2.035988    0.790967
      3          6           0        2.073631    0.945885    1.306292
      4          6           0        3.474129    1.051109    1.883982
      5          8           0        4.237470    1.902786    1.063955
      6          1           0        1.342546    2.755995    2.212389
      7          1           0        1.871871    2.947416    0.549483
      8          1           0       -0.411127    2.856938    0.671888
      9          1           0        2.125646    0.516380    0.312117
     10          1           0        1.486105    0.270430    1.921026
     11          1           0        3.926793    0.064269    1.931569
     12          1           0        3.433588    1.442226    2.899246
     13          1           0        5.129349    1.936456    1.375899
 ---------------------------------------------------------------------
                    Distance matrix (angstroms):
                    1          2          3          4          5
     1  C    0.000000
     2  O    1.406718   0.000000
     3  C    1.519569   2.362309   0.000000
     4  C    2.536259   3.733986   1.518615   0.000000
     5  O    2.912193   4.206230   2.378357   1.407297   0.000000
     6  H    1.088797   2.056622   2.152206   2.749205   3.229156
     7  H    1.083772   2.058308   2.149323   2.818527   2.636663
     8  H    1.939772   0.945339   3.198220   4.452573   4.761678
     9  H    2.135385   2.622815   1.084234   2.138948   2.635750
    10  H    2.131082   2.545393   1.085967   2.136134   3.311973
    11  H    3.467711   4.503170   2.145328   1.086749   2.056555
    12  H    2.794068   4.037172   2.152520   1.088751   2.055878
    13  H    3.792878   5.121612   3.213019   1.944670   0.945459
                    6          7          8          9         10
     6  H    0.000000
     7  H    1.755586   0.000000
     8  H    2.336387   2.288067   0.000000
     9  H    3.039762   2.455744   3.470283   0.000000
    10  H    2.506698   3.032524   3.442363   1.748741   0.000000
    11  H    3.742002   3.800711   5.310683   2.463973   2.449402
    12  H    2.563243   3.197803   4.663086   3.043212   2.474411
    13  H    3.963740   3.509440   5.660371   3.488621   4.043023
                   11         12         13
    11  H    0.000000
    12  H    1.754542   0.000000
    13  H    2.293468   2.332478   0.000000
 Stoichiometry    C3H8O2
 Framework group  C1[X(C3H8O2)]
 Deg. of freedom    33
 Full point group                 C1      NOp   1
 Largest Abelian subgroup         C1      NOp   1
 Largest concise Abelian subgroup C1      NOp   1
                         Standard orientation:                         
 ---------------------------------------------------------------------
 Center     Atomic      Atomic             Coordinates (Angstroms)
 Number     Number       Type             X           Y           Z
 ---------------------------------------------------------------------
      1          6           0        0.985858   -0.380188    0.261639
      2          8           0        2.285335   -0.027210   -0.145324
      3          6           0        0.041577    0.707768   -0.221862
      4          6           0       -1.387927    0.512934    0.252218
      5          8           0       -1.862901   -0.716732   -0.240536
      6          1           0        0.937966   -0.462468    1.346266
      7          1           0        0.698206   -1.337754   -0.156555
      8          1           0        2.887663   -0.718585    0.084604
      9          1           0        0.060642    0.736861   -1.305538
     10          1           0        0.406059    1.666575    0.134745
     11          1           0       -2.008177    1.330266   -0.105947
     12          1           0       -1.427949    0.523748    1.340179
     13          1           0       -2.770932   -0.830190   -0.002841
 ---------------------------------------------------------------------
 Rotational constants (GHZ):     13.8434491      2.4469595      2.2419587
 Standard basis: 6-31G(d) (6D, 7F)
 There are    91 symmetry adapted cartesian basis functions of A   symmetry.
 There are    91 symmetry adapted basis functions of A   symmetry.
    91 basis functions,   172 primitive gaussians,    91 cartesian basis functions
    21 alpha electrons       21 beta electrons
       nuclear repulsion energy       189.4498919027 Hartrees.
 NAtoms=   13 NActive=   13 NUniq=   13 SFac= 1.00D+00 NAtFMM=   60 NAOKFM=F Big=F
 Integral buffers will be    131072 words long.
 Raffenetti 1 integral format.
 Two-electron integral symmetry is turned on.
 One-electron integrals computed using PRISM.
 NBasis=    91 RedAO= T EigKep=  3.99D-03  NBF=    91
 NBsUse=    91 1.00D-06 EigRej= -1.00D+00 NBFU=    91
 Initial guess from the checkpoint file:  "1-3-propanediol-open-opt.chk"
 B after Tr=    -0.000000    0.000000    0.000000
         Rot=    1.000000    0.000303   -0.000144   -0.000328 Ang=   0.05 deg.
 ExpMin= 1.61D-01 ExpMax= 5.48D+03 ExpMxC= 8.25D+02 IAcc=1 IRadAn=         1 AccDes= 0.00D+00
 Harris functional with IExCor=  205 and IRadAn=       1 diagonalized for initial guess.
 HarFok:  IExCor=  205 AccDes= 0.00D+00 IRadAn=         1 IDoV= 1 UseB2=F ITyADJ=14
 ICtDFT=  3500011 ScaDFX=  1.000000  1.000000  1.000000  1.000000
 FoFCou: FMM=F IPFlag=           0 FMFlag=      100000 FMFlg1=           0
         NFxFlg=           0 DoJE=T BraDBF=F KetDBF=T FulRan=T
         wScrn=  0.000000 ICntrl=     500 IOpCl=  0 I1Cent=   200000004 NGrid=           0
         NMat0=    1 NMatS0=      1 NMatT0=    0 NMatD0=    1 NMtDS0=    0 NMtDT0=    0
 Petite list used in FoFCou.
 Keep R1 ints in memory in canonical form, NReq=9679790.
 Requested convergence on RMS density matrix=1.00D-08 within 128 cycles.
 Requested convergence on MAX density matrix=1.00D-06.
 Requested convergence on             energy=1.00D-06.
 No special actions if energy rises.
 SCF Done:  E(RHF) =  -267.957494821     A.U. after   10 cycles
            NFock= 10  Conv=0.29D-08     -V/T= 2.0013
 Calling FoFJK, ICntrl=      2127 FMM=F ISym2X=0 I1Cent= 0 IOpClX= 0 NMat=1 NMatS=1 NMatT=0.
 ***** Axes restored to original set *****
 -------------------------------------------------------------------
 Center     Atomic                   Forces (Hartrees/Bohr)
 Number     Number              X              Y              Z
 -------------------------------------------------------------------
      1        6          -0.001281483   -0.000358051   -0.000509989
      2        8           0.000876654   -0.001473003    0.000284250
      3        6           0.000544576    0.000405642    0.000449237
      4        6           0.000901736    0.001358618   -0.000704714
      5        8          -0.001944225   -0.000441538   -0.000915246
      6        1           0.000389894    0.000036176    0.000639152
      7        1           0.000728424    0.000313501   -0.000218494
      8        1          -0.000455123    0.001159044   -0.000230879
      9        1          -0.000124819   -0.000062140   -0.000456997
     10        1           0.000008640   -0.000152058    0.000250535
     11        1          -0.000336501   -0.000786683   -0.000003430
     12        1          -0.000241081   -0.000037252    0.000470081
     13        1           0.000933308    0.000037743    0.000946493
 -------------------------------------------------------------------
 Cartesian Forces:  Max     0.001944225 RMS     0.000709246

 GradGradGradGradGradGradGradGradGradGradGradGradGradGradGradGradGradGrad
 Berny optimization.
 Using GEDIIS/GDIIS optimizer.
 FormGI is forming the generalized inverse of G from B-inverse, IUseBI=4.
 Internal  Forces:  Max     0.001253879 RMS     0.000399189
 Search for a local minimum.
 Step number   3 out of a maximum of   66
 All quantities printed in internal units (Hartrees-Bohrs-Radians)
 Mixed Optimization -- En-DIIS/RFO-DIIS
 Update second derivatives using D2CorX and points    1    2    3
 DE= -1.80D-04 DEPred=-1.90D-04 R= 9.45D-01
 TightC=F SS=  1.41D+00  RLast= 8.39D-02 DXNew= 8.4853D-01 2.5175D-01
 Trust test= 9.45D-01 RLast= 8.39D-02 DXMaxT set to 5.05D-01
 ITU=  1  1  0
 Use linear search instead of GDIIS.
     Eigenvalues ---    0.00454   0.00505   0.01308   0.01385   0.03629
     Eigenvalues ---    0.04930   0.05295   0.05392   0.05931   0.06005
     Eigenvalues ---    0.08455   0.11155   0.12263   0.12600   0.13643
     Eigenvalues ---    0.13706   0.15880   0.16801   0.21907   0.21969
     Eigenvalues ---    0.23739   0.30266   0.33174   0.33787   0.34200
     Eigenvalues ---    0.34269   0.34281   0.34455   0.34558   0.38129
     Eigenvalues ---    0.42647   0.52804   0.54601
 RFO step:  Lambda=-4.32144532D-05 EMin= 4.54125962D-03
 Quartic linear search produced a step of -0.05011.
 Iteration  1 RMS(Cart)=  0.00629508 RMS(Int)=  0.00002815
 Iteration  2 RMS(Cart)=  0.00003343 RMS(Int)=  0.00000169
 Iteration  3 RMS(Cart)=  0.00000000 RMS(Int)=  0.00000169
 Variable       Old X    -DE/DX   Delta X   Delta X   Delta X     New X
                                 (Linear)    (Quad)   (Total)
    R1        2.65831  -0.00036   0.00074  -0.00331  -0.00257   2.65574
    R2        2.87157  -0.00040  -0.00041   0.00010  -0.00031   2.87126
    R3        2.05753   0.00059  -0.00006   0.00180   0.00174   2.05927
    R4        2.04803   0.00068  -0.00006   0.00204   0.00198   2.05001
    R5        1.78643   0.00125   0.00004   0.00205   0.00209   1.78852
    R6        2.86977  -0.00070  -0.00046  -0.00065  -0.00111   2.86866
    R7        2.04891   0.00044   0.00004   0.00104   0.00109   2.04999
    R8        2.05218   0.00023  -0.00009   0.00091   0.00082   2.05300
    R9        2.65941  -0.00081   0.00048  -0.00344  -0.00296   2.65645
   R10        2.05366   0.00057  -0.00001   0.00161   0.00160   2.05526
   R11        2.05744   0.00043  -0.00008   0.00144   0.00137   2.05881
   R12        1.78666   0.00119   0.00002   0.00200   0.00203   1.78868
    A1        1.87794  -0.00025  -0.00017  -0.00022  -0.00039   1.87755
    A2        1.92601   0.00040   0.00035   0.00249   0.00283   1.92884
    A3        1.93398   0.00035   0.00028   0.00224   0.00253   1.93651
    A4        1.92169  -0.00030  -0.00011  -0.00260  -0.00271   1.91898
    A5        1.92291  -0.00025  -0.00050  -0.00099  -0.00150   1.92141
    A6        1.88173   0.00005   0.00015  -0.00094  -0.00080   1.88093
    A7        1.91209  -0.00024  -0.00049   0.00027  -0.00022   1.91187
    A8        1.97552  -0.00030  -0.00020  -0.00088  -0.00109   1.97443
    A9        1.90319  -0.00005   0.00011  -0.00126  -0.00115   1.90203
   A10        1.89556   0.00019   0.00016   0.00049   0.00065   1.89620
   A11        1.90923   0.00021   0.00007   0.00095   0.00101   1.91025
   A12        1.90360  -0.00002  -0.00005  -0.00032  -0.00037   1.90323
   A13        1.87404  -0.00001  -0.00008   0.00113   0.00106   1.87510
   A14        1.89705  -0.00045  -0.00049  -0.00022  -0.00071   1.89635
   A15        1.91545  -0.00039  -0.00007  -0.00342  -0.00350   1.91195
   A16        1.92333  -0.00013  -0.00030  -0.00085  -0.00115   1.92218
   A17        1.92744   0.00052   0.00046   0.00251   0.00298   1.93042
   A18        1.92427   0.00035   0.00017   0.00234   0.00251   1.92678
   A19        1.87642   0.00009   0.00023  -0.00038  -0.00016   1.87626
   A20        1.91875  -0.00082  -0.00067  -0.00253  -0.00319   1.91556
    D1       -3.06743   0.00005  -0.00019   0.00512   0.00493  -3.06251
    D2        1.11872   0.00034  -0.00015   0.00696   0.00681   1.12553
    D3       -0.96424  -0.00020  -0.00074   0.00509   0.00435  -0.95989
    D4       -3.05640  -0.00001   0.00099  -0.01136  -0.01037  -3.06678
    D5        1.09741  -0.00004   0.00097  -0.01107  -0.01011   1.08730
    D6       -0.93965  -0.00010   0.00091  -0.01200  -0.01109  -0.95074
    D7       -0.95664   0.00014   0.00124  -0.00999  -0.00875  -0.96539
    D8       -3.08602   0.00011   0.00122  -0.00970  -0.00848  -3.09450
    D9        1.16011   0.00005   0.00116  -0.01063  -0.00947   1.15064
   D10        1.11662  -0.00014   0.00105  -0.01337  -0.01233   1.10429
   D11       -1.01276  -0.00016   0.00102  -0.01308  -0.01206  -1.02482
   D12       -3.04982  -0.00023   0.00096  -0.01401  -0.01305  -3.06286
   D13       -1.05343   0.00006  -0.00006  -0.00055  -0.00061  -1.05404
   D14        3.12021  -0.00007  -0.00028  -0.00141  -0.00169   3.11852
   D15        1.05705   0.00013  -0.00034   0.00167   0.00133   1.05838
   D16        1.07256  -0.00006  -0.00001  -0.00208  -0.00209   1.07046
   D17       -1.03699  -0.00019  -0.00023  -0.00294  -0.00317  -1.04016
   D18       -3.10014   0.00001  -0.00029   0.00013  -0.00016  -3.10031
   D19        3.11755   0.00003  -0.00009  -0.00036  -0.00045   3.11709
   D20        1.00800  -0.00010  -0.00032  -0.00122  -0.00153   1.00647
   D21       -1.05516   0.00011  -0.00037   0.00186   0.00148  -1.05368
   D22       -3.07751  -0.00013   0.00084  -0.01588  -0.01504  -3.09255
   D23       -0.97536  -0.00057   0.00072  -0.01869  -0.01797  -0.99333
   D24        1.09577   0.00009   0.00141  -0.01613  -0.01472   1.08105
         Item               Value     Threshold  Converged?
 Maximum Force            0.001254     0.000450     NO 
 RMS     Force            0.000399     0.000300     NO 
 Maximum Displacement     0.017446     0.001800     NO 
 RMS     Displacement     0.006307     0.001200     NO 
 Predicted change in Energy=-2.213645D-05
 GradGradGradGradGradGradGradGradGradGradGradGradGradGradGradGradGradGrad

                          Input orientation:                          
 ---------------------------------------------------------------------
 Center     Atomic      Atomic             Coordinates (Angstroms)
 Number     Number       Type             X           Y           Z
 ---------------------------------------------------------------------
      1          6           0        1.354958    2.281821    1.234720
      2          8           0        0.045999    2.036373    0.785932
      3          6           0        2.072893    0.944779    1.308732
      4          6           0        3.474703    1.051641    1.881379
      5          8           0        4.233605    1.900539    1.057048
      6          1           0        1.339819    2.750650    2.218315
      7          1           0        1.878404    2.948859    0.558038
      8          1           0       -0.405855    2.858802    0.662656
      9          1           0        2.120873    0.514569    0.314032
     10          1           0        1.487694    0.270107    1.927303
     11          1           0        3.924459    0.062572    1.929587
     12          1           0        3.435973    1.443814    2.897083
     13          1           0        5.123754    1.944105    1.375884
 ---------------------------------------------------------------------
                    Distance matrix (angstroms):
                    1          2          3          4          5
     1  C    0.000000
     2  O    1.405358   0.000000
     3  C    1.519404   2.360762   0.000000
     4  C    2.534725   3.731718   1.518030   0.000000
     5  O    2.909218   4.198571   2.376025   1.405732   0.000000
     6  H    1.089719   2.058127   2.150792   2.749161   3.231907
     7  H    1.084820   2.059678   2.148885   2.810488   2.625825
     8  H    1.939233   0.946445   3.197669   4.450826   4.753777
     9  H    2.134824   2.616042   1.084810   2.139598   2.633747
    10  H    2.131732   2.549688   1.086403   2.135676   3.309937
    11  H    3.465579   4.499588   2.142906   1.087594   2.057916
    12  H    2.792191   4.037327   2.151716   1.089474   2.056828
    13  H    3.786529   5.112745   3.211061   1.942006   0.946531
                    6          7          8          9         10
     6  H    0.000000
     7  H    1.756667   0.000000
     8  H    2.340758   2.288426   0.000000
     9  H    3.039144   2.458475   3.464292   0.000000
    10  H    2.501929   3.033687   3.447637   1.750235   0.000000
    11  H    3.740252   3.794488   5.308072   2.463178   2.445588
    12  H    2.561720   3.187838   4.664172   3.043869   2.472621
    13  H    3.959592   3.494381   5.649950   3.491189   4.040701
                   11         12         13
    11  H    0.000000
    12  H    1.755703   0.000000
    13  H    2.298926   2.326572   0.000000
 Stoichiometry    C3H8O2
 Framework group  C1[X(C3H8O2)]
 Deg. of freedom    33
 Full point group                 C1      NOp   1
 Largest Abelian subgroup         C1      NOp   1
 Largest concise Abelian subgroup C1      NOp   1
                         Standard orientation:                         
 ---------------------------------------------------------------------
 Center     Atomic      Atomic             Coordinates (Angstroms)
 Number     Number       Type             X           Y           Z
 ---------------------------------------------------------------------
      1          6           0        0.985416   -0.376837    0.266676
      2          8           0        2.282238   -0.029423   -0.148761
      3          6           0        0.041158    0.709223   -0.220602
      4          6           0       -1.388408    0.511713    0.250297
      5          8           0       -1.858438   -0.717848   -0.242989
      6          1           0        0.939124   -0.449857    1.352960
      7          1           0        0.691254   -1.337479   -0.142556
      8          1           0        2.884358   -0.722907    0.079909
      9          1           0        0.063863    0.736061   -1.304842
     10          1           0        0.402572    1.669528    0.136421
     11          1           0       -2.006773    1.330434   -0.110509
     12          1           0       -1.429847    0.524918    1.338903
     13          1           0       -2.763948   -0.837120    0.005498
 ---------------------------------------------------------------------
 Rotational constants (GHZ):     13.8128621      2.4528857      2.2472605
 Standard basis: 6-31G(d) (6D, 7F)
 There are    91 symmetry adapted cartesian basis functions of A   symmetry.
 There are    91 symmetry adapted basis functions of A   symmetry.
    91 basis functions,   172 primitive gaussians,    91 cartesian basis functions
    21 alpha electrons       21 beta electrons
       nuclear repulsion energy       189.5427828908 Hartrees.
 NAtoms=   13 NActive=   13 NUniq=   13 SFac= 1.00D+00 NAtFMM=   60 NAOKFM=F Big=F
 Integral buffers will be    131072 words long.
 Raffenetti 1 integral format.
 Two-electron integral symmetry is turned on.
 One-electron integrals computed using PRISM.
 NBasis=    91 RedAO= T EigKep=  3.98D-03  NBF=    91
 NBsUse=    91 1.00D-06 EigRej= -1.00D+00 NBFU=    91
 Initial guess from the checkpoint file:  "1-3-propanediol-open-opt.chk"
 B after Tr=    -0.000000   -0.000000   -0.000000
         Rot=    0.999999    0.001026    0.000093   -0.000190 Ang=   0.12 deg.
 Keep R1 ints in memory in canonical form, NReq=9679790.
 Requested convergence on RMS density matrix=1.00D-08 within 128 cycles.
 Requested convergence on MAX density matrix=1.00D-06.
 Requested convergence on             energy=1.00D-06.
 No special actions if energy rises.
 SCF Done:  E(RHF) =  -267.957521539     A.U. after    9 cycles
            NFock=  9  Conv=0.56D-08     -V/T= 2.0014
 Calling FoFJK, ICntrl=      2127 FMM=F ISym2X=0 I1Cent= 0 IOpClX= 0 NMat=1 NMatS=1 NMatT=0.
 ***** Axes restored to original set *****
 -------------------------------------------------------------------
 Center     Atomic                   Forces (Hartrees/Bohr)
 Number     Number              X              Y              Z
 -------------------------------------------------------------------
      1        6           0.000134585   -0.000013646   -0.000038641
      2        8          -0.000410870   -0.000055327   -0.000028709
      3        6           0.000054619    0.000264371    0.000203285
      4        6          -0.000075079    0.000047471    0.000006081
      5        8           0.000176735   -0.000150312   -0.000339937
      6        1           0.000029218   -0.000008603    0.000057522
      7        1           0.000094207   -0.000074264    0.000085137
      8        1           0.000053678    0.000013943   -0.000061542
      9        1          -0.000050977   -0.000030430   -0.000018456
     10        1           0.000084236   -0.000027560   -0.000067600
     11        1          -0.000042544   -0.000100360    0.000002436
     12        1          -0.000007296   -0.000062448    0.000004611
     13        1          -0.000040512    0.000197165    0.000195813
 -------------------------------------------------------------------
 Cartesian Forces:  Max     0.000410870 RMS     0.000126871

 GradGradGradGradGradGradGradGradGradGradGradGradGradGradGradGradGradGrad
 Berny optimization.
 Using GEDIIS/GDIIS optimizer.
 FormGI is forming the generalized inverse of G from B-inverse, IUseBI=4.
 Internal  Forces:  Max     0.000368740 RMS     0.000084696
 Search for a local minimum.
 Step number   4 out of a maximum of   66
 All quantities printed in internal units (Hartrees-Bohrs-Radians)
 Mixed Optimization -- En-DIIS/RFO-DIIS
 Swapping is turned off.
 Update second derivatives using D2CorX and points    1    2    3    4
 DE= -2.67D-05 DEPred=-2.21D-05 R= 1.21D+00
 TightC=F SS=  1.41D+00  RLast= 4.50D-02 DXNew= 8.4853D-01 1.3504D-01
 Trust test= 1.21D+00 RLast= 4.50D-02 DXMaxT set to 5.05D-01
 ITU=  1  1  1  0
     Eigenvalues ---    0.00400   0.00509   0.00955   0.01383   0.03637
     Eigenvalues ---    0.04988   0.05320   0.05400   0.05886   0.06004
     Eigenvalues ---    0.08457   0.11140   0.12254   0.12478   0.13664
     Eigenvalues ---    0.13842   0.15911   0.16595   0.21916   0.22002
     Eigenvalues ---    0.24546   0.30287   0.33335   0.33944   0.34229
     Eigenvalues ---    0.34245   0.34281   0.34463   0.35659   0.41100
     Eigenvalues ---    0.42501   0.52801   0.57715
 En-DIIS/RFO-DIIS IScMMF=        0 using points:     4    3
 RFO step:  Lambda=-1.50899625D-06.
 DidBck=F Rises=F RFO-DIIS coefs:    1.26230   -0.26230
 Iteration  1 RMS(Cart)=  0.00445199 RMS(Int)=  0.00003468
 Iteration  2 RMS(Cart)=  0.00003945 RMS(Int)=  0.00000095
 Iteration  3 RMS(Cart)=  0.00000000 RMS(Int)=  0.00000095
 Variable       Old X    -DE/DX   Delta X   Delta X   Delta X     New X
                                 (Linear)    (Quad)   (Total)
    R1        2.65574   0.00037  -0.00067   0.00042  -0.00026   2.65549
    R2        2.87126  -0.00008  -0.00008   0.00011   0.00003   2.87129
    R3        2.05927   0.00005   0.00046   0.00014   0.00060   2.05987
    R4        2.05001  -0.00005   0.00052  -0.00027   0.00025   2.05026
    R5        1.78852  -0.00001   0.00055  -0.00025   0.00030   1.78882
    R6        2.86866  -0.00004  -0.00029   0.00034   0.00005   2.86871
    R7        2.04999   0.00003   0.00029  -0.00004   0.00025   2.05024
    R8        2.05300  -0.00007   0.00022  -0.00024  -0.00002   2.05298
    R9        2.65645   0.00019  -0.00078   0.00016  -0.00062   2.65583
   R10        2.05526   0.00007   0.00042   0.00019   0.00061   2.05586
   R11        2.05881  -0.00002   0.00036  -0.00007   0.00029   2.05910
   R12        1.78868   0.00004   0.00053  -0.00013   0.00041   1.78909
    A1        1.87755   0.00015  -0.00010   0.00121   0.00110   1.87865
    A2        1.92884  -0.00003   0.00074  -0.00008   0.00066   1.92950
    A3        1.93651   0.00004   0.00066   0.00053   0.00120   1.93771
    A4        1.91898  -0.00004  -0.00071  -0.00015  -0.00086   1.91812
    A5        1.92141  -0.00017  -0.00039  -0.00111  -0.00150   1.91991
    A6        1.88093   0.00003  -0.00021  -0.00042  -0.00063   1.88030
    A7        1.91187  -0.00006  -0.00006   0.00013   0.00008   1.91195
    A8        1.97443   0.00005  -0.00028   0.00076   0.00047   1.97490
    A9        1.90203  -0.00003  -0.00030  -0.00012  -0.00042   1.90161
   A10        1.89620   0.00003   0.00017   0.00026   0.00043   1.89663
   A11        1.91025   0.00001   0.00027   0.00003   0.00030   1.91055
   A12        1.90323  -0.00004  -0.00010  -0.00032  -0.00042   1.90282
   A13        1.87510  -0.00002   0.00028  -0.00068  -0.00041   1.87469
   A14        1.89635   0.00012  -0.00019   0.00131   0.00112   1.89747
   A15        1.91195  -0.00002  -0.00092   0.00015  -0.00077   1.91118
   A16        1.92218  -0.00011  -0.00030  -0.00083  -0.00113   1.92105
   A17        1.93042  -0.00002   0.00078  -0.00017   0.00061   1.93103
   A18        1.92678   0.00002   0.00066   0.00016   0.00082   1.92760
   A19        1.87626   0.00001  -0.00004  -0.00065  -0.00070   1.87556
   A20        1.91556  -0.00006  -0.00084   0.00047  -0.00036   1.91519
    D1       -3.06251   0.00008   0.00129   0.00435   0.00564  -3.05686
    D2        1.12553   0.00005   0.00179   0.00384   0.00563   1.13116
    D3       -0.95989  -0.00000   0.00114   0.00408   0.00522  -0.95468
    D4       -3.06678   0.00000  -0.00272  -0.00335  -0.00607  -3.07284
    D5        1.08730  -0.00002  -0.00265  -0.00381  -0.00646   1.08084
    D6       -0.95074  -0.00000  -0.00291  -0.00308  -0.00599  -0.95673
    D7       -0.96539   0.00004  -0.00229  -0.00280  -0.00510  -0.97049
    D8       -3.09450   0.00001  -0.00223  -0.00327  -0.00549  -3.10000
    D9        1.15064   0.00004  -0.00248  -0.00253  -0.00502   1.14562
   D10        1.10429  -0.00005  -0.00323  -0.00409  -0.00732   1.09697
   D11       -1.02482  -0.00007  -0.00316  -0.00455  -0.00772  -1.03253
   D12       -3.06286  -0.00005  -0.00342  -0.00382  -0.00724  -3.07010
   D13       -1.05404   0.00000  -0.00016  -0.00349  -0.00365  -1.05769
   D14        3.11852  -0.00004  -0.00044  -0.00418  -0.00462   3.11390
   D15        1.05838   0.00003   0.00035  -0.00298  -0.00263   1.05575
   D16        1.07046   0.00001  -0.00055  -0.00311  -0.00366   1.06681
   D17       -1.04016  -0.00003  -0.00083  -0.00380  -0.00463  -1.04479
   D18       -3.10031   0.00003  -0.00004  -0.00259  -0.00264  -3.10294
   D19        3.11709  -0.00004  -0.00012  -0.00410  -0.00422   3.11288
   D20        1.00647  -0.00008  -0.00040  -0.00479  -0.00519   1.00128
   D21       -1.05368  -0.00001   0.00039  -0.00358  -0.00320  -1.05687
   D22       -3.09255  -0.00019  -0.00395  -0.01458  -0.01853  -3.11108
   D23       -0.99333  -0.00015  -0.00471  -0.01368  -0.01839  -1.01173
   D24        1.08105  -0.00013  -0.00386  -0.01449  -0.01835   1.06270
         Item               Value     Threshold  Converged?
 Maximum Force            0.000369     0.000450     YES
 RMS     Force            0.000085     0.000300     YES
 Maximum Displacement     0.012934     0.001800     NO 
 RMS     Displacement     0.004457     0.001200     NO 
 Predicted change in Energy=-5.844101D-06
 GradGradGradGradGradGradGradGradGradGradGradGradGradGradGradGradGradGrad

                          Input orientation:                          
 ---------------------------------------------------------------------
 Center     Atomic      Atomic             Coordinates (Angstroms)
 Number     Number       Type             X           Y           Z
 ---------------------------------------------------------------------
      1          6           0        1.353873    2.281137    1.236884
      2          8           0        0.046215    2.037545    0.783736
      3          6           0        2.072385    0.944329    1.309813
      4          6           0        3.475623    1.051162    1.879027
      5          8           0        4.235081    1.895486    1.051078
      6          1           0        1.336852    2.747441    2.221996
      7          1           0        1.880807    2.949466    0.563979
      8          1           0       -0.403429    2.860784    0.656625
      9          1           0        2.117570    0.513802    0.314977
     10          1           0        1.489133    0.269410    1.929935
     11          1           0        3.923059    0.060853    1.930495
     12          1           0        3.438383    1.446264    2.893814
     13          1           0        5.121728    1.950949    1.378350
 ---------------------------------------------------------------------
                    Distance matrix (angstroms):
                    1          2          3          4          5
     1  C    0.000000
     2  O    1.405223   0.000000
     3  C    1.519420   2.361619   0.000000
     4  C    2.535155   3.732755   1.518056   0.000000
     5  O    2.912835   4.199792   2.376741   1.405403   0.000000
     6  H    1.090034   2.058711   2.150419   2.751242   3.239847
     7  H    1.084953   2.060490   2.147917   2.806483   2.625023
     8  H    1.939279   0.946604   3.198299   4.451522   4.754279
     9  H    2.134624   2.613816   1.084939   2.139934   2.633391
    10  H    2.132055   2.553837   1.086392   2.135385   3.310097
    11  H    3.465757   4.500254   2.142607   1.087915   2.058303
    12  H    2.790629   4.038422   2.151034   1.089626   2.057233
    13  H    3.784940   5.110959   3.211927   1.941637   0.946745
                    6          7          8          9         10
     6  H    0.000000
     7  H    1.756623   0.000000
     8  H    2.343462   2.287833   0.000000
     9  H    3.038978   2.459780   3.461283   0.000000
    10  H    2.499825   3.033470   3.452293   1.750071   0.000000
    11  H    3.740480   3.792393   5.308564   2.464722   2.442844
    12  H    2.561412   3.180219   4.665341   3.043753   2.472574
    13  H    3.958715   3.487665   5.645888   3.495872   4.040738
                   11         12         13
    11  H    0.000000
    12  H    1.755635   0.000000
    13  H    2.305241   2.320558   0.000000
 Stoichiometry    C3H8O2
 Framework group  C1[X(C3H8O2)]
 Deg. of freedom    33
 Full point group                 C1      NOp   1
 Largest Abelian subgroup         C1      NOp   1
 Largest concise Abelian subgroup C1      NOp   1
                         Standard orientation:                         
 ---------------------------------------------------------------------
 Center     Atomic      Atomic             Coordinates (Angstroms)
 Number     Number       Type             X           Y           Z
 ---------------------------------------------------------------------
      1          6           0        0.986593   -0.374430    0.270000
      2          8           0        2.282589   -0.031052   -0.150877
      3          6           0        0.041096    0.709334   -0.220027
      4          6           0       -1.388859    0.510901    0.249385
      5          8           0       -1.859672   -0.717314   -0.245572
      6          1           0        0.942489   -0.441559    1.357071
      7          1           0        0.688725   -1.336767   -0.132872
      8          1           0        2.883741   -0.726323    0.075562
      9          1           0        0.065487    0.734370   -1.304403
     10          1           0        0.400289    1.671009    0.135514
     11          1           0       -2.006310    1.331288   -0.110167
     12          1           0       -1.430113    0.523446    1.338157
     13          1           0       -2.760626   -0.843356    0.016577
 ---------------------------------------------------------------------
 Rotational constants (GHZ):     13.8065718      2.4509142      2.2463625
 Standard basis: 6-31G(d) (6D, 7F)
 There are    91 symmetry adapted cartesian basis functions of A   symmetry.
 There are    91 symmetry adapted basis functions of A   symmetry.
    91 basis functions,   172 primitive gaussians,    91 cartesian basis functions
    21 alpha electrons       21 beta electrons
       nuclear repulsion energy       189.5174992517 Hartrees.
 NAtoms=   13 NActive=   13 NUniq=   13 SFac= 1.00D+00 NAtFMM=   60 NAOKFM=F Big=F
 Integral buffers will be    131072 words long.
 Raffenetti 1 integral format.
 Two-electron integral symmetry is turned on.
 One-electron integrals computed using PRISM.
 NBasis=    91 RedAO= T EigKep=  3.98D-03  NBF=    91
 NBsUse=    91 1.00D-06 EigRej= -1.00D+00 NBFU=    91
 Initial guess from the checkpoint file:  "1-3-propanediol-open-opt.chk"
 B after Tr=     0.000000   -0.000000    0.000000
         Rot=    1.000000    0.000576   -0.000046    0.000001 Ang=   0.07 deg.
 Keep R1 ints in memory in canonical form, NReq=9679790.
 Requested convergence on RMS density matrix=1.00D-08 within 128 cycles.
 Requested convergence on MAX density matrix=1.00D-06.
 Requested convergence on             energy=1.00D-06.
 No special actions if energy rises.
 SCF Done:  E(RHF) =  -267.957529524     A.U. after    9 cycles
            NFock=  9  Conv=0.44D-08     -V/T= 2.0014
 Calling FoFJK, ICntrl=      2127 FMM=F ISym2X=0 I1Cent= 0 IOpClX= 0 NMat=1 NMatS=1 NMatT=0.
 ***** Axes restored to original set *****
 -------------------------------------------------------------------
 Center     Atomic                   Forces (Hartrees/Bohr)
 Number     Number              X              Y              Z
 -------------------------------------------------------------------
      1        6           0.000571533    0.000154483    0.000207607
      2        8          -0.000375786    0.000084076   -0.000052731
      3        6          -0.000109943    0.000153962   -0.000061700
      4        6          -0.000276024   -0.000309327    0.000375853
      5        8           0.000375669   -0.000009144   -0.000229017
      6        1          -0.000097542   -0.000052546   -0.000127321
      7        1          -0.000130136   -0.000069931    0.000021430
      8        1           0.000145652   -0.000146476    0.000000503
      9        1          -0.000000100   -0.000000813    0.000050259
     10        1           0.000069712   -0.000044609   -0.000057066
     11        1          -0.000020976    0.000123044   -0.000068205
     12        1           0.000082291   -0.000005613   -0.000091248
     13        1          -0.000234350    0.000122893    0.000031637
 -------------------------------------------------------------------
 Cartesian Forces:  Max     0.000571533 RMS     0.000182822

 GradGradGradGradGradGradGradGradGradGradGradGradGradGradGradGradGradGrad
 Berny optimization.
 Using GEDIIS/GDIIS optimizer.
 FormGI is forming the generalized inverse of G from B-inverse, IUseBI=4.
 GSVD:  received Info=                   1 from GESDD.
 Internal  Forces:  Max     0.000260985 RMS     0.000081640
 Search for a local minimum.
 Step number   5 out of a maximum of   66
 All quantities printed in internal units (Hartrees-Bohrs-Radians)
 Mixed Optimization -- En-DIIS/RFO-DIIS
[...]
   A19        1.87606   0.00000  -0.00000  -0.00001  -0.00002   1.87604
   A20        1.91502  -0.00000  -0.00001   0.00002   0.00001   1.91503
    D1       -3.04805   0.00000  -0.00004   0.00013   0.00009  -3.04796
    D2        1.13964   0.00000  -0.00002   0.00012   0.00009   1.13973
    D3       -0.94600  -0.00000  -0.00002   0.00011   0.00009  -0.94591
    D4       -3.07050   0.00000   0.00016   0.00009   0.00025  -3.07025
    D5        1.08343   0.00000   0.00015   0.00006   0.00020   1.08363
    D6       -0.95397   0.00000   0.00014   0.00007   0.00021  -0.95376
    D7       -0.96889   0.00000   0.00017   0.00009   0.00026  -0.96864
    D8       -3.09815   0.00000   0.00015   0.00006   0.00021  -3.09794
    D9        1.14764   0.00000   0.00014   0.00008   0.00022   1.14786
   D10        1.10001   0.00000   0.00016   0.00007   0.00022   1.10023
   D11       -1.02925  -0.00000   0.00014   0.00003   0.00017  -1.02907
   D12       -3.06664  -0.00000   0.00013   0.00005   0.00018  -3.06646
   D13       -1.06103  -0.00000   0.00011   0.00002   0.00013  -1.06090
   D14        3.11150  -0.00000   0.00011   0.00002   0.00013   3.11164
   D15        1.05197   0.00000   0.00012   0.00007   0.00019   1.05215
   D16        1.06346  -0.00000   0.00013   0.00005   0.00018   1.06364
   D17       -1.04719  -0.00000   0.00013   0.00005   0.00018  -1.04701
   D18       -3.10673   0.00000   0.00014   0.00010   0.00024  -3.10649
   D19        3.10867  -0.00000   0.00014   0.00004   0.00019   3.10885
   D20        0.99801  -0.00000   0.00014   0.00005   0.00019   0.99821
   D21       -1.06152   0.00000   0.00015   0.00009   0.00025  -1.06128
   D22        3.14038   0.00000   0.00016  -0.00005   0.00012   3.14050
   D23       -1.04346  -0.00000   0.00015  -0.00005   0.00009  -1.04336
   D24        1.03091   0.00000   0.00016  -0.00006   0.00010   1.03101
         Item               Value     Threshold  Converged?
 Maximum Force            0.000013     0.000450     YES
 RMS     Force            0.000003     0.000300     YES
 Maximum Displacement     0.000461     0.001800     YES
 RMS     Displacement     0.000147     0.001200     YES
 Predicted change in Energy=-2.400936D-09
 Optimization completed.
    -- Stationary point found.
                           ----------------------------
                           !   Optimized Parameters   !
                           ! (Angstroms and Degrees)  !
 --------------------------                            --------------------------
 ! Name  Definition              Value          Derivative Info.                !
 --------------------------------------------------------------------------------
 ! R1    R(1,2)                  1.4057         -DE/DX =    0.0                 !
 ! R2    R(1,3)                  1.5192         -DE/DX =    0.0                 !
 ! R3    R(1,6)                  1.0898         -DE/DX =    0.0                 !
 ! R4    R(1,7)                  1.0847         -DE/DX =    0.0                 !
 ! R5    R(2,8)                  0.9464         -DE/DX =    0.0                 !
 ! R6    R(3,4)                  1.5179         -DE/DX =    0.0                 !
 ! R7    R(3,9)                  1.0849         -DE/DX =    0.0                 !
 ! R8    R(3,10)                 1.0863         -DE/DX =    0.0                 !
 ! R9    R(4,5)                  1.4059         -DE/DX =    0.0                 !
 ! R10   R(4,11)                 1.0877         -DE/DX =    0.0                 !
 ! R11   R(4,12)                 1.0894         -DE/DX =    0.0                 !
 ! R12   R(5,13)                 0.9466         -DE/DX =    0.0                 !
 ! A1    A(2,1,3)              107.6293         -DE/DX =    0.0                 !
 ! A2    A(2,1,6)              110.4997         -DE/DX =    0.0                 !
 ! A3    A(2,1,7)              110.9868         -DE/DX =    0.0                 !
 ! A4    A(3,1,6)              109.9462         -DE/DX =    0.0                 !
 ! A5    A(3,1,7)              110.0184         -DE/DX =    0.0                 !
 ! A6    A(6,1,7)              107.7697         -DE/DX =    0.0                 !
 ! A7    A(1,2,8)              109.5183         -DE/DX =    0.0                 !
 ! A8    A(1,3,4)              113.1519         -DE/DX =    0.0                 !
 ! A9    A(1,3,9)              108.9639         -DE/DX =    0.0                 !
 ! A10   A(1,3,10)             108.711          -DE/DX =    0.0                 !
 ! A11   A(4,3,9)              109.4505         -DE/DX =    0.0                 !
 ! A12   A(4,3,10)             109.02           -DE/DX =    0.0                 !
 ! A13   A(9,3,10)             107.3797         -DE/DX =    0.0                 !
 ! A14   A(3,4,5)              108.6775         -DE/DX =    0.0                 !
 ! A15   A(3,4,11)             109.5451         -DE/DX =    0.0                 !
 ! A16   A(3,4,12)             110.0996         -DE/DX =    0.0                 !
 ! A17   A(5,4,11)             110.5943         -DE/DX =    0.0                 !
 ! A18   A(5,4,12)             110.4275         -DE/DX =    0.0                 !
 ! A19   A(11,4,12)            107.4903         -DE/DX =    0.0                 !
 ! A20   A(4,5,13)             109.7227         -DE/DX =    0.0                 !
 ! D1    D(3,1,2,8)           -174.6402         -DE/DX =    0.0                 !
 ! D2    D(6,1,2,8)             65.2963         -DE/DX =    0.0                 !
 ! D3    D(7,1,2,8)            -54.2018         -DE/DX =    0.0                 !
 ! D4    D(2,1,3,4)           -175.9269         -DE/DX =    0.0                 !
 ! D5    D(2,1,3,9)             62.0759         -DE/DX =    0.0                 !
 ! D6    D(2,1,3,10)           -54.6584         -DE/DX =    0.0                 !
 ! D7    D(6,1,3,4)            -55.5136         -DE/DX =    0.0                 !
 ! D8    D(6,1,3,9)           -177.5108         -DE/DX =    0.0                 !
 ! D9    D(6,1,3,10)            65.7549         -DE/DX =    0.0                 !
 ! D10   D(7,1,3,4)             63.0258         -DE/DX =    0.0                 !
 ! D11   D(7,1,3,9)            -58.9714         -DE/DX =    0.0                 !
 ! D12   D(7,1,3,10)          -175.7057         -DE/DX =    0.0                 !
 ! D13   D(1,3,4,5)            -60.7925         -DE/DX =    0.0                 !
 ! D14   D(1,3,4,11)           178.276          -DE/DX =    0.0                 !
 ! D15   D(1,3,4,12)            60.2732         -DE/DX =    0.0                 !
 ! D16   D(9,3,4,5)             60.9319         -DE/DX =    0.0                 !
 ! D17   D(9,3,4,11)           -59.9996         -DE/DX =    0.0                 !
 ! D18   D(9,3,4,12)          -178.0023         -DE/DX =    0.0                 !
 ! D19   D(10,3,4,5)           178.1134         -DE/DX =    0.0                 !
 ! D20   D(10,3,4,11)           57.1819         -DE/DX =    0.0                 !
 ! D21   D(10,3,4,12)          -60.8208         -DE/DX =    0.0                 !
 ! D22   D(3,4,5,13)           179.9308         -DE/DX =    0.0                 !
 ! D23   D(11,4,5,13)          -59.7857         -DE/DX =    0.0                 !
 ! D24   D(12,4,5,13)           59.0668         -DE/DX =    0.0                 !
 --------------------------------------------------------------------------------
 GradGradGradGradGradGradGradGradGradGradGradGradGradGradGradGradGradGrad

                          Input orientation:                          
 ---------------------------------------------------------------------
 Center     Atomic      Atomic             Coordinates (Angstroms)
 Number     Number       Type             X           Y           Z
 ---------------------------------------------------------------------
      1          6           0        1.355237    2.280944    1.237587
      2          8           0        0.045414    2.038589    0.788412
      3          6           0        2.071836    0.943317    1.309602
      4          6           0        3.475619    1.048123    1.877465
      5          8           0        4.236219    1.888460    1.045627
      6          1           0        1.340784    2.748429    2.221918
      7          1           0        1.880459    2.947684    0.562124
      8          1           0       -0.400508    2.862579    0.654541
      9          1           0        2.115793    0.512895    0.314735
     10          1           0        1.488577    0.268442    1.929659
     11          1           0        3.921438    0.057415    1.930924
     12          1           0        3.440773    1.446604    2.890810
     13          1           0        5.115638    1.965149    1.387306
 ---------------------------------------------------------------------
                    Distance matrix (angstroms):
                    1          2          3          4          5
     1  C    0.000000
     2  O    1.405750   0.000000
     3  C    1.519193   2.361704   0.000000
     4  C    2.534820   3.732743   1.517913   0.000000
     5  O    2.913923   4.201374   2.376454   1.405928   0.000000
     6  H    1.089797   2.058348   2.150625   2.750856   3.241412
     7  H    1.084735   2.060353   2.147752   2.807666   2.627800
     8  H    1.939300   0.946429   3.197681   4.451085   4.754061
     9  H    2.134502   2.615068   1.084876   2.139561   2.631081
    10  H    2.132348   2.553152   1.086332   2.135173   3.309911
    11  H    3.465571   4.500438   2.142869   1.087710   2.058049
    12  H    2.789038   4.037201   2.151163   1.089435   2.057346
    13  H    3.776606   5.106000   3.211683   1.941869   0.946575
                    6          7          8          9         10
     6  H    0.000000
     7  H    1.756664   0.000000
     8  H    2.345591   2.284425   0.000000
     9  H    3.039013   2.458614   3.459517   0.000000
    10  H    2.501519   3.033490   3.453132   1.749611   0.000000
    11  H    3.739787   3.793792   5.308231   2.465741   2.441996
    12  H    2.559711   3.179717   4.664904   3.043608   2.474459
    13  H    3.944569   3.480328   5.636505   3.501217   4.040858
                   11         12         13
    11  H    0.000000
    12  H    1.755638   0.000000
    13  H    2.315402   2.309672   0.000000
 Stoichiometry    C3H8O2
 Framework group  C1[X(C3H8O2)]
 Deg. of freedom    33
 Full point group                 C1      NOp   1
 Largest Abelian subgroup         C1      NOp   1
 Largest concise Abelian subgroup C1      NOp   1
                         Standard orientation:                         
 ---------------------------------------------------------------------
 Center     Atomic      Atomic             Coordinates (Angstroms)
 Number     Number       Type             X           Y           Z
 ---------------------------------------------------------------------
      1          6           0        0.986143   -0.374941    0.269807
      2          8           0        2.283012   -0.030431   -0.149212
      3          6           0        0.041156    0.708955   -0.220212
      4          6           0       -1.388593    0.511367    0.249719
      5          8           0       -1.860957   -0.715359   -0.248929
      6          1           0        0.941763   -0.443403    1.356545
      7          1           0        0.689771   -1.336736   -0.134872
      8          1           0        2.882348   -0.729220    0.070374
      9          1           0        0.064885    0.733567   -1.304549
     10          1           0        0.400547    1.670929    0.134138
     11          1           0       -2.005818    1.332703   -0.107427
     12          1           0       -1.429502    0.520387    1.338349
     13          1           0       -2.752670   -0.854196    0.036685
 ---------------------------------------------------------------------
 Rotational constants (GHZ):     13.8058739      2.4503241      2.2462038

 **********************************************************************

            Population analysis using the SCF density.

 **********************************************************************

 Orbital symmetries:
       Occupied  (A) (A) (A) (A) (A) (A) (A) (A) (A) (A) (A) (A)
                 (A) (A) (A) (A) (A) (A) (A) (A) (A)
       Virtual   (A) (A) (A) (A) (A) (A) (A) (A) (A) (A) (A) (A)
                 (A) (A) (A) (A) (A) (A) (A) (A) (A) (A) (A) (A)
                 (A) (A) (A) (A) (A) (A) (A) (A) (A) (A) (A) (A)
                 (A) (A) (A) (A) (A) (A) (A) (A) (A) (A) (A) (A)
                 (A) (A) (A) (A) (A) (A) (A) (A) (A) (A) (A) (A)
                 (A) (A) (A) (A) (A) (A) (A) (A) (A) (A)
 The electronic state is 1-A.
 Alpha  occ. eigenvalues --  -20.55812 -20.54894 -11.27331 -11.26243 -11.21212
 Alpha  occ. eigenvalues --   -1.36517  -1.35505  -1.04364  -0.90805  -0.80090
 Alpha  occ. eigenvalues --   -0.71366  -0.68839  -0.65041  -0.62368  -0.56449
 Alpha  occ. eigenvalues --   -0.55228  -0.51579  -0.49143  -0.47262  -0.43744
 Alpha  occ. eigenvalues --   -0.42986
 Alpha virt. eigenvalues --    0.22120   0.23469   0.26832   0.29821   0.31211
 Alpha virt. eigenvalues --    0.32363   0.34149   0.36982   0.39403   0.41518
 Alpha virt. eigenvalues --    0.43542   0.46543   0.74035   0.76183   0.79152
 Alpha virt. eigenvalues --    0.80961   0.82326   0.90781   0.95796   0.96765
 Alpha virt. eigenvalues --    1.00572   1.08474   1.12535   1.12628   1.13176
 Alpha virt. eigenvalues --    1.14512   1.19703   1.20647   1.21339   1.23797
 Alpha virt. eigenvalues --    1.28459   1.29649   1.30801   1.32342   1.47008
 Alpha virt. eigenvalues --    1.50273   1.57626   1.67796   1.69831   1.73374
 Alpha virt. eigenvalues --    1.86770   1.90113   1.98319   2.02485   2.04606
 Alpha virt. eigenvalues --    2.06719   2.16581   2.23980   2.26209   2.29619
 Alpha virt. eigenvalues --    2.39739   2.43654   2.49259   2.54523   2.67392
 Alpha virt. eigenvalues --    2.68936   2.74291   2.77699   2.80366   2.84305
 Alpha virt. eigenvalues --    2.89597   2.98624   3.09493   3.20123   3.27818
 Alpha virt. eigenvalues --    4.16860   4.20840   4.61421   4.76761   4.93478
          Condensed to atoms (all electrons):
               1          2          3          4          5          6
     1  C    4.763582   0.216038   0.354479  -0.048635   0.002148   0.398242
     2  O    0.216038   8.395473  -0.055246   0.002249   0.000008  -0.041203
     3  C    0.354479  -0.055246   5.137892   0.342645  -0.060878  -0.051795
     4  C   -0.048635   0.002249   0.342645   4.800778   0.205091   0.001414
     5  O    0.002148   0.000008  -0.060878   0.205091   8.403601  -0.000016
     6  H    0.398242  -0.041203  -0.051795   0.001414  -0.000016   0.609262
     7  H    0.403581  -0.038153  -0.040014  -0.002456   0.004235  -0.045936
     8  H   -0.023783   0.262726   0.006134  -0.000215   0.000006  -0.002559
     9  H   -0.038958   0.002438   0.389450  -0.033399   0.001583   0.004957
    10  H   -0.037706   0.002019   0.390901  -0.037801   0.002648  -0.004473
    11  H    0.005263  -0.000037  -0.043484   0.406557  -0.038111  -0.000105
    12  H   -0.008070  -0.000041  -0.042738   0.396284  -0.042006   0.003233
    13  H   -0.000074   0.000001   0.006014  -0.021884   0.262127  -0.000033
               7          8          9         10         11         12
     1  C    0.403581  -0.023783  -0.038958  -0.037706   0.005263  -0.008070
     2  O   -0.038153   0.262726   0.002438   0.002019  -0.000037  -0.000041
     3  C   -0.040014   0.006134   0.389450   0.390901  -0.043484  -0.042738
     4  C   -0.002456  -0.000215  -0.033399  -0.037801   0.406557   0.396284
     5  O    0.004235   0.000006   0.001583   0.002648  -0.038111  -0.042006
     6  H   -0.045936  -0.002559   0.004957  -0.004473  -0.000105   0.003233
     7  H    0.555351  -0.003762  -0.004412   0.004741  -0.000050   0.000396
     8  H   -0.003762   0.323906  -0.000188  -0.000137   0.000004  -0.000003
     9  H   -0.004412  -0.000188   0.519181  -0.025417  -0.005068   0.004939
    10  H    0.004741  -0.000137  -0.025417   0.534773  -0.001411   0.000035
    11  H   -0.000050   0.000004  -0.005068  -0.001411   0.577757  -0.046708
    12  H    0.000396  -0.000003   0.004939   0.000035  -0.046708   0.600829
    13  H   -0.000111  -0.000000  -0.000153  -0.000168  -0.003064  -0.003532
              13
     1  C   -0.000074
     2  O    0.000001
     3  C    0.006014
     4  C   -0.021884
     5  O    0.262127
     6  H   -0.000033
     7  H   -0.000111
     8  H   -0.000000
     9  H   -0.000153
    10  H   -0.000168
    11  H   -0.003064
    12  H   -0.003532
    13  H    0.320431
 Mulliken charges:
               1
     1  C    0.013891
     2  O   -0.746272
     3  C   -0.333361
     4  C   -0.010628
     5  O   -0.740436
     6  H    0.129012
     7  H    0.166591
     8  H    0.437871
     9  H    0.185048
    10  H    0.171997
    11  H    0.148457
    12  H    0.137382
    13  H    0.440447
 Sum of Mulliken charges =  -0.00000
 Mulliken charges with hydrogens summed into heavy atoms:
               1
     1  C    0.309494
     2  O   -0.308400
     3  C    0.023684
     4  C    0.275211
     5  O   -0.299989
 Electronic spatial extent (au):  <R**2>=            550.0289
 Charge=             -0.0000 electrons
 Dipole moment (field-independent basis, Debye):
    X=             -1.4276    Y=             -0.4704    Z=              1.6819  Tot=              2.2557
 Quadrupole moment (field-independent basis, Debye-Ang):
   XX=            -25.5132   YY=            -30.7694   ZZ=            -32.1614
   XY=             -4.7876   XZ=             -0.1665   YZ=             -0.8304
 Traceless Quadrupole moment (field-independent basis, Debye-Ang):
   XX=              3.9681   YY=             -1.2881   ZZ=             -2.6800
   XY=             -4.7876   XZ=             -0.1665   YZ=             -0.8304
 Octapole moment (field-independent basis, Debye-Ang**2):
  XXX=            -14.3809  YYY=             -3.9315  ZZZ=             -0.6672  XYY=              2.9210
  XXY=            -18.0607  XXZ=              7.9600  XZZ=              0.5105  YZZ=             -0.7976
  YYZ=              0.1373  XYZ=              1.1425
 Hexadecapole moment (field-independent basis, Debye-Ang**3):
 XXXX=           -357.5928 YYYY=           -107.8180 ZZZZ=            -60.1890 XXXY=            -14.2523
 XXXZ=              2.8060 YYYX=              1.3675 YYYZ=              1.1940 ZZZX=              0.1116
 ZZZY=             -0.2762 XXYY=            -84.8426 XXZZ=            -95.1601 YYZZ=            -29.4231
 XXYZ=             -4.5733 YYXZ=              0.0042 ZZXY=              0.4961
 N-N= 1.895108184156D+02 E-N=-1.009595477885D+03  KE= 2.675943059307D+02
 1\1\GINC-GTX1080DELTA\FOpt\RHF\6-31G(d)\C3H8O2\MVEROT\17-Apr-2022\0\\#
  hf/6-31G* opt\\Optimisation de geometrie\\0,1\C,1.3552371455,2.280944
 3327,1.2375869263\O,0.045413837,2.0385885493,0.7884118377\C,2.07183629
 47,0.9433167295,1.3096022244\C,3.4756191918,1.0481229072,1.8774652675\
 O,4.2362190893,1.8884601406,1.0456266963\H,1.3407841278,2.7484291591,2
 .2219177291\H,1.8804592661,2.9476839339,0.5621236392\H,-0.4005080847,2
 .8625793804,0.6545412653\H,2.1157930984,0.5128948704,0.31473495\H,1.48
 85773572,0.2684418349,1.9296591747\H,3.9214376049,0.0574149878,1.93092
 39271\H,3.4407732898,1.446603823,2.8908099311\H,5.1156377821,1.9651493
 512,1.3873064314\\Version=AM64L-G09RevD.01\State=1-A\HF=-267.9575355\R
 MSD=6.061e-09\RMSF=6.168e-06\Dipole=0.5430344,0.3201202,0.6246808\Quad
 rupole=1.1977214,0.5694289,-1.7671502,-3.5953541,1.9893704,-0.7325305\
 PG=C01 [X(C3H8O2)]\\@


 LAW OF COMPENSATION:
      NO CALCULATION IS EVER A COMPLETE FAILURE; IT 
      CAN ALWAYS SERVE AS A BAD EXAMPLE.

                                           -- ANON
 Job cpu time:       0 days  0 hours  0 minutes 20.3 seconds.
 File lengths (MBytes):  RWF=    132 Int=      0 D2E=      0 Chk=      3 Scr=      2
 Normal termination of Gaussian 09 at Sun Apr 17 23:37:56 2022.
