 Entering Gaussian System, Link 0=g09
 Input=/scratch/mverot/anthracene-1-8-opt/anthracene-1-8-opt.com
 Output=/scratch/mverot/anthracene-1-8-opt/anthracene-1-8-opt.log
 Initial command:
 /opt/g09/l1.exe "/scratch/mverot/anthracene-1-8-opt/Gau-2835376.inp" -scrdir="/scratch/mverot/anthracene-1-8-opt/"
 Entering Link 1 = /opt/g09/l1.exe PID=   2835378.
  
 Copyright (c) 1988,1990,1992,1993,1995,1998,2003,2009,2013,
            Gaussian, Inc.  All Rights Reserved.
  
 This is part of the Gaussian(R) 09 program.  It is based on
 the Gaussian(R) 03 system (copyright 2003, Gaussian, Inc.),
 the Gaussian(R) 98 system (copyright 1998, Gaussian, Inc.),
 the Gaussian(R) 94 system (copyright 1995, Gaussian, Inc.),
 the Gaussian 92(TM) system (copyright 1992, Gaussian, Inc.),
 the Gaussian 90(TM) system (copyright 1990, Gaussian, Inc.),
 the Gaussian 88(TM) system (copyright 1988, Gaussian, Inc.),
 the Gaussian 86(TM) system (copyright 1986, Carnegie Mellon
 University), and the Gaussian 82(TM) system (copyright 1983,
 Carnegie Mellon University). Gaussian is a federally registered
 trademark of Gaussian, Inc.
  
 This software contains proprietary and confidential information,
 including trade secrets, belonging to Gaussian, Inc.
  
 This software is provided under written license and may be
 used, copied, transmitted, or stored only in accord with that
 written license.
  
 The following legend is applicable only to US Government
 contracts under FAR:
  
                    RESTRICTED RIGHTS LEGEND
  
 Use, reproduction and disclosure by the US Government is
 subject to restrictions as set forth in subparagraphs (a)
 and (c) of the Commercial Computer Software - Restricted
 Rights clause in FAR 52.227-19.
  
 Gaussian, Inc.
 340 Quinnipiac St., Bldg. 40, Wallingford CT 06492
  
  
 ---------------------------------------------------------------
 Warning -- This program may not be used in any manner that
 competes with the business of Gaussian, Inc. or will provide
 assistance to any competitor of Gaussian, Inc.  The licensee
 of this program is prohibited from giving any competitor of
 Gaussian, Inc. access to this program.  By using this program,
 the user acknowledges that Gaussian, Inc. is engaged in the
 business of creating and licensing software in the field of
 computational chemistry and represents and warrants to the
 licensee that it is not a competitor of Gaussian, Inc. and that
 it will not use this program in any manner prohibited above.
 ---------------------------------------------------------------
  

 Cite this work as:
 Gaussian 09, Revision D.01,
 M. J. Frisch, G. W. Trucks, H. B. Schlegel, G. E. Scuseria, 
 M. A. Robb, J. R. Cheeseman, G. Scalmani, V. Barone, B. Mennucci, 
 G. A. Petersson, H. Nakatsuji, M. Caricato, X. Li, H. P. Hratchian, 
 A. F. Izmaylov, J. Bloino, G. Zheng, J. L. Sonnenberg, M. Hada, 
 M. Ehara, K. Toyota, R. Fukuda, J. Hasegawa, M. Ishida, T. Nakajima, 
 Y. Honda, O. Kitao, H. Nakai, T. Vreven, J. A. Montgomery, Jr., 
 J. E. Peralta, F. Ogliaro, M. Bearpark, J. J. Heyd, E. Brothers, 
 K. N. Kudin, V. N. Staroverov, T. Keith, R. Kobayashi, J. Normand, 
 K. Raghavachari, A. Rendell, J. C. Burant, S. S. Iyengar, J. Tomasi, 
 M. Cossi, N. Rega, J. M. Millam, M. Klene, J. E. Knox, J. B. Cross, 
 V. Bakken, C. Adamo, J. Jaramillo, R. Gomperts, R. E. Stratmann, 
 O. Yazyev, A. J. Austin, R. Cammi, C. Pomelli, J. W. Ochterski, 
 R. L. Martin, K. Morokuma, V. G. Zakrzewski, G. A. Voth, 
 P. Salvador, J. J. Dannenberg, S. Dapprich, A. D. Daniels, 
 O. Farkas, J. B. Foresman, J. V. Ortiz, J. Cioslowski, 
 and D. J. Fox, Gaussian, Inc., Wallingford CT, 2013.
 
 ******************************************
 Gaussian 09:  AM64L-G09RevD.01 24-Apr-2013
                12-Apr-2022 
 ******************************************
 %chk=anthracene-1-8-opt
 ----------
 #n AM1 Opt
 ----------
 1/14=-1,18=20,19=15,26=1,38=1/1,3;
 2/9=110,12=2,17=6,18=5,40=1/2;
 3/5=2,16=1,25=1,41=700000,71=1/1,2,3;
 4/35=1/1;
 5/5=2,35=1,38=5/2;
 6/7=2,8=2,9=2,10=2,28=1/1;
 7//1,2,3,16;
 1/14=-1,18=20,19=15,26=1/3(2);
 2/9=110/2;
 99//99;
 2/9=110/2;
 3/5=2,16=1,25=1,41=700000,71=1,135=20/1,2,3;
 4/5=5,16=3,35=1/1;
 5/5=2,35=1,38=5/2;
 7//1,2,3,16;
 1/14=-1,18=20,19=15,26=1/3(-5);
 2/9=110/2;
 6/7=2,8=2,9=2,10=2,19=2,28=1/1;
 99/9=1/99;
 ---------------------
 Geometry optimization
 ---------------------
 Symbolic Z-matrix:
 Charge =  0 Multiplicity = 1
 C                    -0.00559   1.43267   0.00028 
 C                     1.27255   0.69724   0.00016 
 C                    -1.28311   0.69617   0.00011 
 O                    -0.00611   2.66303   0.00053 
 C                    -0.00439  -1.4438   -0.00035 
 C                    -1.2791   -0.69853  -0.00019 
 O                    -0.00388  -2.66901  -0.00064 
 C                     1.2697   -0.69746  -0.00015 
 C                     2.49602   1.38062   0.00036 
 C                    -2.48929  -1.40673  -0.00034 
 C                     2.48048  -1.40465  -0.00027 
 C                    -2.50716   1.37852   0.00025 
 C                     3.69994   0.6789    0.00024 
 C                     3.6933   -0.71501  -0.00007 
 C                    -3.71049   0.6758    0.0001 
 C                    -3.70269  -0.7181   -0.0002 
 H                     2.48292  -2.49382  -0.00051 
 H                     4.64299   1.22075   0.0004 
 H                     4.6327   -1.26345  -0.00016 
 H                    -4.64162  -1.26733  -0.00031 
 H                    -4.654     1.21686   0.00021 
 N                     2.5927    2.74594   0.00067 
 H                    -2.49082  -2.4959   -0.00057 
 N                    -2.60498   2.74377   0.00053 
 H                     1.777     3.29718   0.00077 
 H                     3.47794   3.17674   0.00079 
 H                    -3.49058   3.17383   0.00062 
 H                    -1.78974   3.29569   0.00064 
 

 GradGradGradGradGradGradGradGradGradGradGradGradGradGradGradGradGradGrad
 Berny optimization.
 Initialization pass.
                           ----------------------------
                           !    Initial Parameters    !
                           ! (Angstroms and Degrees)  !
 --------------------------                            --------------------------
 ! Name  Definition              Value          Derivative Info.                !
 --------------------------------------------------------------------------------
 ! R1    R(1,2)                  1.4746         estimate D2E/DX2                !
 ! R2    R(1,3)                  1.4746         estimate D2E/DX2                !
 ! R3    R(1,4)                  1.2304         estimate D2E/DX2                !
 ! R4    R(2,8)                  1.3947         estimate D2E/DX2                !
 ! R5    R(2,9)                  1.4014         estimate D2E/DX2                !
 ! R6    R(3,6)                  1.3947         estimate D2E/DX2                !
 ! R7    R(3,12)                 1.4014         estimate D2E/DX2                !
 ! R8    R(5,6)                  1.4766         estimate D2E/DX2                !
 ! R9    R(5,7)                  1.2252         estimate D2E/DX2                !
 ! R10   R(5,8)                  1.4766         estimate D2E/DX2                !
 ! R11   R(6,10)                 1.4022         estimate D2E/DX2                !
 ! R12   R(8,11)                 1.4022         estimate D2E/DX2                !
 ! R13   R(9,13)                 1.3935         estimate D2E/DX2                !
 ! R14   R(9,22)                 1.3687         estimate D2E/DX2                !
 ! R15   R(10,16)                1.3952         estimate D2E/DX2                !
 ! R16   R(10,23)                1.0892         estimate D2E/DX2                !
 ! R17   R(11,14)                1.3952         estimate D2E/DX2                !
 ! R18   R(11,17)                1.0892         estimate D2E/DX2                !
 ! R19   R(12,15)                1.3935         estimate D2E/DX2                !
 ! R20   R(12,24)                1.3687         estimate D2E/DX2                !
 ! R21   R(13,14)                1.3939         estimate D2E/DX2                !
 ! R22   R(13,18)                1.0876         estimate D2E/DX2                !
 ! R23   R(14,19)                1.0878         estimate D2E/DX2                !
 ! R24   R(15,16)                1.3939         estimate D2E/DX2                !
 ! R25   R(15,21)                1.0876         estimate D2E/DX2                !
 ! R26   R(16,20)                1.0878         estimate D2E/DX2                !
 ! R27   R(22,25)                0.9845         estimate D2E/DX2                !
 ! R28   R(22,26)                0.9845         estimate D2E/DX2                !
 ! R29   R(24,27)                0.9845         estimate D2E/DX2                !
 ! R30   R(24,28)                0.9845         estimate D2E/DX2                !
 ! A1    A(2,1,3)              120.1205         estimate D2E/DX2                !
 ! A2    A(2,1,4)              119.9399         estimate D2E/DX2                !
 ! A3    A(3,1,4)              119.9396         estimate D2E/DX2                !
 ! A4    A(1,2,8)              119.7986         estimate D2E/DX2                !
 ! A5    A(1,2,9)              120.8983         estimate D2E/DX2                !
 ! A6    A(8,2,9)              119.303          estimate D2E/DX2                !
 ! A7    A(1,3,6)              119.799          estimate D2E/DX2                !
 ! A8    A(1,3,12)             120.8986         estimate D2E/DX2                !
 ! A9    A(6,3,12)             119.3023         estimate D2E/DX2                !
 ! A10   A(6,5,7)              120.3369         estimate D2E/DX2                !
 ! A11   A(6,5,8)              119.3259         estimate D2E/DX2                !
 ! A12   A(7,5,8)              120.3372         estimate D2E/DX2                !
 ! A13   A(3,6,5)              120.4778         estimate D2E/DX2                !
 ! A14   A(3,6,10)             120.1713         estimate D2E/DX2                !
 ! A15   A(5,6,10)             119.3509         estimate D2E/DX2                !
 ! A16   A(2,8,5)              120.4781         estimate D2E/DX2                !
 ! A17   A(2,8,11)             120.1712         estimate D2E/DX2                !
 ! A18   A(5,8,11)             119.3507         estimate D2E/DX2                !
 ! A19   A(2,9,13)             120.5778         estimate D2E/DX2                !
 ! A20   A(2,9,22)             123.2364         estimate D2E/DX2                !
 ! A21   A(13,9,22)            116.1859         estimate D2E/DX2                !
 ! A22   A(6,10,16)            120.0881         estimate D2E/DX2                !
 ! A23   A(6,10,23)            120.4165         estimate D2E/DX2                !
 ! A24   A(16,10,23)           119.4953         estimate D2E/DX2                !
 ! A25   A(8,11,14)            120.0881         estimate D2E/DX2                !
 ! A26   A(8,11,17)            120.4166         estimate D2E/DX2                !
 ! A27   A(14,11,17)           119.4953         estimate D2E/DX2                !
 ! A28   A(3,12,15)            120.5783         estimate D2E/DX2                !
 ! A29   A(3,12,24)            123.2358         estimate D2E/DX2                !
 ! A30   A(15,12,24)           116.1858         estimate D2E/DX2                !
 ! A31   A(9,13,14)            119.9634         estimate D2E/DX2                !
 ! A32   A(9,13,18)            119.8832         estimate D2E/DX2                !
 ! A33   A(14,13,18)           120.1534         estimate D2E/DX2                !
 ! A34   A(11,14,13)           119.8966         estimate D2E/DX2                !
 ! A35   A(11,14,19)           120.0991         estimate D2E/DX2                !
 ! A36   A(13,14,19)           120.0043         estimate D2E/DX2                !
 ! A37   A(12,15,16)           119.9634         estimate D2E/DX2                !
 ! A38   A(12,15,21)           119.8836         estimate D2E/DX2                !
 ! A39   A(16,15,21)           120.1529         estimate D2E/DX2                !
 ! A40   A(10,16,15)           119.8964         estimate D2E/DX2                !
 ! A41   A(10,16,20)           120.0985         estimate D2E/DX2                !
 ! A42   A(15,16,20)           120.005          estimate D2E/DX2                !
 ! A43   A(9,22,25)            119.9999         estimate D2E/DX2                !
 ! A44   A(9,22,26)            120.0002         estimate D2E/DX2                !
 ! A45   A(25,22,26)           119.9999         estimate D2E/DX2                !
 ! A46   A(12,24,27)           120.0001         estimate D2E/DX2                !
 ! A47   A(12,24,28)           119.9999         estimate D2E/DX2                !
 ! A48   A(27,24,28)           120.0            estimate D2E/DX2                !
 ! D1    D(3,1,2,8)              0.0017         estimate D2E/DX2                !
 ! D2    D(3,1,2,9)           -179.998          estimate D2E/DX2                !
 ! D3    D(4,1,2,8)           -179.9987         estimate D2E/DX2                !
 ! D4    D(4,1,2,9)              0.0016         estimate D2E/DX2                !
 ! D5    D(2,1,3,6)             -0.0012         estimate D2E/DX2                !
 ! D6    D(2,1,3,12)           179.9986         estimate D2E/DX2                !
 ! D7    D(4,1,3,6)            179.9992         estimate D2E/DX2                !
 ! D8    D(4,1,3,12)            -0.001          estimate D2E/DX2                !
 ! D9    D(1,2,8,5)             -0.0004         estimate D2E/DX2                !
 ! D10   D(1,2,8,11)           179.9998         estimate D2E/DX2                !
 ! D11   D(9,2,8,5)            179.9993         estimate D2E/DX2                !
 ! D12   D(9,2,8,11)            -0.0005         estimate D2E/DX2                !
 ! D13   D(1,2,9,13)          -179.9998         estimate D2E/DX2                !
 ! D14   D(1,2,9,22)            -0.0002         estimate D2E/DX2                !
 ! D15   D(8,2,9,13)             0.0005         estimate D2E/DX2                !
 ! D16   D(8,2,9,22)          -179.9999         estimate D2E/DX2                !
 ! D17   D(1,3,6,5)             -0.0005         estimate D2E/DX2                !
 ! D18   D(1,3,6,10)           179.9994         estimate D2E/DX2                !
 ! D19   D(12,3,6,5)           179.9997         estimate D2E/DX2                !
 ! D20   D(12,3,6,10)           -0.0004         estimate D2E/DX2                !
 ! D21   D(1,3,12,15)         -179.9994         estimate D2E/DX2                !
 ! D22   D(1,3,12,24)            0.0009         estimate D2E/DX2                !
 ! D23   D(6,3,12,15)            0.0004         estimate D2E/DX2                !
 ! D24   D(6,3,12,24)         -179.9993         estimate D2E/DX2                !
 ! D25   D(7,5,6,3)           -179.9986         estimate D2E/DX2                !
 ! D26   D(7,5,6,10)             0.0016         estimate D2E/DX2                !
 ! D27   D(8,5,6,3)              0.0017         estimate D2E/DX2                !
 ! D28   D(8,5,6,10)          -179.9981         estimate D2E/DX2                !
 ! D29   D(6,5,8,2)             -0.0013         estimate D2E/DX2                !
 ! D30   D(6,5,8,11)           179.9985         estimate D2E/DX2                !
 ! D31   D(7,5,8,2)            179.999          estimate D2E/DX2                !
 ! D32   D(7,5,8,11)            -0.0012         estimate D2E/DX2                !
 ! D33   D(3,6,10,16)            0.0005         estimate D2E/DX2                !
 ! D34   D(3,6,10,23)         -179.9997         estimate D2E/DX2                !
 ! D35   D(5,6,10,16)         -179.9996         estimate D2E/DX2                !
 ! D36   D(5,6,10,23)            0.0001         estimate D2E/DX2                !
 ! D37   D(2,8,11,14)            0.0005         estimate D2E/DX2                !
 ! D38   D(2,8,11,17)          179.9999         estimate D2E/DX2                !
 ! D39   D(5,8,11,14)         -179.9993         estimate D2E/DX2                !
 ! D40   D(5,8,11,17)            0.0001         estimate D2E/DX2                !
 ! D41   D(2,9,13,14)           -0.0005         estimate D2E/DX2                !
 ! D42   D(2,9,13,18)         -179.9999         estimate D2E/DX2                !
 ! D43   D(22,9,13,14)         179.9998         estimate D2E/DX2                !
 ! D44   D(22,9,13,18)           0.0005         estimate D2E/DX2                !
 ! D45   D(2,9,22,25)            0.0005         estimate D2E/DX2                !
 ! D46   D(2,9,22,26)         -179.9993         estimate D2E/DX2                !
 ! D47   D(13,9,22,25)        -179.9999         estimate D2E/DX2                !
 ! D48   D(13,9,22,26)           0.0003         estimate D2E/DX2                !
 ! D49   D(6,10,16,15)          -0.0005         estimate D2E/DX2                !
 ! D50   D(6,10,16,20)        -179.9996         estimate D2E/DX2                !
 ! D51   D(23,10,16,15)        179.9997         estimate D2E/DX2                !
 ! D52   D(23,10,16,20)          0.0006         estimate D2E/DX2                !
 ! D53   D(8,11,14,13)          -0.0004         estimate D2E/DX2                !
 ! D54   D(8,11,14,19)         179.9998         estimate D2E/DX2                !
 ! D55   D(17,11,14,13)       -179.9999         estimate D2E/DX2                !
 ! D56   D(17,11,14,19)          0.0004         estimate D2E/DX2                !
 ! D57   D(3,12,15,16)          -0.0004         estimate D2E/DX2                !
 ! D58   D(3,12,15,21)        -179.9999         estimate D2E/DX2                !
 ! D59   D(24,12,15,16)        179.9994         estimate D2E/DX2                !
 ! D60   D(24,12,15,21)         -0.0002         estimate D2E/DX2                !
 ! D61   D(3,12,24,27)        -179.9999         estimate D2E/DX2                !
 ! D62   D(3,12,24,28)           0.0002         estimate D2E/DX2                !
 ! D63   D(15,12,24,27)          0.0004         estimate D2E/DX2                !
 ! D64   D(15,12,24,28)       -179.9995         estimate D2E/DX2                !
 ! D65   D(9,13,14,11)           0.0005         estimate D2E/DX2                !
 ! D66   D(9,13,14,19)        -179.9998         estimate D2E/DX2                !
 ! D67   D(18,13,14,11)        179.9998         estimate D2E/DX2                !
 ! D68   D(18,13,14,19)         -0.0005         estimate D2E/DX2                !
 ! D69   D(12,15,16,10)          0.0004         estimate D2E/DX2                !
 ! D70   D(12,15,16,20)        179.9996         estimate D2E/DX2                !
 ! D71   D(21,15,16,10)        180.0            estimate D2E/DX2                !
 ! D72   D(21,15,16,20)         -0.0009         estimate D2E/DX2                !
 --------------------------------------------------------------------------------
 Trust Radius=3.00D-01 FncErr=1.00D-07 GrdErr=1.00D-07
 Number of steps in this run=    160 maximum allowed number of steps=    168.
 GradGradGradGradGradGradGradGradGradGradGradGradGradGradGradGradGradGrad

                          Input orientation:                          
 ---------------------------------------------------------------------
 Center     Atomic      Atomic             Coordinates (Angstroms)
 Number     Number       Type             X           Y           Z
 ---------------------------------------------------------------------
      1          6           0       -0.005590    1.432670    0.000280
      2          6           0        1.272550    0.697240    0.000160
      3          6           0       -1.283110    0.696170    0.000110
      4          8           0       -0.006110    2.663030    0.000530
      5          6           0       -0.004390   -1.443800   -0.000350
      6          6           0       -1.279100   -0.698530   -0.000190
      7          8           0       -0.003880   -2.669010   -0.000640
      8          6           0        1.269700   -0.697460   -0.000150
      9          6           0        2.496020    1.380620    0.000360
     10          6           0       -2.489290   -1.406730   -0.000340
     11          6           0        2.480480   -1.404650   -0.000270
     12          6           0       -2.507160    1.378520    0.000250
     13          6           0        3.699940    0.678900    0.000240
     14          6           0        3.693300   -0.715010   -0.000070
     15          6           0       -3.710490    0.675800    0.000100
     16          6           0       -3.702690   -0.718100   -0.000200
     17          1           0        2.482920   -2.493820   -0.000510
     18          1           0        4.642990    1.220750    0.000400
     19          1           0        4.632700   -1.263450   -0.000160
     20          1           0       -4.641620   -1.267330   -0.000310
     21          1           0       -4.654000    1.216860    0.000210
     22          7           0        2.592700    2.745940    0.000670
     23          1           0       -2.490820   -2.495900   -0.000570
     24          7           0       -2.604980    2.743770    0.000530
     25          1           0        1.777000    3.297180    0.000770
     26          1           0        3.477940    3.176740    0.000790
     27          1           0       -3.490580    3.173830    0.000620
     28          1           0       -1.789740    3.295690    0.000640
 ---------------------------------------------------------------------
                    Distance matrix (angstroms):
                    1          2          3          4          5
     1  C    0.000000
     2  C    1.474618   0.000000
     3  C    1.474615   2.555660   0.000000
     4  O    1.230360   2.345059   2.345052   0.000000
     5  C    2.876470   2.492916   2.492909   4.106830   0.000000
     6  C    2.482708   2.908452   1.394706   3.594522   1.476588
     7  O    4.101680   3.600127   3.600120   5.332041   1.225210
     8  C    2.482704   1.394703   2.908443   3.594521   1.476594
     9  C    2.502151   1.401388   3.840611   2.811624   3.772188
    10  C    3.772394   4.310236   2.424265   4.767508   2.485176
    11  C    3.772390   2.424260   4.310227   4.767510   2.485178
    12  C    2.502156   3.840618   1.401392   2.811622   3.772181
    13  C    3.781418   2.427459   4.983080   4.203758   4.269416
    14  C    4.277186   2.802585   5.172628   5.009670   3.768826
    15  C    3.781420   4.983086   2.427465   4.203750   4.269412
    16  C    4.277191   5.172640   2.802593   5.009665   3.768828
    17  H    4.648656   3.412896   4.935486   5.726113   2.699862
    18  H    4.653408   3.410855   5.949273   4.867679   5.357048
    19  H    5.364960   3.890362   6.231927   6.077483   4.640596
    20  H    5.364958   6.231929   3.890363   6.077473   4.640587
    21  H    4.653417   5.949286   3.410868   4.867678   5.357050
    22  N    2.911321   2.437205   4.384457   2.600132   4.929381
    23  H    4.648659   4.935494   3.412898   5.726111   2.699861
    24  N    2.911325   4.384464   2.437213   2.600124   4.929382
    25  H    2.579540   2.648426   4.016158   1.892519   5.064607
    26  H    3.895736   3.318383   5.368503   3.521719   5.785846
    27  H    3.895740   5.368511   3.318392   3.521711   5.785847
    28  H    2.579542   4.016163   2.648429   1.892510   5.064607
                    6          7          8          9         10
     6  C    0.000000
     7  O    2.347121   0.000000
     8  C    2.548800   2.347129   0.000000
     9  C    4.309802   4.759097   2.412940   0.000000
    10  C    1.402179   2.787582   3.825320   5.711623   0.000000
    11  C    3.825317   2.787589   1.402179   2.785313   4.969770
    12  C    2.412938   4.759087   4.309799   5.003180   2.785307
    13  C    5.166058   4.992673   2.792926   1.393497   6.531188
    14  C    4.972427   4.181777   2.423664   2.413534   6.221165
    15  C    2.792927   4.992666   5.166056   6.246402   2.414179
    16  C    2.423669   4.181775   4.972433   6.544359   1.395188
    17  H    4.168436   2.492963   2.167674   3.874462   5.089660
    18  H    6.225334   6.060003   3.880543   2.152914   7.600860
    19  H    5.938730   4.844943   3.410295   3.399486   7.123431
    20  H    3.410289   4.844929   5.938725   7.612985   2.156840
    21  H    3.880550   6.060000   6.225339   7.151895   3.401352
    22  N    5.182201   6.005324   3.688812   1.368739   6.562872
    23  H    2.167673   2.492958   4.168441   6.316327   1.089171
    24  N    3.688819   6.005323   5.182201   5.279998   4.152112
    25  H    5.030452   6.226312   4.026724   2.046996   6.350433
    26  H    6.135727   6.804107   4.459344   2.047001   7.524363
    27  H    4.459352   6.804106   6.135728   6.249399   4.688722
    28  H    4.026729   6.226311   5.030449   4.694170   4.754169
                   11         12         13         14         15
    11  C    0.000000
    12  C    5.711619   0.000000
    13  C    2.414180   6.246404   0.000000
    14  C    1.395183   6.544354   1.393926   0.000000
    15  C    6.531185   1.393491   7.410431   7.533290   0.000000
    16  C    6.221169   2.413526   7.533295   7.395991   1.393922
    17  H    1.089173   6.316321   3.398130   2.151554   6.957357
    18  H    3.401349   7.151890   1.087633   2.156172   8.371236
    19  H    2.156847   7.612989   2.154708   1.087777   8.565600
    20  H    7.123424   3.399477   8.565596   8.353200   2.154706
    21  H    7.600863   2.152918   8.371243   8.567937   1.087638
    22  N    4.152107   5.280001   2.344917   3.631735   6.634432
    23  H    5.089661   3.874455   6.957360   6.435442   3.398128
    24  N    6.562872   1.368750   6.634433   7.185506   2.344921
    25  H    4.754166   4.694175   3.248552   4.446333   6.081462
    26  H    4.688716   6.249401   2.507686   3.897704   7.611060
    27  H    7.524363   2.047011   7.611061   8.168917   2.507691
    28  H    6.350431   2.047006   6.081462   6.793338   3.248554
                   16         17         18         19         20
    16  C    0.000000
    17  H    6.435445   0.000000
    18  H    8.567935   4.296968   0.000000
    19  H    8.353211   2.476967   2.484221   0.000000
    20  H    1.087770   7.229339   9.612207   9.274321   0.000000
    21  H    2.156168   8.043928   9.296991   9.612218   2.484221
    22  N    7.185507   5.240910   2.555366   4.498534   8.272951
    23  H    2.151558   4.973740   8.043925   7.229348   2.476959
    24  N    3.631737   7.301991   7.406258   8.272957   4.498536
    25  H    6.793341   5.833867   3.539133   5.380926   7.876131
    26  H    8.168918   5.757197   2.276673   4.587893   9.256188
    27  H    3.897706   8.234377   8.364776   9.256194   4.587897
    28  H    4.446334   7.195419   6.759097   7.876134   5.380927
                   21         22         23         24         25
    21  H    0.000000
    22  N    7.406264   0.000000
    23  H    4.296968   7.301990   0.000000
    24  N    2.555374   5.197680   5.240914   0.000000
    25  H    6.759104   0.984496   7.195420   4.416787   0.000000
    26  H    8.364782   0.984499   8.234376   6.098310   1.705199
    27  H    2.276681   6.098310   5.757201   0.984499   5.269024
    28  H    3.539141   4.416787   5.833869   0.984496   3.566740
                   26         27         28
    26  H    0.000000
    27  H    6.968521   0.000000
    28  H    5.269023   1.705200   0.000000
 Stoichiometry    C14H10N2O2
 Framework group  C1[X(C14H10N2O2)]
 Deg. of freedom    78
 Full point group                 C1      NOp   1
 Largest Abelian subgroup         C1      NOp   1
 Largest concise Abelian subgroup C1      NOp   1
                         Standard orientation:                         
 ---------------------------------------------------------------------
 Center     Atomic      Atomic             Coordinates (Angstroms)
 Number     Number       Type             X           Y           Z
 ---------------------------------------------------------------------
      1          6           0       -0.000002   -1.066747   -0.000027
      2          6           0       -1.277834   -0.330782   -0.000010
      3          6           0        1.277826   -0.330781   -0.000010
      4          8           0        0.000003   -2.297107   -0.000047
      5          6           0        0.000002    1.809724   -0.000025
      6          6           0        1.274400    1.063920   -0.000004
      7          8           0        0.000005    3.034934   -0.000046
      8          6           0       -1.274400    1.063917   -0.000014
      9          6           0       -2.501590   -1.013649    0.000016
     10          6           0        2.484886    1.771614    0.000025
     11          6           0       -2.484884    1.771614   -0.000002
     12          6           0        2.501590   -1.013644    0.000004
     13          6           0       -3.705216   -0.311425    0.000027
     14          6           0       -3.697993    1.082482    0.000023
     15          6           0        3.705214   -0.311428    0.000032
     16          6           0        3.697998    1.082476    0.000038
     17          1           0       -2.486868    2.860785   -0.000003
     18          1           0       -4.648493   -0.852881    0.000049
     19          1           0       -4.637163    1.631315    0.000035
     20          1           0        4.637158    1.631312    0.000067
     21          1           0        4.648498   -0.852883    0.000041
     22          7           0       -2.598842   -2.378929    0.000024
     23          1           0        2.486872    2.860783    0.000035
     24          7           0        2.598839   -2.378935   -0.000014
     25          1           0       -1.783373   -2.930510    0.000019
     26          1           0       -3.484262   -2.809358    0.000032
     27          1           0        3.484259   -2.809365   -0.000002
     28          1           0        1.783368   -2.930513   -0.000041
 ---------------------------------------------------------------------
 Rotational constants (GHZ):      0.7658649      0.3733488      0.2509931
 Standard basis: VSTO-6G (5D, 7F)
 There are    82 symmetry adapted cartesian basis functions of A   symmetry.
 There are    82 symmetry adapted basis functions of A   symmetry.
    82 basis functions,   492 primitive gaussians,    82 cartesian basis functions
    44 alpha electrons       44 beta electrons
       nuclear repulsion energy       670.2305285364 Hartrees.
 Integral buffers will be    131072 words long.
 Regular integral format.
 Two-electron integral symmetry is turned off.
 Do NDO integrals.
 One-electron integrals computed using PRISM.
 NBasis=    82 RedAO= F EigKep=  0.00D+00  NBF=    82
 NBsUse=    82 1.00D-04 EigRej=  0.00D+00 NBFU=    82
 Simple Huckel Guess.
 Overlap will be assumed to be unity.
 Keep J ints in memory in canonical form, NReq=936458.
 Requested convergence on RMS density matrix=1.00D-08 within 128 cycles.
 Requested convergence on MAX density matrix=1.00D-06.
 Requested convergence on             energy=1.00D-06.
 No special actions if energy rises.
 SCF Done:  E(RAM1) = -0.185455126609E-02 A.U. after   15 cycles
            NFock= 14  Conv=0.10D-07     -V/T= 1.0000

 **********************************************************************

            Population analysis using the SCF density.

 **********************************************************************

 Orbital symmetries:
       Occupied  (A) (A) (A) (A) (A) (A) (A) (A) (A) (A) (A) (A)
                 (A) (A) (A) (A) (A) (A) (A) (A) (A) (A) (A) (A)
                 (A) (A) (A) (A) (A) (A) (A) (A) (A) (A) (A) (A)
                 (A) (A) (A) (A) (A) (A) (A) (A)
       Virtual   (A) (A) (A) (A) (A) (A) (A) (A) (A) (A) (A) (A)
                 (A) (A) (A) (A) (A) (A) (A) (A) (A) (A) (A) (A)
                 (A) (A) (A) (A) (A) (A) (A) (A) (A) (A) (A) (A)
                 (A) (A)
 The electronic state is 1-A.
 Alpha  occ. eigenvalues --   -1.54257  -1.47260  -1.46106  -1.40457  -1.31164
 Alpha  occ. eigenvalues --   -1.31085  -1.23700  -1.15412  -1.09847  -1.08534
 Alpha  occ. eigenvalues --   -0.97859  -0.92269  -0.90022  -0.82557  -0.79559
 Alpha  occ. eigenvalues --   -0.75898  -0.69999  -0.66601  -0.65482  -0.64359
 Alpha  occ. eigenvalues --   -0.63730  -0.61651  -0.59167  -0.58748  -0.57695
 Alpha  occ. eigenvalues --   -0.57175  -0.55832  -0.54336  -0.54223  -0.52720
 Alpha  occ. eigenvalues --   -0.52481  -0.50055  -0.48900  -0.48180  -0.47095
 Alpha  occ. eigenvalues --   -0.46354  -0.43414  -0.43113  -0.40463  -0.38648
 Alpha  occ. eigenvalues --   -0.37377  -0.36844  -0.32040  -0.31305
 Alpha virt. eigenvalues --   -0.04231   0.00251   0.00479   0.01916   0.05825
 Alpha virt. eigenvalues --    0.06340   0.09569   0.09640   0.09968   0.10468
 Alpha virt. eigenvalues --    0.10885   0.11563   0.13323   0.13900   0.14339
 Alpha virt. eigenvalues --    0.14805   0.14872   0.15410   0.15486   0.16016
 Alpha virt. eigenvalues --    0.16375   0.16375   0.17043   0.17443   0.17701
 Alpha virt. eigenvalues --    0.18621   0.18719   0.19188   0.19685   0.20094
 Alpha virt. eigenvalues --    0.20554   0.20666   0.22915   0.23078   0.23243
 Alpha virt. eigenvalues --    0.23943   0.24436   0.24781
          Condensed to atoms (all electrons):
               1          2          3          4          5          6
     1  C    3.653685   0.000000   0.000000   0.000000   0.000000   0.000000
     2  C    0.000000   4.202086   0.000000   0.000000   0.000000   0.000000
     3  C    0.000000   0.000000   4.202085   0.000000   0.000000   0.000000
     4  O    0.000000   0.000000   0.000000   6.368883   0.000000   0.000000
     5  C    0.000000   0.000000   0.000000   0.000000   3.697845   0.000000
     6  C    0.000000   0.000000   0.000000   0.000000   0.000000   4.055214
     7  O    0.000000   0.000000   0.000000   0.000000   0.000000   0.000000
     8  C    0.000000   0.000000   0.000000   0.000000   0.000000   0.000000
     9  C    0.000000   0.000000   0.000000   0.000000   0.000000   0.000000
    10  C    0.000000   0.000000   0.000000   0.000000   0.000000   0.000000
    11  C    0.000000   0.000000   0.000000   0.000000   0.000000   0.000000
    12  C    0.000000   0.000000   0.000000   0.000000   0.000000   0.000000
    13  C    0.000000   0.000000   0.000000   0.000000   0.000000   0.000000
    14  C    0.000000   0.000000   0.000000   0.000000   0.000000   0.000000
    15  C    0.000000   0.000000   0.000000   0.000000   0.000000   0.000000
    16  C    0.000000   0.000000   0.000000   0.000000   0.000000   0.000000
    17  H    0.000000   0.000000   0.000000   0.000000   0.000000   0.000000
    18  H    0.000000   0.000000   0.000000   0.000000   0.000000   0.000000
    19  H    0.000000   0.000000   0.000000   0.000000   0.000000   0.000000
    20  H    0.000000   0.000000   0.000000   0.000000   0.000000   0.000000
    21  H    0.000000   0.000000   0.000000   0.000000   0.000000   0.000000
    22  N    0.000000   0.000000   0.000000   0.000000   0.000000   0.000000
    23  H    0.000000   0.000000   0.000000   0.000000   0.000000   0.000000
    24  N    0.000000   0.000000   0.000000   0.000000   0.000000   0.000000
    25  H    0.000000   0.000000   0.000000   0.000000   0.000000   0.000000
    26  H    0.000000   0.000000   0.000000   0.000000   0.000000   0.000000
    27  H    0.000000   0.000000   0.000000   0.000000   0.000000   0.000000
    28  H    0.000000   0.000000   0.000000   0.000000   0.000000   0.000000
               7          8          9         10         11         12
     1  C    0.000000   0.000000   0.000000   0.000000   0.000000   0.000000
     2  C    0.000000   0.000000   0.000000   0.000000   0.000000   0.000000
     3  C    0.000000   0.000000   0.000000   0.000000   0.000000   0.000000
     4  O    0.000000   0.000000   0.000000   0.000000   0.000000   0.000000
     5  C    0.000000   0.000000   0.000000   0.000000   0.000000   0.000000
     6  C    0.000000   0.000000   0.000000   0.000000   0.000000   0.000000
     7  O    6.278077   0.000000   0.000000   0.000000   0.000000   0.000000
     8  C    0.000000   4.055211   0.000000   0.000000   0.000000   0.000000
     9  C    0.000000   0.000000   3.823818   0.000000   0.000000   0.000000
    10  C    0.000000   0.000000   0.000000   4.149361   0.000000   0.000000
    11  C    0.000000   0.000000   0.000000   0.000000   4.149362   0.000000
    12  C    0.000000   0.000000   0.000000   0.000000   0.000000   3.823819
    13  C    0.000000   0.000000   0.000000   0.000000   0.000000   0.000000
    14  C    0.000000   0.000000   0.000000   0.000000   0.000000   0.000000
    15  C    0.000000   0.000000   0.000000   0.000000   0.000000   0.000000
    16  C    0.000000   0.000000   0.000000   0.000000   0.000000   0.000000
    17  H    0.000000   0.000000   0.000000   0.000000   0.000000   0.000000
    18  H    0.000000   0.000000   0.000000   0.000000   0.000000   0.000000
    19  H    0.000000   0.000000   0.000000   0.000000   0.000000   0.000000
    20  H    0.000000   0.000000   0.000000   0.000000   0.000000   0.000000
    21  H    0.000000   0.000000   0.000000   0.000000   0.000000   0.000000
    22  N    0.000000   0.000000   0.000000   0.000000   0.000000   0.000000
    23  H    0.000000   0.000000   0.000000   0.000000   0.000000   0.000000
    24  N    0.000000   0.000000   0.000000   0.000000   0.000000   0.000000
    25  H    0.000000   0.000000   0.000000   0.000000   0.000000   0.000000
    26  H    0.000000   0.000000   0.000000   0.000000   0.000000   0.000000
    27  H    0.000000   0.000000   0.000000   0.000000   0.000000   0.000000
    28  H    0.000000   0.000000   0.000000   0.000000   0.000000   0.000000
              13         14         15         16         17         18
     1  C    0.000000   0.000000   0.000000   0.000000   0.000000   0.000000
     2  C    0.000000   0.000000   0.000000   0.000000   0.000000   0.000000
     3  C    0.000000   0.000000   0.000000   0.000000   0.000000   0.000000
     4  O    0.000000   0.000000   0.000000   0.000000   0.000000   0.000000
     5  C    0.000000   0.000000   0.000000   0.000000   0.000000   0.000000
     6  C    0.000000   0.000000   0.000000   0.000000   0.000000   0.000000
     7  O    0.000000   0.000000   0.000000   0.000000   0.000000   0.000000
     8  C    0.000000   0.000000   0.000000   0.000000   0.000000   0.000000
     9  C    0.000000   0.000000   0.000000   0.000000   0.000000   0.000000
    10  C    0.000000   0.000000   0.000000   0.000000   0.000000   0.000000
    11  C    0.000000   0.000000   0.000000   0.000000   0.000000   0.000000
    12  C    0.000000   0.000000   0.000000   0.000000   0.000000   0.000000
    13  C    4.219389   0.000000   0.000000   0.000000   0.000000   0.000000
    14  C    0.000000   4.064189   0.000000   0.000000   0.000000   0.000000
    15  C    0.000000   0.000000   4.219385   0.000000   0.000000   0.000000
    16  C    0.000000   0.000000   0.000000   4.064190   0.000000   0.000000
    17  H    0.000000   0.000000   0.000000   0.000000   0.844403   0.000000
    18  H    0.000000   0.000000   0.000000   0.000000   0.000000   0.863793
    19  H    0.000000   0.000000   0.000000   0.000000   0.000000   0.000000
    20  H    0.000000   0.000000   0.000000   0.000000   0.000000   0.000000
    21  H    0.000000   0.000000   0.000000   0.000000   0.000000   0.000000
    22  N    0.000000   0.000000   0.000000   0.000000   0.000000   0.000000
    23  H    0.000000   0.000000   0.000000   0.000000   0.000000   0.000000
    24  N    0.000000   0.000000   0.000000   0.000000   0.000000   0.000000
    25  H    0.000000   0.000000   0.000000   0.000000   0.000000   0.000000
    26  H    0.000000   0.000000   0.000000   0.000000   0.000000   0.000000
    27  H    0.000000   0.000000   0.000000   0.000000   0.000000   0.000000
    28  H    0.000000   0.000000   0.000000   0.000000   0.000000   0.000000
              19         20         21         22         23         24
     1  C    0.000000   0.000000   0.000000   0.000000   0.000000   0.000000
     2  C    0.000000   0.000000   0.000000   0.000000   0.000000   0.000000
     3  C    0.000000   0.000000   0.000000   0.000000   0.000000   0.000000
     4  O    0.000000   0.000000   0.000000   0.000000   0.000000   0.000000
     5  C    0.000000   0.000000   0.000000   0.000000   0.000000   0.000000
     6  C    0.000000   0.000000   0.000000   0.000000   0.000000   0.000000
     7  O    0.000000   0.000000   0.000000   0.000000   0.000000   0.000000
     8  C    0.000000   0.000000   0.000000   0.000000   0.000000   0.000000
     9  C    0.000000   0.000000   0.000000   0.000000   0.000000   0.000000
    10  C    0.000000   0.000000   0.000000   0.000000   0.000000   0.000000
    11  C    0.000000   0.000000   0.000000   0.000000   0.000000   0.000000
    12  C    0.000000   0.000000   0.000000   0.000000   0.000000   0.000000
    13  C    0.000000   0.000000   0.000000   0.000000   0.000000   0.000000
    14  C    0.000000   0.000000   0.000000   0.000000   0.000000   0.000000
    15  C    0.000000   0.000000   0.000000   0.000000   0.000000   0.000000
    16  C    0.000000   0.000000   0.000000   0.000000   0.000000   0.000000
    17  H    0.000000   0.000000   0.000000   0.000000   0.000000   0.000000
    18  H    0.000000   0.000000   0.000000   0.000000   0.000000   0.000000
    19  H    0.863187   0.000000   0.000000   0.000000   0.000000   0.000000
    20  H    0.000000   0.863187   0.000000   0.000000   0.000000   0.000000
    21  H    0.000000   0.000000   0.863792   0.000000   0.000000   0.000000
    22  N    0.000000   0.000000   0.000000   5.394618   0.000000   0.000000
    23  H    0.000000   0.000000   0.000000   0.000000   0.844402   0.000000
    24  N    0.000000   0.000000   0.000000   0.000000   0.000000   5.394624
    25  H    0.000000   0.000000   0.000000   0.000000   0.000000   0.000000
    26  H    0.000000   0.000000   0.000000   0.000000   0.000000   0.000000
    27  H    0.000000   0.000000   0.000000   0.000000   0.000000   0.000000
    28  H    0.000000   0.000000   0.000000   0.000000   0.000000   0.000000
              25         26         27         28
     1  C    0.000000   0.000000   0.000000   0.000000
     2  C    0.000000   0.000000   0.000000   0.000000
     3  C    0.000000   0.000000   0.000000   0.000000
     4  O    0.000000   0.000000   0.000000   0.000000
     5  C    0.000000   0.000000   0.000000   0.000000
     6  C    0.000000   0.000000   0.000000   0.000000
     7  O    0.000000   0.000000   0.000000   0.000000
     8  C    0.000000   0.000000   0.000000   0.000000
     9  C    0.000000   0.000000   0.000000   0.000000
    10  C    0.000000   0.000000   0.000000   0.000000
    11  C    0.000000   0.000000   0.000000   0.000000
    12  C    0.000000   0.000000   0.000000   0.000000
    13  C    0.000000   0.000000   0.000000   0.000000
    14  C    0.000000   0.000000   0.000000   0.000000
    15  C    0.000000   0.000000   0.000000   0.000000
    16  C    0.000000   0.000000   0.000000   0.000000
    17  H    0.000000   0.000000   0.000000   0.000000
    18  H    0.000000   0.000000   0.000000   0.000000
    19  H    0.000000   0.000000   0.000000   0.000000
    20  H    0.000000   0.000000   0.000000   0.000000
    21  H    0.000000   0.000000   0.000000   0.000000
    22  N    0.000000   0.000000   0.000000   0.000000
    23  H    0.000000   0.000000   0.000000   0.000000
    24  N    0.000000   0.000000   0.000000   0.000000
    25  H    0.742813   0.000000   0.000000   0.000000
    26  H    0.000000   0.777885   0.000000   0.000000
    27  H    0.000000   0.000000   0.777886   0.000000
    28  H    0.000000   0.000000   0.000000   0.742812
 Mulliken charges:
               1
     1  C    0.346315
     2  C   -0.202086
     3  C   -0.202085
     4  O   -0.368883
     5  C    0.302155
     6  C   -0.055214
     7  O   -0.278077
     8  C   -0.055211
     9  C    0.176182
    10  C   -0.149361
    11  C   -0.149362
    12  C    0.176181
    13  C   -0.219389
    14  C   -0.064189
    15  C   -0.219385
    16  C   -0.064190
    17  H    0.155597
    18  H    0.136207
    19  H    0.136813
    20  H    0.136813
    21  H    0.136208
    22  N   -0.394618
    23  H    0.155598
    24  N   -0.394624
    25  H    0.257187
    26  H    0.222115
    27  H    0.222114
    28  H    0.257188
 Sum of Mulliken charges =  -0.00000
 Mulliken charges with hydrogens summed into heavy atoms:
               1
     1  C    0.346315
     2  C   -0.202086
     3  C   -0.202085
     4  O   -0.368883
     5  C    0.302155
     6  C   -0.055214
     7  O   -0.278077
     8  C   -0.055211
     9  C    0.176182
    10  C    0.006236
    11  C    0.006235
    12  C    0.176181
    13  C   -0.083181
    14  C    0.072624
    15  C   -0.083177
    16  C    0.072623
    22  N    0.084684
    24  N    0.084678
 Charge=             -0.0000 electrons
 Dipole moment (field-independent basis, Debye):
    X=             -0.0000    Y=             -3.0697    Z=              0.0002  Tot=              3.0697
 N-N= 6.702305285364D+02 E-N=-1.212749125703D+03  KE=-6.243616160311D+01
 Calling FoFJK, ICntrl=      2127 FMM=F ISym2X=0 I1Cent= 0 IOpClX= 0 NMat=1 NMatS=1 NMatT=0.
 ***** Axes restored to original set *****
 -------------------------------------------------------------------
 Center     Atomic                   Forces (Hartrees/Bohr)
 Number     Number              X              Y              Z
 -------------------------------------------------------------------
      1        6           0.000014795   -0.034057454   -0.000006522
      2        6          -0.029095933   -0.005798202   -0.000001654
      3        6           0.029091153   -0.005776408   -0.000001072
      4        8          -0.000014494    0.039225844    0.000006908
      5        6          -0.000004497    0.017264725    0.000004436
      6        6          -0.009373556   -0.008954920   -0.000001459
      7        8           0.000015917   -0.035539483   -0.000008592
      8        6           0.009377889   -0.008952722   -0.000001835
      9        6           0.003684350    0.036026706    0.000006908
     10        6           0.007441924    0.006481356    0.000000580
     11        6          -0.007450170    0.006470784    0.000002119
     12        6          -0.003705540    0.036039000    0.000007029
     13        6           0.021897182   -0.042757116   -0.000007628
     14        6          -0.004954907    0.015321604    0.000002310
     15        6          -0.021868677   -0.042772587   -0.000009853
     16        6           0.004951734    0.015319958    0.000004994
     17        1          -0.002496225   -0.008384879   -0.000002186
     18        1           0.010319262    0.002065081    0.000000562
     19        1           0.007485021   -0.004513576   -0.000000706
     20        1          -0.007486012   -0.004521684   -0.000001431
     21        1          -0.010317320    0.002055506    0.000000581
     22        7           0.004375697    0.007264500    0.000002264
     23        1           0.002502951   -0.008383775   -0.000001833
     24        7          -0.004382145    0.007248296    0.000001629
     25        1           0.002674684    0.009147255    0.000002161
     26        1           0.001851028    0.000669952    0.000000248
     27        1          -0.001851028    0.000667703    0.000000171
     28        1          -0.002683084    0.009144534    0.000001873
 -------------------------------------------------------------------
 Cartesian Forces:  Max     0.042772587 RMS     0.013438077

 GradGradGradGradGradGradGradGradGradGradGradGradGradGradGradGradGradGrad
 Berny optimization.
 FormGI is forming the generalized inverse of G from B-inverse, IUseBI=4.
 Internal  Forces:  Max     0.055472558 RMS     0.012640541
 Search for a local minimum.
 Step number   1 out of a maximum of  160
 All quantities printed in internal units (Hartrees-Bohrs-Radians)
 Mixed Optimization -- RFO/linear search
 Second derivative matrix not updated -- first step.
 ITU=  0
     Eigenvalues ---    0.01076   0.01089   0.01102   0.01563   0.01646
     Eigenvalues ---    0.01774   0.01810   0.01889   0.01921   0.02102
     Eigenvalues ---    0.02102   0.02105   0.02105   0.02105   0.02105
     Eigenvalues ---    0.02108   0.02109   0.02113   0.02113   0.02159
     Eigenvalues ---    0.02159   0.02160   0.02161   0.02172   0.02172
     Eigenvalues ---    0.16000   0.16000   0.16000   0.16000   0.16000
     Eigenvalues ---    0.16000   0.16000   0.16000   0.16000   0.16000
     Eigenvalues ---    0.22096   0.22101   0.23529   0.23534   0.24912
     Eigenvalues ---    0.24917   0.25000   0.25000   0.25000   0.25000
     Eigenvalues ---    0.25000   0.25000   0.25000   0.33320   0.34071
     Eigenvalues ---    0.34908   0.34909   0.35071   0.35072   0.35084
     Eigenvalues ---    0.35087   0.35088   0.35090   0.40121   0.41847
     Eigenvalues ---    0.41880   0.41997   0.45031   0.45580   0.45948
     Eigenvalues ---    0.46010   0.46041   0.46555   0.46612   0.46615
     Eigenvalues ---    0.50521   0.50521   0.50521   0.50521   0.51218
     Eigenvalues ---    0.51220   0.90936   0.93112
 RFO step:  Lambda=-5.41666355D-02 EMin= 1.07560412D-02
 Linear search not attempted -- first point.
 Maximum step size (   0.300) exceeded in Quadratic search.
    -- Step size scaled by   0.815
 Iteration  1 RMS(Cart)=  0.15030614 RMS(Int)=  0.00446821
 Iteration  2 RMS(Cart)=  0.01351909 RMS(Int)=  0.00015335
 Iteration  3 RMS(Cart)=  0.00009551 RMS(Int)=  0.00014830
 Iteration  4 RMS(Cart)=  0.00000001 RMS(Int)=  0.00014830
 Variable       Old X    -DE/DX   Delta X   Delta X   Delta X     New X
                                 (Linear)    (Quad)   (Total)
    R1        2.78662   0.02441   0.00000   0.05084   0.05094   2.83757
    R2        2.78662   0.02441   0.00000   0.05085   0.05095   2.83757
    R3        2.32504   0.03923   0.00000   0.03317   0.03317   2.35822
    R4        2.63561   0.02236   0.00000   0.03692   0.03714   2.67274
    R5        2.64824   0.05547   0.00000   0.09348   0.09377   2.74201
    R6        2.63561   0.02236   0.00000   0.03692   0.03714   2.67275
    R7        2.64825   0.05547   0.00000   0.09347   0.09377   2.74201
    R8        2.79035  -0.00316   0.00000  -0.00824  -0.00834   2.78201
    R9        2.31531   0.03554   0.00000   0.02939   0.02939   2.34470
   R10        2.79036  -0.00316   0.00000  -0.00825  -0.00835   2.78201
   R11        2.64974  -0.00807   0.00000  -0.01561  -0.01567   2.63406
   R12        2.64973  -0.00807   0.00000  -0.01561  -0.01567   2.63406
   R13        2.63333   0.04552   0.00000   0.07371   0.07377   2.70709
   R14        2.58654   0.01767   0.00000   0.02542   0.02542   2.61196
   R15        2.63652  -0.00284   0.00000  -0.00888  -0.00917   2.62735
   R16        2.05824   0.00838   0.00000   0.01693   0.01693   2.07517
   R17        2.63651  -0.00283   0.00000  -0.00887  -0.00916   2.62735
   R18        2.05824   0.00838   0.00000   0.01693   0.01693   2.07517
   R19        2.63332   0.04552   0.00000   0.07371   0.07377   2.70709
   R20        2.58656   0.01765   0.00000   0.02540   0.02540   2.61196
   R21        2.63414  -0.01321   0.00000  -0.02251  -0.02274   2.61140
   R22        2.05533   0.00998   0.00000   0.02007   0.02007   2.07540
   R23        2.05560   0.00874   0.00000   0.01759   0.01759   2.07319
   R24        2.63413  -0.01320   0.00000  -0.02250  -0.02273   2.61140
   R25        2.05534   0.00997   0.00000   0.02006   0.02006   2.07540
   R26        2.05559   0.00874   0.00000   0.01760   0.01760   2.07319
   R27        1.86043   0.00291   0.00000   0.00423   0.00423   1.86466
   R28        1.86043   0.00196   0.00000   0.00285   0.00285   1.86329
   R29        1.86043   0.00196   0.00000   0.00285   0.00285   1.86328
   R30        1.86043   0.00290   0.00000   0.00423   0.00423   1.86466
    A1        2.09650  -0.00226   0.00000   0.00065   0.00099   2.09748
    A2        2.09335   0.00113   0.00000  -0.00033  -0.00050   2.09285
    A3        2.09334   0.00113   0.00000  -0.00032  -0.00049   2.09285
    A4        2.09088  -0.00757   0.00000  -0.02153  -0.02159   2.06929
    A5        2.11007   0.02669   0.00000   0.06418   0.06378   2.17386
    A6        2.08223  -0.01913   0.00000  -0.04265  -0.04219   2.04004
    A7        2.09089  -0.00757   0.00000  -0.02154  -0.02159   2.06929
    A8        2.11008   0.02669   0.00000   0.06418   0.06378   2.17386
    A9        2.08222  -0.01913   0.00000  -0.04264  -0.04219   2.04003
   A10        2.10028   0.00047   0.00000   0.00310   0.00315   2.10342
   A11        2.08263  -0.00094   0.00000  -0.00620  -0.00629   2.07634
   A12        2.10028   0.00047   0.00000   0.00310   0.00314   2.10342
   A13        2.10273   0.00917   0.00000   0.02431   0.02424   2.12698
   A14        2.09739   0.01496   0.00000   0.03910   0.03927   2.13665
   A15        2.08307  -0.02413   0.00000  -0.06341  -0.06351   2.01956
   A16        2.10274   0.00917   0.00000   0.02431   0.02424   2.12698
   A17        2.09738   0.01496   0.00000   0.03910   0.03927   2.13665
   A18        2.08306  -0.02413   0.00000  -0.06340  -0.06350   2.01956
   A19        2.10448  -0.01524   0.00000  -0.02909  -0.02870   2.07578
   A20        2.15088   0.02618   0.00000   0.06426   0.06407   2.21495
   A21        2.02783  -0.01094   0.00000  -0.03518  -0.03537   1.99245
   A22        2.09593   0.00723   0.00000   0.00776   0.00741   2.10334
   A23        2.10167  -0.00620   0.00000  -0.01373  -0.01355   2.08811
   A24        2.08559  -0.00103   0.00000   0.00597   0.00614   2.09173
   A25        2.09593   0.00723   0.00000   0.00776   0.00741   2.10334
   A26        2.10167  -0.00620   0.00000  -0.01373  -0.01355   2.08811
   A27        2.08559  -0.00102   0.00000   0.00597   0.00614   2.09173
   A28        2.10449  -0.01524   0.00000  -0.02909  -0.02870   2.07579
   A29        2.15087   0.02618   0.00000   0.06427   0.06408   2.21495
   A30        2.02783  -0.01094   0.00000  -0.03518  -0.03538   1.99245
   A31        2.09376   0.00874   0.00000   0.02702   0.02686   2.12062
   A32        2.09236  -0.00093   0.00000  -0.00041  -0.00033   2.09203
   A33        2.09707  -0.00781   0.00000  -0.02661  -0.02653   2.07054
   A34        2.09259   0.00344   0.00000  -0.00213  -0.00265   2.08994
   A35        2.09613  -0.00185   0.00000   0.00058   0.00084   2.09696
   A36        2.09447  -0.00159   0.00000   0.00155   0.00181   2.09628
   A37        2.09376   0.00874   0.00000   0.02702   0.02686   2.12062
   A38        2.09236  -0.00093   0.00000  -0.00041  -0.00034   2.09203
   A39        2.09706  -0.00781   0.00000  -0.02661  -0.02653   2.07054
   A40        2.09259   0.00344   0.00000  -0.00213  -0.00265   2.08994
   A41        2.09612  -0.00185   0.00000   0.00059   0.00084   2.09696
   A42        2.09448  -0.00159   0.00000   0.00155   0.00181   2.09629
   A43        2.09439   0.01139   0.00000   0.04332   0.04332   2.13772
   A44        2.09440  -0.00589   0.00000  -0.02240  -0.02240   2.07200
   A45        2.09439  -0.00550   0.00000  -0.02093  -0.02093   2.07347
   A46        2.09440  -0.00589   0.00000  -0.02240  -0.02240   2.07200
   A47        2.09439   0.01139   0.00000   0.04332   0.04332   2.13772
   A48        2.09440  -0.00550   0.00000  -0.02093  -0.02093   2.07347
    D1        0.00003   0.00000   0.00000   0.00000   0.00000   0.00003
    D2       -3.14156  -0.00000   0.00000  -0.00000  -0.00000  -3.14156
    D3       -3.14157   0.00000   0.00000   0.00001   0.00001  -3.14156
    D4        0.00003   0.00000   0.00000   0.00001   0.00001   0.00003
    D5       -0.00002  -0.00000   0.00000  -0.00000  -0.00000  -0.00002
    D6        3.14157  -0.00000   0.00000   0.00000   0.00000   3.14157
    D7        3.14158  -0.00000   0.00000  -0.00001  -0.00001   3.14157
    D8       -0.00002  -0.00000   0.00000  -0.00001  -0.00001  -0.00002
    D9       -0.00001  -0.00000   0.00000  -0.00000  -0.00000  -0.00001
   D10        3.14159  -0.00000   0.00000  -0.00000  -0.00000   3.14159
   D11        3.14158   0.00000   0.00000   0.00000   0.00000   3.14158
   D12       -0.00001   0.00000   0.00000   0.00000   0.00000  -0.00001
   D13       -3.14159  -0.00000   0.00000   0.00000   0.00000  -3.14159
   D14       -0.00000   0.00000   0.00000   0.00000   0.00000   0.00000
   D15        0.00001  -0.00000   0.00000  -0.00000  -0.00000   0.00001
   D16       -3.14159   0.00000   0.00000   0.00000   0.00000  -3.14159
   D17       -0.00001  -0.00000   0.00000  -0.00000  -0.00000  -0.00001
   D18        3.14158   0.00000   0.00000   0.00000   0.00000   3.14158
   D19        3.14159  -0.00000   0.00000  -0.00000  -0.00000   3.14159
   D20       -0.00001  -0.00000   0.00000  -0.00000  -0.00000  -0.00001
   D21       -3.14158   0.00000   0.00000   0.00000   0.00000  -3.14158
   D22        0.00002  -0.00000   0.00000  -0.00000  -0.00000   0.00001
   D23        0.00001   0.00000   0.00000   0.00000   0.00000   0.00001
   D24       -3.14158  -0.00000   0.00000  -0.00000  -0.00000  -3.14158
   D25       -3.14157   0.00000   0.00000   0.00000   0.00000  -3.14157
   D26        0.00003   0.00000   0.00000   0.00000   0.00000   0.00003
   D27        0.00003   0.00000   0.00000   0.00000   0.00000   0.00003
   D28       -3.14156  -0.00000   0.00000   0.00000   0.00000  -3.14156
   D29       -0.00002  -0.00000   0.00000  -0.00000  -0.00000  -0.00002
   D30        3.14157   0.00000   0.00000   0.00000   0.00000   3.14157
   D31        3.14158  -0.00000   0.00000  -0.00000  -0.00000   3.14157
   D32       -0.00002   0.00000   0.00000   0.00000   0.00000  -0.00002
   D33        0.00001  -0.00000   0.00000  -0.00000  -0.00000   0.00001
   D34       -3.14159  -0.00000   0.00000  -0.00000  -0.00000  -3.14159
   D35       -3.14159  -0.00000   0.00000  -0.00000  -0.00000  -3.14159
   D36        0.00000   0.00000   0.00000   0.00000   0.00000   0.00000
   D37        0.00001  -0.00000   0.00000  -0.00000  -0.00000   0.00001
   D38        3.14159   0.00000   0.00000   0.00000   0.00000   3.14159
   D39       -3.14158  -0.00000   0.00000  -0.00000  -0.00000  -3.14158
   D40        0.00000   0.00000   0.00000   0.00000   0.00000   0.00000
   D41       -0.00001   0.00000   0.00000   0.00000   0.00000  -0.00001
   D42       -3.14159   0.00000   0.00000  -0.00000  -0.00000  -3.14159
   D43        3.14159  -0.00000   0.00000  -0.00000  -0.00000   3.14159
   D44        0.00001  -0.00000   0.00000  -0.00000  -0.00000   0.00001
   D45        0.00001  -0.00000   0.00000  -0.00000  -0.00000   0.00001
   D46       -3.14158  -0.00000   0.00000  -0.00000  -0.00000  -3.14158
   D47       -3.14159   0.00000   0.00000   0.00000   0.00000  -3.14159
   D48        0.00001   0.00000   0.00000   0.00000   0.00000   0.00001
   D49       -0.00001   0.00000   0.00000   0.00000   0.00000  -0.00000
   D50       -3.14159  -0.00000   0.00000  -0.00000  -0.00000  -3.14159
   D51        3.14159   0.00000   0.00000   0.00000   0.00000   3.14159
   D52        0.00001  -0.00000   0.00000  -0.00000  -0.00000   0.00001
   D53       -0.00001   0.00000   0.00000   0.00000   0.00000  -0.00001
   D54        3.14159   0.00000   0.00000   0.00000   0.00000   3.14159
   D55       -3.14159  -0.00000   0.00000  -0.00000  -0.00000  -3.14159
   D56        0.00001  -0.00000   0.00000  -0.00000  -0.00000   0.00000
   D57       -0.00001  -0.00000   0.00000  -0.00000  -0.00000  -0.00001
   D58       -3.14159  -0.00000   0.00000  -0.00000  -0.00000   3.14159
   D59        3.14158   0.00000   0.00000   0.00000   0.00000   3.14158
   D60       -0.00000   0.00000   0.00000   0.00000   0.00000  -0.00000
   D61       -3.14159   0.00000   0.00000   0.00000   0.00000  -3.14159
   D62        0.00000   0.00000   0.00000   0.00000   0.00000   0.00000
   D63        0.00001  -0.00000   0.00000  -0.00000  -0.00000   0.00001
   D64       -3.14158  -0.00000   0.00000  -0.00000  -0.00000  -3.14159
   D65        0.00001  -0.00000   0.00000  -0.00000  -0.00000   0.00001
   D66       -3.14159  -0.00000   0.00000  -0.00000  -0.00000  -3.14159
   D67        3.14159   0.00000   0.00000   0.00000   0.00000   3.14159
   D68       -0.00001   0.00000   0.00000   0.00000   0.00000  -0.00001
   D69        0.00001  -0.00000   0.00000  -0.00000  -0.00000   0.00000
   D70        3.14158   0.00000   0.00000   0.00000   0.00000   3.14159
   D71        3.14159  -0.00000   0.00000  -0.00000  -0.00000   3.14159
   D72       -0.00002   0.00000   0.00000   0.00000   0.00000  -0.00001
         Item               Value     Threshold  Converged?
 Maximum Force            0.055473     0.000450     NO 
 RMS     Force            0.012641     0.000300     NO 
 Maximum Displacement     0.734195     0.001800     NO 
 RMS     Displacement     0.161206     0.001200     NO 
 Predicted change in Energy=-2.856862D-02
 GradGradGradGradGradGradGradGradGradGradGradGradGradGradGradGradGradGrad

                          Input orientation:                          
 ---------------------------------------------------------------------
 Center     Atomic      Atomic             Coordinates (Angstroms)
 Number     Number       Type             X           Y           Z
 ---------------------------------------------------------------------
      1          6           0       -0.005634    1.541249    0.000301
      2          6           0        1.296239    0.793013    0.000183
      3          6           0       -1.306883    0.791929    0.000129
      4          8           0       -0.006150    2.789164    0.000545
      5          6           0       -0.004421   -1.369057   -0.000331
      6          6           0       -1.272980   -0.622022   -0.000172
      7          8           0       -0.003901   -2.609821   -0.000625
      8          6           0        1.263514   -0.620963   -0.000131
      9          6           0        2.605248    1.419053    0.000371
     10          6           0       -2.431349   -1.397326   -0.000336
     11          6           0        2.422531   -1.395299   -0.000267
     12          6           0       -2.616418    1.416869    0.000253
     13          6           0        3.771398    0.587040    0.000222
     14          6           0        3.674901   -0.791480   -0.000087
     15          6           0       -3.781870    0.583884    0.000077
     16          6           0       -3.684225   -0.794554   -0.000214
     17          1           0        2.343890   -2.490613   -0.000511
     18          1           0        4.769738    1.044728    0.000363
     19          1           0        4.583224   -1.406741   -0.000193
     20          1           0       -4.592026   -1.410580   -0.000339
     21          1           0       -4.780595    1.040736    0.000168
     22          7           0        2.877208    2.774224    0.000684
     23          1           0       -2.351792   -2.492573   -0.000566
     24          7           0       -2.889517    2.771812    0.000528
     25          1           0        2.165375    3.457555    0.000818
     26          1           0        3.818254    3.068579    0.000776
     27          1           0       -3.830810    3.065372    0.000588
     28          1           0       -2.178259    3.455741    0.000664
 ---------------------------------------------------------------------
                    Distance matrix (angstroms):
                    1          2          3          4          5
     1  C    0.000000
     2  C    1.501576   0.000000
     3  C    1.501576   2.603122   0.000000
     4  O    1.247915   2.383450   2.383455   0.000000
     5  C    2.910307   2.523146   2.523147   4.158222   0.000000
     6  C    2.507171   2.933124   1.414357   3.638825   1.472177
     7  O    4.151071   3.642753   3.642755   5.398986   1.240764
     8  C    2.507169   1.414355   2.933122   3.638820   1.472177
     9  C    2.613740   1.451010   3.962077   2.949001   3.818891
    10  C    3.810422   4.323482   2.461150   4.838211   2.427093
    11  C    3.810420   2.461147   4.323482   4.838205   2.427093
    12  C    2.613746   3.962081   1.451011   2.949016   3.818889
    13  C    3.895700   2.483714   5.082412   4.372552   4.252425
    14  C    4.357518   2.858085   5.227366   5.135284   3.724380
    15  C    3.895704   5.082414   2.483716   4.372565   4.252423
    16  C    4.357523   5.227370   2.858091   5.135297   3.724381
    17  H    4.666495   3.446704   4.909503   5.779163   2.602393
    18  H    4.801115   3.482607   6.081877   5.084502   5.349668
    19  H    5.454196   3.955147   6.287090   6.218357   4.587799
    20  H    5.454200   6.287090   3.955150   6.218369   4.587794
    21  H    4.801121   6.081881   3.482611   5.084518   5.349668
    22  N    3.135443   2.534690   4.629914   2.883396   5.046836
    23  H    4.666495   4.909502   3.446706   5.779168   2.602391
    24  N    3.135453   4.629924   2.534693   2.883419   5.046838
    25  H    2.895774   2.802709   4.377458   2.272062   5.291899
    26  H    4.117627   3.396874   5.608044   3.834597   5.857085
    27  H    4.117636   5.608053   3.396874   3.834621   5.857083
    28  H    2.895787   4.377472   2.802712   2.272088   5.291905
                    6          7          8          9         10
     6  C    0.000000
     7  O    2.358370   0.000000
     8  C    2.536495   2.358368   0.000000
     9  C    4.382538   4.799946   2.441703   0.000000
    10  C    1.393885   2.713420   3.775547   5.770554   0.000000
    11  C    3.775548   2.713418   1.393885   2.820277   4.853880
    12  C    2.441700   4.799945   4.382537   5.221667   2.820273
    13  C    5.187251   4.946999   2.783657   1.432532   6.512432
    14  C    4.950782   4.103651   2.417408   2.455730   6.136232
    15  C    2.783655   4.946999   5.187250   6.441489   2.397728
    16  C    2.417409   4.103654   4.950783   6.667648   1.390335
    17  H    4.071042   2.350816   2.159352   3.918391   4.898794
    18  H    6.268372   6.011934   3.881768   2.196619   7.603898
    19  H    5.908545   4.742269   3.411439   3.449275   7.014579
    20  H    3.411435   4.742264   5.908541   7.733536   2.160718
    21  H    3.881768   6.011936   6.268373   7.395526   3.385720
    22  N    5.362699   6.106450   3.759162   1.382191   6.751489
    23  H    2.159351   2.350817   4.071040   6.314512   1.098132
    24  N    3.759162   6.106452   5.362703   5.658834   4.194237
    25  H    5.335282   6.443509   4.177040   2.085421   6.685786
    26  H    6.288179   6.844932   4.487695   2.047515   7.681265
    27  H    4.487691   6.844929   6.288180   6.643284   4.676983
    28  H    4.177042   6.443515   5.335290   5.199043   4.859662
                   11         12         13         14         15
    11  C    0.000000
    12  C    5.770554   0.000000
    13  C    2.397730   6.441491   0.000000
    14  C    1.390334   6.667646   1.381893   0.000000
    15  C    6.512431   1.432529   7.553268   7.582550   0.000000
    16  C    6.136233   2.455728   7.582553   7.359126   1.381893
    17  H    1.098133   6.314512   3.392598   2.158389   6.854011
    18  H    3.385721   7.395525   1.098254   2.137832   8.564016
    19  H    2.160723   7.733538   2.152725   1.097085   8.598685
    20  H    7.014574   3.449274   8.598683   8.290077   2.152729
    21  H    7.603900   2.196619   8.564019   8.651730   1.098256
    22  N    4.194240   5.658828   2.362911   3.653841   7.010057
    23  H    4.898793   3.918387   6.854011   6.262168   3.392596
    24  N    6.751494   1.382192   7.010065   7.469179   2.362905
    25  H    4.859663   5.199033   3.289250   4.509209   6.605127
    26  H    4.676991   6.643278   2.481981   3.862719   7.995973
    27  H    7.681267   2.047514   7.995980   8.438662   2.481971
    28  H    6.685796   2.085422   6.605139   7.231761   3.289244
                   16         17         18         19         20
    16  C    0.000000
    17  H    6.262170   0.000000
    18  H    8.651730   4.287583   0.000000
    19  H    8.290083   2.487849   2.458554   0.000000
    20  H    1.097083   7.019502   9.678386   9.175251   0.000000
    21  H    2.137830   7.951648   9.550333   9.678390   2.458558
    22  N    7.469175   5.291780   2.563752   4.515635   8.561661
    23  H    2.158389   4.695682   7.951646   7.019507   2.487842
    24  N    3.653838   7.421702   7.851560   8.561668   4.515633
    25  H    7.231753   5.950846   3.550273   5.432069   8.328338
    26  H    8.438659   5.751379   2.236357   4.540227   9.528676
    27  H    3.862709   8.306377   8.834729   9.528681   4.540220
    28  H    4.509206   7.470539   7.354431   8.328348   5.432067
                   21         22         23         24         25
    21  H    0.000000
    22  N    7.851555   0.000000
    23  H    4.287581   7.421697   0.000000
    24  N    2.563747   5.766725   5.291776   0.000000
    25  H    7.354421   0.986736   7.470530   5.101193   0.000000
    26  H    8.834723   0.986008   8.306375   6.714332   1.698031
    27  H    2.236346   6.714333   5.751369   0.986008   6.008997
    28  H    3.550267   5.101197   5.950844   0.986735   4.343635
                   26         27         28
    26  H    0.000000
    27  H    7.649064   0.000000
    28  H    6.008998   1.698032   0.000000
 Stoichiometry    C14H10N2O2
 Framework group  C1[X(C14H10N2O2)]
 Deg. of freedom    78
 Full point group                 C1      NOp   1
 Largest Abelian subgroup         C1      NOp   1
 Largest concise Abelian subgroup C1      NOp   1
                         Standard orientation:                         
 ---------------------------------------------------------------------
 Center     Atomic      Atomic             Coordinates (Angstroms)
 Number     Number       Type             X           Y           Z
 ---------------------------------------------------------------------
      1          6           0       -0.000003   -1.150578   -0.000027
      2          6           0       -1.301563   -0.401798   -0.000009
      3          6           0        1.301560   -0.401802   -0.000010
      4          8           0       -0.000008   -2.398493   -0.000055
      5          6           0        0.000001    1.759728   -0.000025
      6          6           0        1.268248    1.012163   -0.000003
      7          8           0        0.000000    3.000493   -0.000048
      8          6           0       -1.268247    1.012164   -0.000013
      9          6           0       -2.610833   -1.027290    0.000017
     10          6           0        2.426941    1.786983    0.000025
     11          6           0       -2.426939    1.786985   -0.000003
     12          6           0        2.610834   -1.027289    0.000004
     13          6           0       -3.776635   -0.194790    0.000027
     14          6           0       -3.679562    1.183689    0.000020
     15          6           0        3.776633   -0.194792    0.000033
     16          6           0        3.679564    1.183687    0.000040
     17          1           0       -2.347841    2.882265   -0.000007
     18          1           0       -4.775166   -0.652061    0.000048
     19          1           0       -4.587627    1.799330    0.000029
     20          1           0        4.587624    1.799334    0.000067
     21          1           0        4.775167   -0.652061    0.000044
     22          7           0       -2.883359   -2.382348    0.000030
     23          1           0        2.347842    2.882263    0.000032
     24          7           0        2.883366   -2.382346   -0.000011
     25          1           0       -2.171812   -3.065976    0.000029
     26          1           0       -3.824528   -2.676309    0.000039
     27          1           0        3.824537   -2.676300    0.000004
     28          1           0        2.171823   -3.065978   -0.000038
 ---------------------------------------------------------------------
 Rotational constants (GHZ):      0.7537967      0.3552030      0.2414346
 Standard basis: VSTO-6G (5D, 7F)
 There are    82 symmetry adapted cartesian basis functions of A   symmetry.
 There are    82 symmetry adapted basis functions of A   symmetry.
    82 basis functions,   492 primitive gaussians,    82 cartesian basis functions
    44 alpha electrons       44 beta electrons
       nuclear repulsion energy       662.0195941946 Hartrees.
 Integral buffers will be    131072 words long.
 Regular integral format.
 Two-electron integral symmetry is turned off.
 Do NDO integrals.
 One-electron integrals computed using PRISM.
 NBasis=    82 RedAO= F EigKep=  0.00D+00  NBF=    82
 NBsUse=    82 1.00D-04 EigRej=  0.00D+00 NBFU=    82
 Initial guess from the checkpoint file:  "anthracene-1-8-opt.chk"
 B after Tr=    -0.000000    0.000000    0.000000
         Rot=    1.000000    0.000001    0.000000   -0.000000 Ang=   0.00 deg.
 Overlap will be assumed to be unity.
 Keep J ints in memory in canonical form, NReq=936458.
 Requested convergence on RMS density matrix=1.00D-08 within 128 cycles.
 Requested convergence on MAX density matrix=1.00D-06.
 Requested convergence on             energy=1.00D-06.
 No special actions if energy rises.
 SCF Done:  E(RAM1) = -0.460854327844E-02 A.U. after   14 cycles
            NFock= 13  Conv=0.53D-08     -V/T= 0.9999
 Calling FoFJK, ICntrl=      2127 FMM=F ISym2X=0 I1Cent= 0 IOpClX= 0 NMat=1 NMatS=1 NMatT=0.
 ***** Axes restored to original set *****
 -------------------------------------------------------------------
 Center     Atomic                   Forces (Hartrees/Bohr)
 Number     Number              X              Y              Z
 -------------------------------------------------------------------
      1        6           0.000001210   -0.002920308   -0.000000396
      2        6           0.002768082    0.007535111    0.000002566
      3        6          -0.002776294    0.007530847    0.000001819
      4        8           0.000000498   -0.004461628   -0.000000616
      5        6           0.000000299   -0.001050473   -0.000000274
      6        6          -0.004751779    0.011106233    0.000002592
      7        8           0.000001495   -0.004262541   -0.000001195
      8        6           0.004744081    0.011108713    0.000002412
      9        6          -0.008260327    0.005200968   -0.000000093
     10        6           0.002402254    0.000251353   -0.000000393
     11        6          -0.002402967    0.000248717    0.000000607
     12        6           0.008258672    0.005211157    0.000000791
     13        6          -0.005941779   -0.008318249   -0.000001206
     14        6           0.001821005    0.008894011    0.000001398
     15        6           0.005945024   -0.008315249   -0.000002297
     16        6          -0.001825808    0.008891907    0.000003051
     17        1          -0.000954172   -0.003289295   -0.000000935
     18        1           0.001916129    0.001366979    0.000000161
     19        1           0.002212254   -0.001573703   -0.000000238
     20        1          -0.002212446   -0.001575552   -0.000000678
     21        1          -0.001916184    0.001365136    0.000000431
     22        7          -0.019643299   -0.012748543   -0.000003250
     23        1           0.000956967   -0.003288988   -0.000000753
     24        7           0.019655222   -0.012732967   -0.000002340
     25        1          -0.005579217   -0.002583580   -0.000001001
     26        1           0.001045542    0.000494422    0.000000148
     27        1          -0.001046142    0.000494134    0.000000108
     28        1           0.005581681   -0.002578612   -0.000000419
 -------------------------------------------------------------------
 Cartesian Forces:  Max     0.019655222 RMS     0.005197224

 GradGradGradGradGradGradGradGradGradGradGradGradGradGradGradGradGradGrad
 Berny optimization.
 Using GEDIIS/GDIIS optimizer.
 FormGI is forming the generalized inverse of G from B-inverse, IUseBI=4.
 GSVD:  received Info=                   1 from GESDD.
 Internal  Forces:  Max     0.041651055 RMS     0.009888875
 Search for a local minimum.
 Step number   2 out of a maximum of  160
 All quantities printed in internal units (Hartrees-Bohrs-Radians)
 Mixed Optimization -- RFO/linear search
 Update second derivatives using D2CorX and points    1    2
 DE= -2.75D-03 DEPred=-2.86D-02 R= 9.64D-02
 Trust test= 9.64D-02 RLast= 3.00D-01 DXMaxT set to 1.50D-01
 ITU= -1  0
 Use linear search instead of GDIIS.
     Eigenvalues ---    0.01076   0.01089   0.01102   0.01565   0.01643
     Eigenvalues ---    0.01776   0.01807   0.01890   0.01924   0.02102
     Eigenvalues ---    0.02103   0.02105   0.02105   0.02105   0.02105
     Eigenvalues ---    0.02109   0.02109   0.02110   0.02110   0.02160
     Eigenvalues ---    0.02160   0.02161   0.02161   0.02172   0.02172
     Eigenvalues ---    0.15967   0.16000   0.16000   0.16000   0.16000
     Eigenvalues ---    0.16000   0.16000   0.16000   0.16000   0.16189
     Eigenvalues ---    0.22097   0.22127   0.23080   0.23507   0.24576
     Eigenvalues ---    0.24904   0.24927   0.25000   0.25000   0.25000
     Eigenvalues ---    0.25000   0.25000   0.28890   0.33711   0.34082
     Eigenvalues ---    0.34669   0.34909   0.34974   0.35071   0.35079
     Eigenvalues ---    0.35087   0.35091   0.36234   0.40169   0.41620
     Eigenvalues ---    0.41969   0.44883   0.44996   0.45039   0.45938
     Eigenvalues ---    0.45949   0.46044   0.46507   0.46614   0.50390
     Eigenvalues ---    0.50520   0.50521   0.50521   0.50538   0.51219
     Eigenvalues ---    0.85403   0.92426   0.98057
 RFO step:  Lambda=-5.58389189D-03 EMin= 1.07560412D-02
 Quartic linear search produced a step of -0.49482.
 Iteration  1 RMS(Cart)=  0.10219583 RMS(Int)=  0.00253808
 Iteration  2 RMS(Cart)=  0.00468490 RMS(Int)=  0.00006304
 Iteration  3 RMS(Cart)=  0.00000980 RMS(Int)=  0.00006297
 Iteration  4 RMS(Cart)=  0.00000000 RMS(Int)=  0.00006297
 Variable       Old X    -DE/DX   Delta X   Delta X   Delta X     New X
                                 (Linear)    (Quad)   (Total)
    R1        2.83757  -0.03354  -0.02521  -0.01801  -0.04327   2.79430
    R2        2.83757  -0.03354  -0.02521  -0.01800  -0.04327   2.79430
    R3        2.35822  -0.00446  -0.01642   0.02079   0.00437   2.36259
    R4        2.67274  -0.01179  -0.01838   0.01003  -0.00842   2.66432
    R5        2.74201  -0.04165  -0.04640   0.01238  -0.03415   2.70786
    R6        2.67275  -0.01179  -0.01838   0.01003  -0.00843   2.66432
    R7        2.74201  -0.04165  -0.04640   0.01237  -0.03415   2.70786
    R8        2.78201   0.00849   0.00412   0.00893   0.01311   2.79512
    R9        2.34470   0.00426  -0.01454   0.02293   0.00839   2.35309
   R10        2.78201   0.00849   0.00413   0.00893   0.01311   2.79512
   R11        2.63406   0.00054   0.00776  -0.00852  -0.00071   2.63335
   R12        2.63406   0.00054   0.00776  -0.00851  -0.00071   2.63335
   R13        2.70709  -0.00158  -0.03650   0.04521   0.00866   2.71575
   R14        2.61196  -0.01930  -0.01258  -0.00208  -0.01466   2.59730
   R15        2.62735   0.00840   0.00454   0.00548   0.01015   2.63750
   R16        2.07517   0.00335  -0.00838   0.01516   0.00678   2.08195
   R17        2.62735   0.00840   0.00453   0.00549   0.01015   2.63750
   R18        2.07517   0.00335  -0.00838   0.01515   0.00678   2.08195
   R19        2.70709  -0.00157  -0.03650   0.04521   0.00866   2.71575
   R20        2.61196  -0.01931  -0.01257  -0.00209  -0.01466   2.59730
   R21        2.61140  -0.00077   0.01125  -0.01417  -0.00284   2.60856
   R22        2.07540   0.00231  -0.00993   0.01560   0.00567   2.08107
   R23        2.07319   0.00271  -0.00870   0.01465   0.00594   2.07913
   R24        2.61140  -0.00076   0.01125  -0.01416  -0.00283   2.60856
   R25        2.07540   0.00231  -0.00993   0.01559   0.00567   2.08107
   R26        2.07319   0.00272  -0.00871   0.01466   0.00595   2.07913
[...]
                   16         17         18         19         20
    16  C    0.000000
    17  H    6.316395   0.000000
    18  H    8.604285   4.308988   0.000000
    19  H    8.309388   2.502687   2.471086   0.000000
    20  H    1.101132   7.091974   9.646421   9.216042   0.000000
    21  H    2.143271   7.977654   9.434328   9.646420   2.471086
    22  N    7.287973   5.287126   2.609885   4.542559   8.387187
    23  H    2.174925   4.777828   7.977656   7.091975   2.502687
    24  N    3.662480   7.329704   7.595977   8.387180   4.542561
    25  H    6.959279   5.906543   3.600548   5.442940   8.058213
    26  H    8.270600   5.790755   2.318273   4.613829   9.368919
    27  H    3.911702   8.246361   8.569616   9.368913   4.613834
    28  H    4.497994   7.293304   7.007804   8.058202   5.442940
                   21         22         23         24         25
    21  H    0.000000
    22  N    7.595983   0.000000
    23  H    4.308988   7.329711   0.000000
    24  N    2.609889   5.393855   5.287126   0.000000
    25  H    7.007814   0.990855   7.293315   4.652646   0.000000
    26  H    8.569623   0.987610   8.246366   6.315802   1.706701
    27  H    2.318279   6.315801   5.790758   0.987610   5.527524
    28  H    3.600552   4.652642   5.906540   0.990855   3.831267
                   26         27         28
    26  H    0.000000
    27  H    7.214501   0.000000
    28  H    5.527522   1.706702   0.000000
 Stoichiometry    C14H10N2O2
 Framework group  C1[X(C14H10N2O2)]
 Deg. of freedom    78
 Full point group                 C1      NOp   1
 Largest Abelian subgroup         C1      NOp   1
 Largest concise Abelian subgroup C1      NOp   1
                         Standard orientation:                         
 ---------------------------------------------------------------------
 Center     Atomic      Atomic             Coordinates (Angstroms)
 Number     Number       Type             X           Y           Z
 ---------------------------------------------------------------------
      1          6           0        0.000001   -1.113999    0.000011
      2          6           0       -1.275275   -0.370358    0.000009
      3          6           0        1.275275   -0.370356    0.000008
      4          8           0        0.000005   -2.364686   -0.000032
      5          6           0        0.000000    1.799998    0.000012
      6          6           0        1.267373    1.039425    0.000010
      7          8           0        0.000000    3.040883   -0.000044
      8          6           0       -1.267372    1.039425    0.000008
      9          6           0       -2.543083   -1.033694    0.000006
     10          6           0        2.441676    1.784658    0.000011
     11          6           0       -2.441674    1.784659    0.000004
     12          6           0        2.543082   -1.033694    0.000002
     13          6           0       -3.736173   -0.239621    0.000004
     14          6           0       -3.680182    1.135112    0.000003
     15          6           0        3.736173   -0.239623    0.000005
     16          6           0        3.680184    1.135110    0.000010
     17          1           0       -2.388912    2.885231    0.000003
     18          1           0       -4.717165   -0.740595    0.000003
     19          1           0       -4.608020    1.728079    0.000002
     20          1           0        4.608022    1.728076    0.000012
     21          1           0        4.717164   -0.740599    0.000003
     22          7           0       -2.696931   -2.392914    0.000006
     23          1           0        2.388916    2.885231    0.000013
     24          7           0        2.696924   -2.392915   -0.000008
     25          1           0       -1.915639   -3.002320    0.000003
     26          1           0       -3.607256   -2.775907   -0.000002
     27          1           0        3.607246   -2.775912   -0.000007
     28          1           0        1.915628   -3.002316   -0.000009
 ---------------------------------------------------------------------
 Rotational constants (GHZ):      0.7513439      0.3682382      0.2471221

 **********************************************************************

            Population analysis using the SCF density.

 **********************************************************************

 Orbital symmetries:
       Occupied  (A) (A) (A) (A) (A) (A) (A) (A) (A) (A) (A) (A)
                 (A) (A) (A) (A) (A) (A) (A) (A) (A) (A) (A) (A)
                 (A) (A) (A) (A) (A) (A) (A) (A) (A) (A) (A) (A)
                 (A) (A) (A) (A) (A) (A) (A) (A)
       Virtual   (A) (A) (A) (A) (A) (A) (A) (A) (A) (A) (A) (A)
                 (A) (A) (A) (A) (A) (A) (A) (A) (A) (A) (A) (A)
                 (A) (A) (A) (A) (A) (A) (A) (A) (A) (A) (A) (A)
                 (A) (A)
 The electronic state is 1-A.
 Alpha  occ. eigenvalues --   -1.52294  -1.45577  -1.44161  -1.38714  -1.31087
 Alpha  occ. eigenvalues --   -1.30667  -1.23232  -1.14803  -1.09610  -1.08127
 Alpha  occ. eigenvalues --   -0.97239  -0.92024  -0.88959  -0.82294  -0.79065
 Alpha  occ. eigenvalues --   -0.75270  -0.69410  -0.66699  -0.65126  -0.64348
 Alpha  occ. eigenvalues --   -0.63678  -0.61116  -0.58104  -0.58073  -0.57436
 Alpha  occ. eigenvalues --   -0.57130  -0.55973  -0.53493  -0.53239  -0.52385
 Alpha  occ. eigenvalues --   -0.52146  -0.49410  -0.48569  -0.47634  -0.46491
 Alpha  occ. eigenvalues --   -0.46228  -0.43599  -0.43229  -0.40214  -0.38384
 Alpha  occ. eigenvalues --   -0.37189  -0.36701  -0.31801  -0.30940
 Alpha virt. eigenvalues --   -0.04045   0.00333   0.00536   0.01818   0.05987
 Alpha virt. eigenvalues --    0.06357   0.09132   0.09494   0.09615   0.10661
 Alpha virt. eigenvalues --    0.11140   0.11612   0.13059   0.13623   0.14005
 Alpha virt. eigenvalues --    0.14606   0.14770   0.15298   0.15333   0.16067
 Alpha virt. eigenvalues --    0.16260   0.16331   0.16982   0.17422   0.17665
 Alpha virt. eigenvalues --    0.18659   0.18886   0.19330   0.19818   0.20361
 Alpha virt. eigenvalues --    0.20558   0.20694   0.22772   0.22834   0.23303
 Alpha virt. eigenvalues --    0.23876   0.23886   0.24669
          Condensed to atoms (all electrons):
               1          2          3          4          5          6
     1  C    3.654967   0.000000   0.000000   0.000000   0.000000   0.000000
     2  C    0.000000   4.205066   0.000000   0.000000   0.000000   0.000000
     3  C    0.000000   0.000000   4.205067   0.000000   0.000000   0.000000
     4  O    0.000000   0.000000   0.000000   6.385719   0.000000   0.000000
     5  C    0.000000   0.000000   0.000000   0.000000   3.702829   0.000000
     6  C    0.000000   0.000000   0.000000   0.000000   0.000000   4.056871
     7  O    0.000000   0.000000   0.000000   0.000000   0.000000   0.000000
     8  C    0.000000   0.000000   0.000000   0.000000   0.000000   0.000000
     9  C    0.000000   0.000000   0.000000   0.000000   0.000000   0.000000
    10  C    0.000000   0.000000   0.000000   0.000000   0.000000   0.000000
    11  C    0.000000   0.000000   0.000000   0.000000   0.000000   0.000000
    12  C    0.000000   0.000000   0.000000   0.000000   0.000000   0.000000
    13  C    0.000000   0.000000   0.000000   0.000000   0.000000   0.000000
    14  C    0.000000   0.000000   0.000000   0.000000   0.000000   0.000000
    15  C    0.000000   0.000000   0.000000   0.000000   0.000000   0.000000
    16  C    0.000000   0.000000   0.000000   0.000000   0.000000   0.000000
    17  H    0.000000   0.000000   0.000000   0.000000   0.000000   0.000000
    18  H    0.000000   0.000000   0.000000   0.000000   0.000000   0.000000
    19  H    0.000000   0.000000   0.000000   0.000000   0.000000   0.000000
    20  H    0.000000   0.000000   0.000000   0.000000   0.000000   0.000000
    21  H    0.000000   0.000000   0.000000   0.000000   0.000000   0.000000
    22  N    0.000000   0.000000   0.000000   0.000000   0.000000   0.000000
    23  H    0.000000   0.000000   0.000000   0.000000   0.000000   0.000000
    24  N    0.000000   0.000000   0.000000   0.000000   0.000000   0.000000
    25  H    0.000000   0.000000   0.000000   0.000000   0.000000   0.000000
    26  H    0.000000   0.000000   0.000000   0.000000   0.000000   0.000000
    27  H    0.000000   0.000000   0.000000   0.000000   0.000000   0.000000
    28  H    0.000000   0.000000   0.000000   0.000000   0.000000   0.000000
               7          8          9         10         11         12
     1  C    0.000000   0.000000   0.000000   0.000000   0.000000   0.000000
     2  C    0.000000   0.000000   0.000000   0.000000   0.000000   0.000000
     3  C    0.000000   0.000000   0.000000   0.000000   0.000000   0.000000
     4  O    0.000000   0.000000   0.000000   0.000000   0.000000   0.000000
     5  C    0.000000   0.000000   0.000000   0.000000   0.000000   0.000000
     6  C    0.000000   0.000000   0.000000   0.000000   0.000000   0.000000
     7  O    6.289098   0.000000   0.000000   0.000000   0.000000   0.000000
     8  C    0.000000   4.056871   0.000000   0.000000   0.000000   0.000000
     9  C    0.000000   0.000000   3.819659   0.000000   0.000000   0.000000
    10  C    0.000000   0.000000   0.000000   4.152816   0.000000   0.000000
    11  C    0.000000   0.000000   0.000000   0.000000   4.152816   0.000000
    12  C    0.000000   0.000000   0.000000   0.000000   0.000000   3.819659
    13  C    0.000000   0.000000   0.000000   0.000000   0.000000   0.000000
    14  C    0.000000   0.000000   0.000000   0.000000   0.000000   0.000000
    15  C    0.000000   0.000000   0.000000   0.000000   0.000000   0.000000
    16  C    0.000000   0.000000   0.000000   0.000000   0.000000   0.000000
    17  H    0.000000   0.000000   0.000000   0.000000   0.000000   0.000000
    18  H    0.000000   0.000000   0.000000   0.000000   0.000000   0.000000
    19  H    0.000000   0.000000   0.000000   0.000000   0.000000   0.000000
    20  H    0.000000   0.000000   0.000000   0.000000   0.000000   0.000000
    21  H    0.000000   0.000000   0.000000   0.000000   0.000000   0.000000
    22  N    0.000000   0.000000   0.000000   0.000000   0.000000   0.000000
    23  H    0.000000   0.000000   0.000000   0.000000   0.000000   0.000000
    24  N    0.000000   0.000000   0.000000   0.000000   0.000000   0.000000
    25  H    0.000000   0.000000   0.000000   0.000000   0.000000   0.000000
    26  H    0.000000   0.000000   0.000000   0.000000   0.000000   0.000000
    27  H    0.000000   0.000000   0.000000   0.000000   0.000000   0.000000
    28  H    0.000000   0.000000   0.000000   0.000000   0.000000   0.000000
              13         14         15         16         17         18
     1  C    0.000000   0.000000   0.000000   0.000000   0.000000   0.000000
     2  C    0.000000   0.000000   0.000000   0.000000   0.000000   0.000000
     3  C    0.000000   0.000000   0.000000   0.000000   0.000000   0.000000
     4  O    0.000000   0.000000   0.000000   0.000000   0.000000   0.000000
     5  C    0.000000   0.000000   0.000000   0.000000   0.000000   0.000000
     6  C    0.000000   0.000000   0.000000   0.000000   0.000000   0.000000
     7  O    0.000000   0.000000   0.000000   0.000000   0.000000   0.000000
     8  C    0.000000   0.000000   0.000000   0.000000   0.000000   0.000000
     9  C    0.000000   0.000000   0.000000   0.000000   0.000000   0.000000
    10  C    0.000000   0.000000   0.000000   0.000000   0.000000   0.000000
    11  C    0.000000   0.000000   0.000000   0.000000   0.000000   0.000000
    12  C    0.000000   0.000000   0.000000   0.000000   0.000000   0.000000
    13  C    4.216992   0.000000   0.000000   0.000000   0.000000   0.000000
    14  C    0.000000   4.064053   0.000000   0.000000   0.000000   0.000000
    15  C    0.000000   0.000000   4.216992   0.000000   0.000000   0.000000
    16  C    0.000000   0.000000   0.000000   4.064053   0.000000   0.000000
    17  H    0.000000   0.000000   0.000000   0.000000   0.839766   0.000000
    18  H    0.000000   0.000000   0.000000   0.000000   0.000000   0.866127
    19  H    0.000000   0.000000   0.000000   0.000000   0.000000   0.000000
    20  H    0.000000   0.000000   0.000000   0.000000   0.000000   0.000000
    21  H    0.000000   0.000000   0.000000   0.000000   0.000000   0.000000
    22  N    0.000000   0.000000   0.000000   0.000000   0.000000   0.000000
    23  H    0.000000   0.000000   0.000000   0.000000   0.000000   0.000000
    24  N    0.000000   0.000000   0.000000   0.000000   0.000000   0.000000
    25  H    0.000000   0.000000   0.000000   0.000000   0.000000   0.000000
    26  H    0.000000   0.000000   0.000000   0.000000   0.000000   0.000000
    27  H    0.000000   0.000000   0.000000   0.000000   0.000000   0.000000
    28  H    0.000000   0.000000   0.000000   0.000000   0.000000   0.000000
              19         20         21         22         23         24
     1  C    0.000000   0.000000   0.000000   0.000000   0.000000   0.000000
     2  C    0.000000   0.000000   0.000000   0.000000   0.000000   0.000000
     3  C    0.000000   0.000000   0.000000   0.000000   0.000000   0.000000
     4  O    0.000000   0.000000   0.000000   0.000000   0.000000   0.000000
     5  C    0.000000   0.000000   0.000000   0.000000   0.000000   0.000000
     6  C    0.000000   0.000000   0.000000   0.000000   0.000000   0.000000
     7  O    0.000000   0.000000   0.000000   0.000000   0.000000   0.000000
     8  C    0.000000   0.000000   0.000000   0.000000   0.000000   0.000000
     9  C    0.000000   0.000000   0.000000   0.000000   0.000000   0.000000
    10  C    0.000000   0.000000   0.000000   0.000000   0.000000   0.000000
    11  C    0.000000   0.000000   0.000000   0.000000   0.000000   0.000000
    12  C    0.000000   0.000000   0.000000   0.000000   0.000000   0.000000
    13  C    0.000000   0.000000   0.000000   0.000000   0.000000   0.000000
    14  C    0.000000   0.000000   0.000000   0.000000   0.000000   0.000000
    15  C    0.000000   0.000000   0.000000   0.000000   0.000000   0.000000
    16  C    0.000000   0.000000   0.000000   0.000000   0.000000   0.000000
    17  H    0.000000   0.000000   0.000000   0.000000   0.000000   0.000000
    18  H    0.000000   0.000000   0.000000   0.000000   0.000000   0.000000
    19  H    0.862236   0.000000   0.000000   0.000000   0.000000   0.000000
    20  H    0.000000   0.862236   0.000000   0.000000   0.000000   0.000000
    21  H    0.000000   0.000000   0.866127   0.000000   0.000000   0.000000
    22  N    0.000000   0.000000   0.000000   5.381880   0.000000   0.000000
    23  H    0.000000   0.000000   0.000000   0.000000   0.839766   0.000000
    24  N    0.000000   0.000000   0.000000   0.000000   0.000000   5.381880
    25  H    0.000000   0.000000   0.000000   0.000000   0.000000   0.000000
    26  H    0.000000   0.000000   0.000000   0.000000   0.000000   0.000000
    27  H    0.000000   0.000000   0.000000   0.000000   0.000000   0.000000
    28  H    0.000000   0.000000   0.000000   0.000000   0.000000   0.000000
              25         26         27         28
     1  C    0.000000   0.000000   0.000000   0.000000
     2  C    0.000000   0.000000   0.000000   0.000000
     3  C    0.000000   0.000000   0.000000   0.000000
     4  O    0.000000   0.000000   0.000000   0.000000
     5  C    0.000000   0.000000   0.000000   0.000000
     6  C    0.000000   0.000000   0.000000   0.000000
     7  O    0.000000   0.000000   0.000000   0.000000
     8  C    0.000000   0.000000   0.000000   0.000000
     9  C    0.000000   0.000000   0.000000   0.000000
    10  C    0.000000   0.000000   0.000000   0.000000
    11  C    0.000000   0.000000   0.000000   0.000000
    12  C    0.000000   0.000000   0.000000   0.000000
    13  C    0.000000   0.000000   0.000000   0.000000
    14  C    0.000000   0.000000   0.000000   0.000000
    15  C    0.000000   0.000000   0.000000   0.000000
    16  C    0.000000   0.000000   0.000000   0.000000
    17  H    0.000000   0.000000   0.000000   0.000000
    18  H    0.000000   0.000000   0.000000   0.000000
    19  H    0.000000   0.000000   0.000000   0.000000
    20  H    0.000000   0.000000   0.000000   0.000000
    21  H    0.000000   0.000000   0.000000   0.000000
    22  N    0.000000   0.000000   0.000000   0.000000
    23  H    0.000000   0.000000   0.000000   0.000000
    24  N    0.000000   0.000000   0.000000   0.000000
    25  H    0.740080   0.000000   0.000000   0.000000
    26  H    0.000000   0.778147   0.000000   0.000000
    27  H    0.000000   0.000000   0.778148   0.000000
    28  H    0.000000   0.000000   0.000000   0.740079
 Mulliken charges:
               1
     1  C    0.345033
     2  C   -0.205066
     3  C   -0.205067
     4  O   -0.385719
     5  C    0.297171
     6  C   -0.056871
     7  O   -0.289098
     8  C   -0.056871
     9  C    0.180341
    10  C   -0.152816
    11  C   -0.152816
    12  C    0.180341
    13  C   -0.216992
    14  C   -0.064053
    15  C   -0.216992
    16  C   -0.064053
    17  H    0.160234
    18  H    0.133873
    19  H    0.137764
    20  H    0.137764
    21  H    0.133873
    22  N   -0.381880
    23  H    0.160234
    24  N   -0.381880
    25  H    0.259920
    26  H    0.221853
    27  H    0.221852
    28  H    0.259921
 Sum of Mulliken charges =  -0.00000
 Mulliken charges with hydrogens summed into heavy atoms:
               1
     1  C    0.345033
     2  C   -0.205066
     3  C   -0.205067
     4  O   -0.385719
     5  C    0.297171
     6  C   -0.056871
     7  O   -0.289098
     8  C   -0.056871
     9  C    0.180341
    10  C    0.007418
    11  C    0.007418
    12  C    0.180341
    13  C   -0.083119
    14  C    0.073711
    15  C   -0.083118
    16  C    0.073711
    22  N    0.099893
    24  N    0.099893
 Charge=              0.0000 electrons
 Dipole moment (field-independent basis, Debye):
    X=             -0.0000    Y=             -3.2773    Z=              0.0002  Tot=              3.2773
 N-N= 6.662386741401D+02 E-N=-1.205467057852D+03  KE=-6.220412202410D+01
 1\1\GINC-GTX1080DELTA\FOpt\RAM1\ZDO\C14H10N2O2\MVEROT\12-Apr-2022\0\\#
 n AM1 Opt\\Geometry optimization\\0,1\C,-0.0056187287,1.4924377656,0.0
 003361418\C,1.2699683359,0.7493306585,0.0001970094\C,-1.2805813712,0.7
 482617062,0.000144905\O,-0.006145745,2.7431248916,0.000565857\C,-0.004
 3981017,-1.421558641,-0.0002998498\C,-1.2720891854,-0.6615165116,-0.00
 01608746\O,-0.0038782836,-2.6624431352,-0.0006266833\C,1.2626558966,-0
 .6604546547,-0.0001124866\C,2.5374987333,1.4131973097,0.0003638659\C,-
 2.4460795732,-1.4072411193,-0.0003459705\C,2.4372694284,-1.405197226,-
 0.0002552136\C,-2.5486652901,1.4110683761,0.0002587186\C,3.7309215458,
 0.619623933,0.00021234\C,3.6755060333,-0.7551319149,-0.000089602\C,-3.
 7414245594,0.6164980564,0.0000646163\C,-3.6848594035,-0.7582111397,-0.
 0002297914\H,2.3849687439,-2.5057917962,-0.0004977087\H,4.7117028954,1
 .1210090339,0.0003400915\H,4.6035916437,-1.3477105084,-0.0002022689\H,
 -4.6124491769,-1.3515655869,-0.0003751672\H,-4.7226247157,1.1170631503
 ,0.0001521041\N,2.6907782209,2.7724823904,0.0006639279\H,-2.3928587768
 ,-2.507791595,-0.0005834206\N,-2.703076585,2.7702252011,0.0005430181\H
 ,1.9092307726,3.3815610345,0.0007786706\H,3.6009418904,3.1558557062,0.
 0007583677\H,-3.6135588928,3.1528411931,0.0006094337\H,-1.9220357513,3
 .3799534219,0.0006899697\\Version=AM64L-G09RevD.01\State=1-A\HF=-0.015
 5835\RMSD=6.124e-09\RMSF=9.279e-05\Dipole=-0.0005322,1.2894083,0.00034
 11\PG=C01 [X(C14H10N2O2)]\\@


 DO NOT LET SELFISH MEN OR GREEDY INTERESTS SKIN YOUR COUNTRY OF ITS
 BEAUTY, ITS RICHES, OR ITS ROMANCE. -- THEODORE ROOSEVELT
 Job cpu time:       0 days  0 hours  0 minutes  3.9 seconds.
 File lengths (MBytes):  RWF=    132 Int=      0 D2E=      0 Chk=      4 Scr=      2
 Normal termination of Gaussian 09 at Tue Apr 12 01:07:11 2022.
