 Entering Gaussian System, Link 0=g09
 Input=/scratch/mverot/1-3-propanediol-redundant-opt/1-3-propanediol-redundant-opt.com
 Output=/scratch/mverot/1-3-propanediol-redundant-opt/1-3-propanediol-redundant-opt.log
 Initial command:
 /opt/g09/l1.exe "/scratch/mverot/1-3-propanediol-redundant-opt/Gau-1489328.inp" -scrdir="/scratch/mverot/1-3-propanediol-redundant-opt/"
 Entering Link 1 = /opt/g09/l1.exe PID=   1489330.
  
 Copyright (c) 1988,1990,1992,1993,1995,1998,2003,2009,2013,
            Gaussian, Inc.  All Rights Reserved.
  
 This is part of the Gaussian(R) 09 program.  It is based on
 the Gaussian(R) 03 system (copyright 2003, Gaussian, Inc.),
 the Gaussian(R) 98 system (copyright 1998, Gaussian, Inc.),
 the Gaussian(R) 94 system (copyright 1995, Gaussian, Inc.),
 the Gaussian 92(TM) system (copyright 1992, Gaussian, Inc.),
 the Gaussian 90(TM) system (copyright 1990, Gaussian, Inc.),
 the Gaussian 88(TM) system (copyright 1988, Gaussian, Inc.),
 the Gaussian 86(TM) system (copyright 1986, Carnegie Mellon
 University), and the Gaussian 82(TM) system (copyright 1983,
 Carnegie Mellon University). Gaussian is a federally registered
 trademark of Gaussian, Inc.
  
 This software contains proprietary and confidential information,
 including trade secrets, belonging to Gaussian, Inc.
  
 This software is provided under written license and may be
 used, copied, transmitted, or stored only in accord with that
 written license.
  
 The following legend is applicable only to US Government
 contracts under FAR:
  
                    RESTRICTED RIGHTS LEGEND
  
 Use, reproduction and disclosure by the US Government is
 subject to restrictions as set forth in subparagraphs (a)
 and (c) of the Commercial Computer Software - Restricted
 Rights clause in FAR 52.227-19.
  
 Gaussian, Inc.
 340 Quinnipiac St., Bldg. 40, Wallingford CT 06492
  
  
 ---------------------------------------------------------------
 Warning -- This program may not be used in any manner that
 competes with the business of Gaussian, Inc. or will provide
 assistance to any competitor of Gaussian, Inc.  The licensee
 of this program is prohibited from giving any competitor of
 Gaussian, Inc. access to this program.  By using this program,
 the user acknowledges that Gaussian, Inc. is engaged in the
 business of creating and licensing software in the field of
 computational chemistry and represents and warrants to the
 licensee that it is not a competitor of Gaussian, Inc. and that
 it will not use this program in any manner prohibited above.
 ---------------------------------------------------------------
  

 Cite this work as:
 Gaussian 09, Revision D.01,
 M. J. Frisch, G. W. Trucks, H. B. Schlegel, G. E. Scuseria, 
 M. A. Robb, J. R. Cheeseman, G. Scalmani, V. Barone, B. Mennucci, 
 G. A. Petersson, H. Nakatsuji, M. Caricato, X. Li, H. P. Hratchian, 
 A. F. Izmaylov, J. Bloino, G. Zheng, J. L. Sonnenberg, M. Hada, 
 M. Ehara, K. Toyota, R. Fukuda, J. Hasegawa, M. Ishida, T. Nakajima, 
 Y. Honda, O. Kitao, H. Nakai, T. Vreven, J. A. Montgomery, Jr., 
 J. E. Peralta, F. Ogliaro, M. Bearpark, J. J. Heyd, E. Brothers, 
 K. N. Kudin, V. N. Staroverov, T. Keith, R. Kobayashi, J. Normand, 
 K. Raghavachari, A. Rendell, J. C. Burant, S. S. Iyengar, J. Tomasi, 
 M. Cossi, N. Rega, J. M. Millam, M. Klene, J. E. Knox, J. B. Cross, 
 V. Bakken, C. Adamo, J. Jaramillo, R. Gomperts, R. E. Stratmann, 
 O. Yazyev, A. J. Austin, R. Cammi, C. Pomelli, J. W. Ochterski, 
 R. L. Martin, K. Morokuma, V. G. Zakrzewski, G. A. Voth, 
 P. Salvador, J. J. Dannenberg, S. Dapprich, A. D. Daniels, 
 O. Farkas, J. B. Foresman, J. V. Ortiz, J. Cioslowski, 
 and D. J. Fox, Gaussian, Inc., Wallingford CT, 2013.
 
 ******************************************
 Gaussian 09:  AM64L-G09RevD.01 24-Apr-2013
                18-Apr-2022 
 ******************************************
 %chk=1-3-propanediol-opt
 -----------------------
 #n PM6 Opt=modredundant
 -----------------------
 1/14=-1,18=120,19=15,26=1,38=1/1,3;
 2/9=110,12=2,17=6,18=5,40=1/2;
 3/5=2,16=1,25=1,41=3900000,71=1/1,2,3;
 4/35=1/1;
 5/5=2,35=1,38=5/2;
 6/7=2,8=2,9=2,10=2,28=1/1;
 7//1,2,3,16;
 1/14=-1,18=20,19=15,26=1/3(2);
 2/9=110/2;
 99//99;
 2/9=110/2;
 3/5=2,16=1,25=1,41=3900000,71=1,135=20/1,2,3;
 4/5=5,16=3,35=1/1;
 5/5=2,35=1,38=5/2;
 7//1,2,3,16;
 1/14=-1,18=20,19=15,26=1/3(-5);
 2/9=110/2;
 6/7=2,8=2,9=2,10=2,19=2,28=1/1;
 99/9=1/99;
 -------------------------
 Optimisation de geometrie
 -------------------------
 Symbolic Z-matrix:
 Charge =  0 Multiplicity = 1
 C                     1.0003    2.0505    1.2298 
 O                     1.6167    3.2158    0.6619 
 C                     1.9842    0.8895    1.1354 
 C                     3.2981    1.1469    1.8851 
 O                     4.1136    2.1208    1.2591 
 H                     0.0703    1.8109    0.6924 
 H                     0.7421    2.2317    2.2855 
 H                     1.0489    3.9812    0.8361 
 H                     2.2102    0.6867    0.0812 
 H                     1.4929   -0.0037    1.5453 
 H                     3.8898    0.225     1.9226 
 H                     3.0683    1.4232    2.9315 
 H                     3.5208    2.8609    1.0374 
 
 The following ModRedundant input section has been read:
 D       2       1       3       4 S  36 10.000                                
 

 GradGradGradGradGradGradGradGradGradGradGradGradGradGradGradGradGradGrad
 Berny optimization.
 Initialization pass.
                           ----------------------------
                           !    Initial Parameters    !
                           ! (Angstroms and Degrees)  !
 --------------------------                            --------------------------
 ! Name  Definition              Value          Derivative Info.                !
 --------------------------------------------------------------------------------
 ! R1    R(1,2)                  1.4354         estimate D2E/DX2                !
 ! R2    R(1,3)                  1.5248         estimate D2E/DX2                !
 ! R3    R(1,6)                  1.1005         estimate D2E/DX2                !
 ! R4    R(1,7)                  1.1018         estimate D2E/DX2                !
 ! R5    R(2,8)                  0.9688         estimate D2E/DX2                !
 ! R6    R(3,4)                  1.5345         estimate D2E/DX2                !
 ! R7    R(3,9)                  1.0971         estimate D2E/DX2                !
 ! R8    R(3,10)                 1.0987         estimate D2E/DX2                !
 ! R9    R(4,5)                  1.4161         estimate D2E/DX2                !
 ! R10   R(4,11)                 1.0961         estimate D2E/DX2                !
 ! R11   R(4,12)                 1.1064         estimate D2E/DX2                !
 ! R12   R(5,13)                 0.9738         estimate D2E/DX2                !
 ! A1    A(2,1,3)              108.4547         estimate D2E/DX2                !
 ! A2    A(2,1,6)              110.2701         estimate D2E/DX2                !
 ! A3    A(2,1,7)              110.2551         estimate D2E/DX2                !
 ! A4    A(3,1,6)              110.4443         estimate D2E/DX2                !
 ! A5    A(3,1,7)              109.6186         estimate D2E/DX2                !
 ! A6    A(6,1,7)              107.7975         estimate D2E/DX2                !
 ! A7    A(1,2,8)              108.576          estimate D2E/DX2                !
 ! A8    A(1,3,4)              113.2378         estimate D2E/DX2                !
 ! A9    A(1,3,9)              109.4619         estimate D2E/DX2                !
 ! A10   A(1,3,10)             107.9003         estimate D2E/DX2                !
 ! A11   A(4,3,9)              108.9109         estimate D2E/DX2                !
 ! A12   A(4,3,10)             109.6925         estimate D2E/DX2                !
 ! A13   A(9,3,10)             107.4775         estimate D2E/DX2                !
 ! A14   A(3,4,5)              113.1086         estimate D2E/DX2                !
 ! A15   A(3,4,11)             109.7463         estimate D2E/DX2                !
 ! A16   A(3,4,12)             109.0336         estimate D2E/DX2                !
 ! A17   A(5,4,11)             106.4205         estimate D2E/DX2                !
 ! A18   A(5,4,12)             111.4659         estimate D2E/DX2                !
 ! A19   A(11,4,12)            106.8466         estimate D2E/DX2                !
 ! A20   A(4,5,13)             105.8283         estimate D2E/DX2                !
 ! D1    D(3,1,2,8)           -171.8373         estimate D2E/DX2                !
 ! D2    D(6,1,2,8)             67.1123         estimate D2E/DX2                !
 ! D3    D(7,1,2,8)            -51.8083         estimate D2E/DX2                !
 ! D4    D(2,1,3,4)             60.0254         Scan                            !
 ! D5    D(2,1,3,9)            -61.6978         estimate D2E/DX2                !
 ! D6    D(2,1,3,10)          -178.3692         estimate D2E/DX2                !
 ! D7    D(6,1,3,4)           -179.0318         estimate D2E/DX2                !
 ! D8    D(6,1,3,9)             59.2449         estimate D2E/DX2                !
 ! D9    D(6,1,3,10)           -57.4264         estimate D2E/DX2                !
 ! D10   D(7,1,3,4)            -60.3999         estimate D2E/DX2                !
 ! D11   D(7,1,3,9)            177.8768         estimate D2E/DX2                !
 ! D12   D(7,1,3,10)            61.2055         estimate D2E/DX2                !
 ! D13   D(1,3,4,5)            -70.6852         estimate D2E/DX2                !
 ! D14   D(1,3,4,11)           170.6476         estimate D2E/DX2                !
 ! D15   D(1,3,4,12)            53.9321         estimate D2E/DX2                !
 ! D16   D(9,3,4,5)             51.3464         estimate D2E/DX2                !
 ! D17   D(9,3,4,11)           -67.3209         estimate D2E/DX2                !
 ! D18   D(9,3,4,12)           175.9636         estimate D2E/DX2                !
 ! D19   D(10,3,4,5)           168.7207         estimate D2E/DX2                !
 ! D20   D(10,3,4,11)           50.0534         estimate D2E/DX2                !
 ! D21   D(10,3,4,12)          -66.6621         estimate D2E/DX2                !
 ! D22   D(3,4,5,13)            46.2397         estimate D2E/DX2                !
 ! D23   D(11,4,5,13)          166.8172         estimate D2E/DX2                !
 ! D24   D(12,4,5,13)          -77.0447         estimate D2E/DX2                !
 --------------------------------------------------------------------------------
 Trust Radius=3.00D-01 FncErr=1.00D-07 GrdErr=1.00D-07
 Number of optimizations in scan=  37
 Number of steps in this run=     66 maximum allowed number of steps=    100.
 GradGradGradGradGradGradGradGradGradGradGradGradGradGradGradGradGradGrad

                          Input orientation:                          
 ---------------------------------------------------------------------
 Center     Atomic      Atomic             Coordinates (Angstroms)
 Number     Number       Type             X           Y           Z
 ---------------------------------------------------------------------
      1          6           0        1.000300    2.050500    1.229800
      2          8           0        1.616700    3.215800    0.661900
      3          6           0        1.984200    0.889500    1.135400
      4          6           0        3.298100    1.146900    1.885100
      5          8           0        4.113600    2.120800    1.259100
      6          1           0        0.070300    1.810900    0.692400
      7          1           0        0.742100    2.231700    2.285500
      8          1           0        1.048900    3.981200    0.836100
      9          1           0        2.210200    0.686700    0.081200
     10          1           0        1.492900   -0.003700    1.545300
     11          1           0        3.889800    0.225000    1.922600
     12          1           0        3.068300    1.423200    2.931500
     13          1           0        3.520800    2.860900    1.037400
 ---------------------------------------------------------------------
                    Distance matrix (angstroms):
                    1          2          3          4          5
     1  C    0.000000
     2  O    1.435404   0.000000
     3  C    1.524760   2.402276   0.000000
     4  C    2.554564   2.933202   1.534483   0.000000
     5  O    3.114231   2.791090   2.462873   1.416121   0.000000
     6  H    1.100503   2.089504   2.169848   3.504586   4.094565
     7  H    1.101818   2.090324   2.160334   2.805396   3.526019
     8  H    1.971031   0.968803   3.243914   3.767301   3.610042
     9  H    2.154783   2.661917   1.097060   2.156239   2.658387
    10  H    2.135868   3.340794   1.098727   2.167508   3.385776
    11  H    3.487353   3.962478   2.166231   1.096091   2.020984
    12  H    2.750620   3.235992   2.164736   1.106392   2.091942
    13  H    2.654560   1.972955   2.501432   1.925094   0.973812
                    6          7          8          9         10
     6  H    0.000000
     7  H    1.779426   0.000000
     8  H    2.385060   2.292518   0.000000
     9  H    2.493304   3.066151   3.573825   0.000000
    10  H    2.458455   2.471560   4.071797   1.770525   0.000000
    11  H    4.314748   3.750541   4.833243   2.534754   2.437168
    12  H    3.761899   2.546015   3.874538   3.066428   2.537613
    13  H    3.623186   3.110437   2.721375   2.712773   3.546304
                   11         12         13
    11  H    0.000000
    12  H    1.768735   0.000000
    13  H    2.804944   2.420610   0.000000
 Stoichiometry    C3H8O2
 Framework group  C1[X(C3H8O2)]
 Deg. of freedom    33
 Full point group                 C1      NOp   1
 Largest Abelian subgroup         C1      NOp   1
 Largest concise Abelian subgroup C1      NOp   1
                         Standard orientation:                         
 ---------------------------------------------------------------------
 Center     Atomic      Atomic             Coordinates (Angstroms)
 Number     Number       Type             X           Y           Z
 ---------------------------------------------------------------------
      1          6           0        1.279122    0.476932    0.183540
      2          8           0        1.313242   -0.929184   -0.102915
      3          6           0       -0.033396    1.045416   -0.344677
      4          6           0       -1.272035    0.399497    0.290304
      5          8           0       -1.477722   -0.937696   -0.128032
      6          1           0        2.134825    0.983046   -0.288400
      7          1           0        1.345017    0.646545    1.270229
      8          1           0        2.081408   -1.316380    0.342709
      9          1           0       -0.079373    0.909092   -1.432263
     10          1           0       -0.037080    2.126234   -0.147141
     11          1           0       -2.170198    0.956633   -0.000073
     12          1           0       -1.192079    0.471487    1.391452
     13          1           0       -0.608824   -1.372689   -0.063945
 ---------------------------------------------------------------------
 Rotational constants (GHZ):      7.6403067      3.9465992      2.8720686
 Standard basis: VSTO-6G (5D, 7F)
 There are    28 symmetry adapted cartesian basis functions of A   symmetry.
 There are    28 symmetry adapted basis functions of A   symmetry.
    28 basis functions,   168 primitive gaussians,    28 cartesian basis functions
    16 alpha electrons       16 beta electrons
       nuclear repulsion energy       137.3813313895 Hartrees.
 Integral buffers will be    131072 words long.
 Regular integral format.
 Two-electron integral symmetry is turned off.
 Do NDO integrals.
 One-electron integrals computed using PRISM.
 NBasis=    28 RedAO= F EigKep=  0.00D+00  NBF=    28
 NBsUse=    28 1.00D-04 EigRej=  0.00D+00 NBFU=    28
 Simple Huckel Guess.
 Overlap will be assumed to be unity.
 Keep J ints in memory in canonical form, NReq=891302.
 Requested convergence on RMS density matrix=1.00D-08 within 128 cycles.
 Requested convergence on MAX density matrix=1.00D-06.
 Requested convergence on             energy=1.00D-06.
 No special actions if energy rises.
 SCF Done:  E(RPM6) = -0.158412916133     A.U. after   14 cycles
            NFock= 13  Conv=0.19D-08     -V/T= 0.9912

 **********************************************************************

            Population analysis using the SCF density.

 **********************************************************************

 Orbital symmetries:
       Occupied  (A) (A) (A) (A) (A) (A) (A) (A) (A) (A) (A) (A)
                 (A) (A) (A) (A)
       Virtual   (A) (A) (A) (A) (A) (A) (A) (A) (A) (A) (A) (A)
 The electronic state is 1-A.
 Alpha  occ. eigenvalues --   -1.12667  -1.08804  -1.00750  -0.88735  -0.77376
 Alpha  occ. eigenvalues --   -0.68869  -0.65481  -0.57725  -0.56610  -0.55573
 Alpha  occ. eigenvalues --   -0.51089  -0.48127  -0.47549  -0.43310  -0.39751
 Alpha  occ. eigenvalues --   -0.37303
 Alpha virt. eigenvalues --    0.08246   0.11834   0.12362   0.13815   0.18001
 Alpha virt. eigenvalues --    0.18865   0.19211   0.19624   0.19881   0.21050
 Alpha virt. eigenvalues --    0.22491   0.23981
          Condensed to atoms (all electrons):
               1          2          3          4          5          6
     1  C    3.986530   0.000000   0.000000   0.000000   0.000000   0.000000
     2  O    0.000000   6.552236   0.000000   0.000000   0.000000   0.000000
     3  C    0.000000   0.000000   4.377533   0.000000   0.000000   0.000000
     4  C    0.000000   0.000000   0.000000   3.969498   0.000000   0.000000
     5  O    0.000000   0.000000   0.000000   0.000000   6.539385   0.000000
     6  H    0.000000   0.000000   0.000000   0.000000   0.000000   0.886687
     7  H    0.000000   0.000000   0.000000   0.000000   0.000000   0.000000
     8  H    0.000000   0.000000   0.000000   0.000000   0.000000   0.000000
     9  H    0.000000   0.000000   0.000000   0.000000   0.000000   0.000000
    10  H    0.000000   0.000000   0.000000   0.000000   0.000000   0.000000
    11  H    0.000000   0.000000   0.000000   0.000000   0.000000   0.000000
    12  H    0.000000   0.000000   0.000000   0.000000   0.000000   0.000000
    13  H    0.000000   0.000000   0.000000   0.000000   0.000000   0.000000
               7          8          9         10         11         12
     1  C    0.000000   0.000000   0.000000   0.000000   0.000000   0.000000
     2  O    0.000000   0.000000   0.000000   0.000000   0.000000   0.000000
     3  C    0.000000   0.000000   0.000000   0.000000   0.000000   0.000000
     4  C    0.000000   0.000000   0.000000   0.000000   0.000000   0.000000
     5  O    0.000000   0.000000   0.000000   0.000000   0.000000   0.000000
     6  H    0.000000   0.000000   0.000000   0.000000   0.000000   0.000000
     7  H    0.892044   0.000000   0.000000   0.000000   0.000000   0.000000
     8  H    0.000000   0.690361   0.000000   0.000000   0.000000   0.000000
     9  H    0.000000   0.000000   0.824243   0.000000   0.000000   0.000000
    10  H    0.000000   0.000000   0.000000   0.846821   0.000000   0.000000
    11  H    0.000000   0.000000   0.000000   0.000000   0.868848   0.000000
    12  H    0.000000   0.000000   0.000000   0.000000   0.000000   0.894989
    13  H    0.000000   0.000000   0.000000   0.000000   0.000000   0.000000
              13
     1  C    0.000000
     2  O    0.000000
     3  C    0.000000
     4  C    0.000000
     5  O    0.000000
     6  H    0.000000
     7  H    0.000000
     8  H    0.000000
     9  H    0.000000
    10  H    0.000000
    11  H    0.000000
    12  H    0.000000
    13  H    0.670824
 Mulliken charges:
               1
     1  C    0.013470
     2  O   -0.552236
     3  C   -0.377533
     4  C    0.030502
     5  O   -0.539385
     6  H    0.113313
     7  H    0.107956
     8  H    0.309639
     9  H    0.175757
    10  H    0.153179
    11  H    0.131152
    12  H    0.105011
    13  H    0.329176
 Sum of Mulliken charges =   0.00000
 Mulliken charges with hydrogens summed into heavy atoms:
               1
     1  C    0.234740
     2  O   -0.242598
     3  C   -0.048597
     4  C    0.266664
     5  O   -0.210209
 Charge=              0.0000 electrons
 Dipole moment (field-independent basis, Debye):
    X=              2.8780    Y=              2.4580    Z=              1.6273  Tot=              4.1198
 N-N= 1.373813313895D+02 E-N=-2.358964082405D+02  KE=-1.798869255642D+01
 Calling FoFJK, ICntrl=      2127 FMM=F ISym2X=0 I1Cent= 0 IOpClX= 0 NMat=1 NMatS=1 NMatT=0.
 ***** Axes restored to original set *****
 -------------------------------------------------------------------
 Center     Atomic                   Forces (Hartrees/Bohr)
 Number     Number              X              Y              Z
 -------------------------------------------------------------------
      1        6          -0.003768108   -0.008855056    0.007965439
      2        8           0.000319671   -0.002121965   -0.001554188
      3        6           0.001896715    0.005441671   -0.002033621
      4        6          -0.009594689   -0.013621855    0.010371292
      5        8           0.001566592   -0.005328512    0.003177499
      6        1          -0.001869895    0.002585138   -0.004530993
      7        1          -0.000350025    0.005068860    0.002720240
      8        1          -0.000137326    0.005797494   -0.000772579
      9        1           0.001711247   -0.001686057   -0.006971965
     10        1          -0.000947034   -0.005677431    0.000172170
     11        1           0.007476749   -0.002419385   -0.002235556
     12        1           0.003641057    0.005688813    0.000754769
     13        1           0.000055048    0.015128284   -0.007062507
 -------------------------------------------------------------------
 Cartesian Forces:  Max     0.015128284 RMS     0.005556066

 GradGradGradGradGradGradGradGradGradGradGradGradGradGradGradGradGradGrad
 Berny optimization.
 FormGI is forming the generalized inverse of G from B-inverse, IUseBI=4.
 Internal  Forces:  Max     0.019113027 RMS     0.004462846
 Search for a local minimum.
 Step number   1 out of a maximum of   66 on scan point     1 out of    37
 All quantities printed in internal units (Hartrees-Bohrs-Radians)
 Mixed Optimization -- RFO/linear search
 Second derivative matrix not updated -- first step.
 ITU=  0
     Eigenvalues ---    0.00310   0.01223   0.01479   0.01719   0.04333
     Eigenvalues ---    0.04700   0.04853   0.05833   0.05910   0.08401
     Eigenvalues ---    0.11134   0.11531   0.11726   0.13531   0.14030
     Eigenvalues ---    0.16000   0.16000   0.21957   0.21979   0.22027
     Eigenvalues ---    0.29013   0.29913   0.32985   0.33482   0.33627
     Eigenvalues ---    0.33823   0.34009   0.34118   0.40223   0.43050
     Eigenvalues ---    0.52605   0.536221000.000001000.000001000.00000
     Eigenvalues --- 1000.000001000.000001000.000001000.000001000.00000
     Eigenvalues --- 1000.000001000.000001000.000001000.000001000.00000
     Eigenvalues --- 1000.000001000.000001000.000001000.000001000.00000
     Eigenvalues --- 1000.000001000.000001000.000001000.000001000.00000
     Eigenvalues --- 1000.00000
 RFO step:  Lambda=-5.94765319D-03 EMin= 3.09803529D-03
 Linear search not attempted -- first point.
 Iteration  1 RMS(Cart)=  0.04308602 RMS(Int)=  0.00213187
 Iteration  2 RMS(Cart)=  0.00212607 RMS(Int)=  0.00044783
 Iteration  3 RMS(Cart)=  0.00000585 RMS(Int)=  0.00044781
 Iteration  4 RMS(Cart)=  0.00000000 RMS(Int)=  0.00044781
 Iteration  1 RMS(Cart)=  0.00001252 RMS(Int)=  0.00000971
 Iteration  2 RMS(Cart)=  0.00000806 RMS(Int)=  0.00001077
 Iteration  3 RMS(Cart)=  0.00000518 RMS(Int)=  0.00001236
 Iteration  4 RMS(Cart)=  0.00000333 RMS(Int)=  0.00001363
 Iteration  5 RMS(Cart)=  0.00000215 RMS(Int)=  0.00001453
 Iteration  6 RMS(Cart)=  0.00000138 RMS(Int)=  0.00001513
 Iteration  7 RMS(Cart)=  0.00000089 RMS(Int)=  0.00001553
 Variable       Old X    -DE/DX   Delta X   Delta X   Delta X     New X
                                 (Linear)    (Quad)   (Total)
    R1        2.71252   0.00398   0.00000   0.00976   0.00976   2.72228
    R2        2.88138   0.00587   0.00000   0.01923   0.01923   2.90061
    R3        2.07965   0.00323   0.00000   0.00944   0.00944   2.08909
    R4        2.08213   0.00352   0.00000   0.01034   0.01034   2.09247
    R5        1.83077   0.00452   0.00000   0.00834   0.00834   1.83911
    R6        2.89975   0.00505   0.00000   0.01704   0.01704   2.91679
    R7        2.07314   0.00736   0.00000   0.02128   0.02128   2.09442
    R8        2.07629   0.00510   0.00000   0.01483   0.01483   2.09112
    R9        2.67608   0.00939   0.00000   0.02152   0.02152   2.69760
   R10        2.07131   0.00599   0.00000   0.01727   0.01727   2.08858
   R11        2.09078   0.00138   0.00000   0.00410   0.00410   2.09488
   R12        1.84024   0.01307   0.00000   0.02457   0.02457   1.86481
    A1        1.89289  -0.00490   0.00000  -0.02884  -0.02870   1.86419
    A2        1.92458  -0.00152   0.00000  -0.02980  -0.02978   1.89480
    A3        1.92431  -0.00092   0.00000  -0.02060  -0.02013   1.90418
    A4        1.92762   0.00281   0.00000   0.01985   0.01886   1.94648
    A5        1.91321   0.00485   0.00000   0.03963   0.03900   1.95220
    A6        1.88142  -0.00020   0.00000   0.02051   0.01917   1.90059
    A7        1.89501   0.00678   0.00000   0.04088   0.04088   1.93589
    A8        1.97637  -0.00101   0.00000  -0.00224  -0.00226   1.97411
    A9        1.91047   0.00051   0.00000   0.00138   0.00137   1.91184
   A10        1.88322   0.00139   0.00000   0.01616   0.01614   1.89936
   A11        1.90085   0.00022   0.00000  -0.00665  -0.00662   1.89423
   A12        1.91450  -0.00027   0.00000   0.00228   0.00219   1.91669
   A13        1.87584  -0.00084   0.00000  -0.01135  -0.01137   1.86447
   A14        1.97412   0.00026   0.00000  -0.00629  -0.00603   1.96809
   A15        1.91543   0.00290   0.00000   0.02507   0.02427   1.93971
   A16        1.90300   0.00454   0.00000   0.04097   0.04033   1.94333
   A17        1.85739  -0.00394   0.00000  -0.04452  -0.04448   1.81291
   A18        1.94545  -0.00428   0.00000  -0.03895  -0.03883   1.90662
   A19        1.86482   0.00043   0.00000   0.02451   0.02255   1.88737
   A20        1.84705   0.01911   0.00000   0.11518   0.11518   1.96223
    D1       -2.99913  -0.00085   0.00000  -0.00326  -0.00311  -3.00223
    D2        1.17133  -0.00028   0.00000   0.00880   0.00854   1.17987
    D3       -0.90422   0.00150   0.00000   0.01500   0.01511  -0.88912
    D4        1.04764   0.00091   0.00000   0.00000  -0.00000   1.04764
    D5       -1.07683   0.00094   0.00000   0.00906   0.00903  -1.06780
    D6       -3.11313   0.00089   0.00000   0.01280   0.01278  -3.10035
    D7       -3.12469  -0.00235   0.00000  -0.04282  -0.04320   3.11529
    D8        1.03402  -0.00231   0.00000  -0.03376  -0.03417   0.99985
    D9       -1.00228  -0.00237   0.00000  -0.03002  -0.03041  -1.03269
   D10       -1.05418   0.00213   0.00000   0.01903   0.01953  -1.03465
   D11        3.10454   0.00216   0.00000   0.02808   0.02856   3.13310
   D12        1.06824   0.00211   0.00000   0.03183   0.03231   1.10055
   D13       -1.23369  -0.00041   0.00000  -0.03976  -0.03979  -1.27348
   D14        2.97836   0.00241   0.00000   0.00339   0.00385   2.98221
   D15        0.94129  -0.00237   0.00000  -0.06391  -0.06440   0.87689
   D16        0.89616  -0.00028   0.00000  -0.04429  -0.04429   0.85188
   D17       -1.17497   0.00255   0.00000  -0.00114  -0.00065  -1.17562
   D18        3.07115  -0.00223   0.00000  -0.06844  -0.06890   3.00225
   D19        2.94473  -0.00132   0.00000  -0.06053  -0.06053   2.88420
   D20        0.87360   0.00151   0.00000  -0.01738  -0.01689   0.85671
   D21       -1.16347  -0.00327   0.00000  -0.08468  -0.08514  -1.24861
   D22        0.80703   0.00060   0.00000   0.00781   0.00768   0.81472
   D23        2.91151   0.00172   0.00000   0.00531   0.00505   2.91655
   D24       -1.34468  -0.00229   0.00000  -0.01166  -0.01126  -1.35594
         Item               Value     Threshold  Converged?
 Maximum Force            0.019113     0.000450     NO 
 RMS     Force            0.004499     0.000300     NO 
 Maximum Displacement     0.169093     0.001800     NO 
 RMS     Displacement     0.043524     0.001200     NO 
 Predicted change in Energy=-3.178890D-03
 GradGradGradGradGradGradGradGradGradGradGradGradGradGradGradGradGradGrad

                          Input orientation:                          
 ---------------------------------------------------------------------
 Center     Atomic      Atomic             Coordinates (Angstroms)
 Number     Number       Type             X           Y           Z
 ---------------------------------------------------------------------
      1          6           0        0.965090    2.030333    1.248360
      2          8           0        1.607075    3.194535    0.693632
      3          6           0        1.968955    0.874509    1.137193
      4          6           0        3.283190    1.137867    1.902583
      5          8           0        4.113428    2.104048    1.258396
      6          1           0        0.045626    1.826080    0.669576
      7          1           0        0.688210    2.236006    2.300558
      8          1           0        1.071631    3.992678    0.846662
      9          1           0        2.212126    0.695990    0.070715
     10          1           0        1.492806   -0.049683    1.516210
     11          1           0        3.912241    0.229832    1.938605
     12          1           0        3.085540    1.462317    2.944014
     13          1           0        3.610280    2.904889    0.976796
 ---------------------------------------------------------------------
                    Distance matrix (angstroms):
                    1          2          3          4          5
     1  C    0.000000
     2  O    1.440567   0.000000
     3  C    1.534937   2.389607   0.000000
     4  C    2.568675   2.915614   1.543501   0.000000
     5  O    3.149216   2.791044   2.474918   1.427507   0.000000
     6  H    1.105498   2.076384   2.196212   3.532105   4.119585
     7  H    1.107287   2.084539   2.201682   2.845737   3.582685
     8  H    2.005869   0.973217   3.257695   3.762434   3.604022
     9  H    2.173112   2.645153   1.108321   2.167528   2.647293
    10  H    2.162567   3.348827   1.106573   2.182896   3.401864
    11  H    3.521923   3.956415   2.198689   1.105229   2.003958
    12  H    2.773841   3.201665   2.203835   1.108564   2.075976
    13  H    2.799219   2.043748   2.615745   2.021494   0.986815
                    6          7          8          9         10
     6  H    0.000000
     7  H    1.800294   0.000000
     8  H    2.403787   2.312298   0.000000
     9  H    2.515841   3.109047   3.573649   0.000000
    10  H    2.515871   2.546950   4.119025   1.778456   0.000000
    11  H    4.371402   3.814462   4.839465   2.568407   2.471884
    12  H    3.813984   2.599966   3.854535   3.099349   2.619460
    13  H    3.736974   3.276926   2.764951   2.766777   3.674801
                   11         12         13
    11  H    0.000000
    12  H    1.792569   0.000000
    13  H    2.858705   2.495258   0.000000
 Stoichiometry    C3H8O2
 Framework group  C1[X(C3H8O2)]
 Deg. of freedom    33
 Full point group                 C1      NOp   1
 Largest Abelian subgroup         C1      NOp   1
 Largest concise Abelian subgroup C1      NOp   1
                         Standard orientation:                         
 ---------------------------------------------------------------------
 Center     Atomic      Atomic             Coordinates (Angstroms)
 Number     Number       Type             X           Y           Z
 ---------------------------------------------------------------------
      1          6           0        1.308153    0.469619    0.185675
      2          8           0        1.284688   -0.942845   -0.096513
      3          6           0       -0.008150    1.050960   -0.348573
      4          6           0       -1.257199    0.426534    0.308970
      5          8           0       -1.505884   -0.907583   -0.133818
      6          1           0        2.183697    0.915290   -0.321203
      7          1           0        1.411547    0.619249    1.277923
      8          1           0        2.035142   -1.394465    0.327761
      9          1           0       -0.067896    0.888428   -1.443283
     10          1           0       -0.006684    2.145655   -0.186883
     11          1           0       -2.173578    0.975199    0.024807
     12          1           0       -1.178326    0.435741    1.414686
     13          1           0       -0.691159   -1.464350   -0.127596
 ---------------------------------------------------------------------
 Rotational constants (GHZ):      7.5750903      3.9093999      2.8539563
 Standard basis: VSTO-6G (5D, 7F)
 There are    28 symmetry adapted cartesian basis functions of A   symmetry.
 There are    28 symmetry adapted basis functions of A   symmetry.
    28 basis functions,   168 primitive gaussians,    28 cartesian basis functions
    16 alpha electrons       16 beta electrons
       nuclear repulsion energy       136.8664018987 Hartrees.
 Integral buffers will be    131072 words long.
 Regular integral format.
 Two-electron integral symmetry is turned off.
 Do NDO integrals.
 One-electron integrals computed using PRISM.
 NBasis=    28 RedAO= F EigKep=  0.00D+00  NBF=    28
 NBsUse=    28 1.00D-04 EigRej=  0.00D+00 NBFU=    28
 Initial guess from the checkpoint file:  "1-3-propanediol-opt.chk"
 B after Tr=    -0.000000   -0.000000    0.000000
         Rot=    0.999946   -0.001111   -0.001563    0.010181 Ang=  -1.19 deg.
 Overlap will be assumed to be unity.
 Keep J ints in memory in canonical form, NReq=891302.
 Requested convergence on RMS density matrix=1.00D-08 within 128 cycles.
 Requested convergence on MAX density matrix=1.00D-06.
 Requested convergence on             energy=1.00D-06.
 No special actions if energy rises.
 SCF Done:  E(RPM6) = -0.160872495017     A.U. after   11 cycles
            NFock= 10  Conv=0.87D-08     -V/T= 0.9910
 Calling FoFJK, ICntrl=      2127 FMM=F ISym2X=0 I1Cent= 0 IOpClX= 0 NMat=1 NMatS=1 NMatT=0.
 ***** Axes restored to original set *****
 -------------------------------------------------------------------
 Center     Atomic                   Forces (Hartrees/Bohr)
 Number     Number              X              Y              Z
 -------------------------------------------------------------------
      1        6           0.000394130   -0.004844001    0.004361915
      2        8           0.002639736    0.000016402   -0.001998648
      3        6           0.002734354    0.006677798    0.002619307
      4        6          -0.008328756    0.001034193    0.000308099
      5        8           0.003135414   -0.003723594    0.000637314
      6        1           0.000732370    0.000162302   -0.000986858
      7        1           0.001268019    0.000378823   -0.000915339
      8        1          -0.000614168   -0.000404533    0.000495060
      9        1           0.000283910    0.000570277   -0.000914666
     10        1           0.000561096   -0.000190023   -0.000735591
     11        1           0.001618652    0.000503711   -0.001884921
     12        1           0.000331128    0.001965709   -0.002226270
     13        1          -0.004755886   -0.002147066    0.001240597
 -------------------------------------------------------------------
 Cartesian Forces:  Max     0.008328756 RMS     0.002573756

 GradGradGradGradGradGradGradGradGradGradGradGradGradGradGradGradGradGrad
 Berny optimization.
 Using GEDIIS/GDIIS optimizer.
 FormGI is forming the generalized inverse of G from B-inverse, IUseBI=4.
 GSVD:  received Info=                   1 from GESDD.
 Internal  Forces:  Max     0.009894048 RMS     0.002385034
 Search for a local minimum.
 Step number   2 out of a maximum of   66 on scan point     1 out of    37
 All quantities printed in internal units (Hartrees-Bohrs-Radians)
 Mixed Optimization -- RFO/linear search
 Update second derivatives using D2CorX and points    1    2
 DE= -2.46D-03 DEPred=-3.18D-03 R= 7.74D-01
 TightC=F SS=  1.41D+00  RLast= 2.44D-01 DXNew= 5.0454D-01 7.3291D-01
 Trust test= 7.74D-01 RLast= 2.44D-01 DXMaxT set to 5.05D-01
 ITU=  1  0
 Use linear search instead of GDIIS.
     Eigenvalues ---    0.00315   0.01223   0.01478   0.01726   0.04268
     Eigenvalues ---    0.04658   0.04821   0.04858   0.05612   0.08396
     Eigenvalues ---    0.11209   0.11535   0.11659   0.13406   0.14014
     Eigenvalues ---    0.15943   0.18975   0.21715   0.21957   0.23009
     Eigenvalues ---    0.29465   0.32111   0.32986   0.33506   0.33667
     Eigenvalues ---    0.33866   0.34080   0.35668   0.40084   0.46487
     Eigenvalues ---    0.52571   0.536171000.000001000.000001000.00000
     Eigenvalues --- 1000.000001000.000001000.000001000.000001000.00000
     Eigenvalues --- 1000.000001000.000001000.000001000.000001000.00000
     Eigenvalues --- 1000.000001000.000001000.000001000.000001000.00000
     Eigenvalues --- 1000.000001000.000001000.000001000.000001000.00000
     Eigenvalues --- 1000.00000
 RFO step:  Lambda=-1.21734964D-03 EMin= 3.14522110D-03
 Quartic linear search produced a step of -0.13562.
 Iteration  1 RMS(Cart)=  0.03725302 RMS(Int)=  0.00058361
 Iteration  2 RMS(Cart)=  0.00065307 RMS(Int)=  0.00011232
 Iteration  3 RMS(Cart)=  0.00000016 RMS(Int)=  0.00011232
 Iteration  1 RMS(Cart)=  0.00000281 RMS(Int)=  0.00000216
 Iteration  2 RMS(Cart)=  0.00000181 RMS(Int)=  0.00000239
 Iteration  3 RMS(Cart)=  0.00000116 RMS(Int)=  0.00000274
 Iteration  4 RMS(Cart)=  0.00000075 RMS(Int)=  0.00000303
 Variable       Old X    -DE/DX   Delta X   Delta X   Delta X     New X
                                 (Linear)    (Quad)   (Total)
    R1        2.72228   0.00117  -0.00132   0.00561   0.00429   2.72656
    R2        2.90061  -0.00635  -0.00261  -0.01212  -0.01472   2.88589
    R3        2.08909  -0.00012  -0.00128   0.00270   0.00142   2.09050
    R4        2.09247  -0.00112  -0.00140   0.00043  -0.00097   2.09150
    R5        1.83911   0.00008  -0.00113   0.00280   0.00167   1.84078
    R6        2.91679  -0.00817  -0.00231  -0.01875  -0.02106   2.89573
    R7        2.09442   0.00085  -0.00289   0.00894   0.00605   2.10047
    R8        2.09112  -0.00033  -0.00201   0.00388   0.00187   2.09299
    R9        2.69760  -0.00576  -0.00292  -0.00465  -0.00756   2.69003
   R10        2.08858   0.00045  -0.00234   0.00663   0.00429   2.09287
   R11        2.09488  -0.00158  -0.00056  -0.00279  -0.00335   2.09153
   R12        1.86481   0.00033  -0.00333   0.00839   0.00505   1.86986
    A1        1.86419  -0.00313   0.00389  -0.02486  -0.02102   1.84317
    A2        1.89480   0.00053   0.00404  -0.01198  -0.00797   1.88682
    A3        1.90418   0.00093   0.00273  -0.00756  -0.00483   1.89935
    A4        1.94648   0.00042  -0.00256   0.00790   0.00527   1.95175
    A5        1.95220   0.00076  -0.00529   0.01648   0.01114   1.96334
    A6        1.90059   0.00046  -0.00260   0.01792   0.01534   1.91593
    A7        1.93589  -0.00162  -0.00554   0.00432  -0.00122   1.93467
    A8        1.97411  -0.00333   0.00031  -0.01493  -0.01467   1.95944
    A9        1.91184   0.00055  -0.00019  -0.00351  -0.00381   1.90803
   A10        1.89936   0.00157  -0.00219   0.01666   0.01451   1.91387
   A11        1.89423   0.00108   0.00090  -0.00391  -0.00313   1.89111
   A12        1.91669   0.00081  -0.00030   0.00786   0.00763   1.92432
   A13        1.86447  -0.00053   0.00154  -0.00160  -0.00004   1.86443
   A14        1.96809  -0.00426   0.00082  -0.02504  -0.02426   1.94382
   A15        1.93971   0.00188  -0.00329   0.02156   0.01794   1.95765
   A16        1.94333   0.00114  -0.00547   0.01893   0.01304   1.95637
   A17        1.81291   0.00010   0.00603  -0.02318  -0.01701   1.79590
   A18        1.90662   0.00057   0.00527  -0.02190  -0.01663   1.88999
   A19        1.88737   0.00066  -0.00306   0.02858   0.02520   1.91258
   A20        1.96223  -0.00989  -0.01562  -0.01638  -0.03200   1.93022
    D1       -3.00223  -0.00015   0.00042   0.00071   0.00113  -3.00110
    D2        1.17987   0.00083  -0.00116   0.01195   0.01073   1.19059
    D3       -0.88912  -0.00055  -0.00205   0.00163  -0.00036  -0.88947
    D4        1.04764   0.00026   0.00000   0.00000   0.00001   1.04764
    D5       -1.06780   0.00073  -0.00122   0.01756   0.01629  -1.05151
    D6       -3.10035   0.00018  -0.00173   0.01200   0.01023  -3.09012
    D7        3.11529  -0.00078   0.00586  -0.02533  -0.01944   3.09585
    D8        0.99985  -0.00031   0.00463  -0.00777  -0.00316   0.99669
    D9       -1.03269  -0.00087   0.00412  -0.01333  -0.00922  -1.04191
   D10       -1.03465   0.00066  -0.00265   0.01545   0.01284  -1.02181
   D11        3.13310   0.00113  -0.00387   0.03301   0.02912  -3.12097
   D12        1.10055   0.00058  -0.00438   0.02744   0.02306   1.12361
   D13       -1.27348   0.00033   0.00540  -0.01317  -0.00781  -1.28129
   D14        2.98221   0.00168  -0.00052   0.01776   0.01738   2.99959
   D15        0.87689  -0.00122   0.00873  -0.04618  -0.03759   0.83930
   D16        0.85188  -0.00040   0.00601  -0.03023  -0.02423   0.82765
   D17       -1.17562   0.00095   0.00009   0.00070   0.00096  -1.17466
   D18        3.00225  -0.00195   0.00934  -0.06324  -0.05401   2.94824
   D19        2.88420   0.00002   0.00821  -0.03002  -0.02184   2.86237
   D20        0.85671   0.00137   0.00229   0.00091   0.00335   0.86006
   D21       -1.24861  -0.00153   0.01155  -0.06303  -0.05161  -1.30023
   D22        0.81472  -0.00080  -0.00104  -0.02452  -0.02553   0.78919
   D23        2.91655  -0.00074  -0.00068  -0.02646  -0.02691   2.88964
   D24       -1.35594   0.00031   0.00153  -0.01492  -0.01365  -1.36959
         Item               Value     Threshold  Converged?
 Maximum Force            0.009894     0.000450     NO 
 RMS     Force            0.002406     0.000300     NO 
 Maximum Displacement     0.168675     0.001800     NO 
 RMS     Displacement     0.037236     0.001200     NO 
 Predicted change in Energy=-7.040496D-04
 GradGradGradGradGradGradGradGradGradGradGradGradGradGradGradGradGradGrad

                          Input orientation:                          
 ---------------------------------------------------------------------
 Center     Atomic      Atomic             Coordinates (Angstroms)
 Number     Number       Type             X           Y           Z
 ---------------------------------------------------------------------
      1          6           0        0.974352    2.021869    1.258947
      2          8           0        1.647078    3.174331    0.710269
      3          6           0        1.969483    0.869667    1.139289
      4          6           0        3.265550    1.139276    1.911058
      5          8           0        4.071667    2.107872    1.248970
      6          1           0        0.061036    1.840237    0.661748
      7          1           0        0.698583    2.235778    2.309253
      8          1           0        1.127763    3.984189    0.862948
      9          1           0        2.225423    0.714422    0.068832
     10          1           0        1.498938   -0.067535    1.495564
     11          1           0        3.924801    0.249983    1.944220
     12          1           0        3.070504    1.495062    2.940795
     13          1           0        3.521021    2.874249    0.951406
 ---------------------------------------------------------------------
                    Distance matrix (angstroms):
                    1          2          3          4          5
     1  C    0.000000
     2  O    1.442836   0.000000
     3  C    1.527145   2.366322   0.000000
     4  C    2.540434   2.864052   1.532354   0.000000
     5  O    3.098524   2.702991   2.442204   1.423504   0.000000
     6  H    1.106247   2.073087   2.193677   3.510133   4.062218
     7  H    1.106773   2.082613   2.202331   2.819609   3.538115
     8  H    2.007747   0.974099   3.238071   3.709744   3.512285
     9  H    2.165865   2.607120   1.111523   2.157814   2.596737
    10  H    2.167207   3.338911   1.107561   2.179437   3.378185
    11  H    3.509178   3.906721   2.203450   1.107499   1.989144
    12  H    2.738611   3.133900   2.201997   1.106790   2.059159
    13  H    2.703082   1.913075   2.541834   1.999083   0.989489
                    6          7          8          9         10
     6  H    0.000000
     7  H    1.810301   0.000000
     8  H    2.403106   2.309315   0.000000
     9  H    2.510693   3.108898   3.539330   0.000000
    10  H    2.530297   2.570585   4.117577   1.781796   0.000000
    11  H    4.370620   3.805931   4.789245   2.573066   2.487352
    12  H    3.790791   2.563887   3.779874   3.093821   2.645793
    13  H    3.622786   3.196491   2.639597   2.668776   3.610958
                   11         12         13
    11  H    0.000000
    12  H    1.809200   0.000000
    13  H    2.834695   2.462274   0.000000
 Stoichiometry    C3H8O2
 Framework group  C1[X(C3H8O2)]
 Deg. of freedom    33
 Full point group                 C1      NOp   1
 Largest Abelian subgroup         C1      NOp   1
 Largest concise Abelian subgroup C1      NOp   1
                         Standard orientation:                         
 ---------------------------------------------------------------------
 Center     Atomic      Atomic             Coordinates (Angstroms)
 Number     Number       Type             X           Y           Z
 ---------------------------------------------------------------------
      1          6           0        1.293473    0.477024    0.188099
      2          8           0        1.243367   -0.936847   -0.095157
      3          6           0       -0.015509    1.050520   -0.350270
      4          6           0       -1.243025    0.423053    0.318758
      5          8           0       -1.459133   -0.907833   -0.137755
      6          1           0        2.172985    0.900918   -0.332052
      7          1           0        1.400237    0.618823    1.280546
      8          1           0        1.986750   -1.401954    0.329020
      9          1           0       -0.077811    0.861155   -1.443770
     10          1           0       -0.024552    2.149659   -0.214251
     11          1           0       -2.182033    0.937220    0.035125
     12          1           0       -1.150513    0.401265    1.421460
     13          1           0       -0.608568   -1.413220   -0.152304
 ---------------------------------------------------------------------
 Rotational constants (GHZ):      7.6044204      4.0669086      2.9470718
 Standard basis: VSTO-6G (5D, 7F)
 There are    28 symmetry adapted cartesian basis functions of A   symmetry.
 There are    28 symmetry adapted basis functions of A   symmetry.
    28 basis functions,   168 primitive gaussians,    28 cartesian basis functions
    16 alpha electrons       16 beta electrons
       nuclear repulsion energy       137.6180550952 Hartrees.
 Integral buffers will be    131072 words long.
 Regular integral format.
 Two-electron integral symmetry is turned off.
 Do NDO integrals.
 One-electron integrals computed using PRISM.
 NBasis=    28 RedAO= F EigKep=  0.00D+00  NBF=    28
 NBsUse=    28 1.00D-04 EigRej=  0.00D+00 NBFU=    28
 Initial guess from the checkpoint file:  "1-3-propanediol-opt.chk"
 B after Tr=    -0.000000    0.000000   -0.000000
         Rot=    0.999998   -0.000441   -0.000337   -0.001892 Ang=  -0.23 deg.
 Overlap will be assumed to be unity.
 Keep J ints in memory in canonical form, NReq=891302.
 Requested convergence on RMS density matrix=1.00D-08 within 128 cycles.
 Requested convergence on MAX density matrix=1.00D-06.
 Requested convergence on             energy=1.00D-06.
 No special actions if energy rises.
 SCF Done:  E(RPM6) = -0.161397357182     A.U. after   11 cycles
            NFock= 10  Conv=0.65D-08     -V/T= 0.9910
 Calling FoFJK, ICntrl=      2127 FMM=F ISym2X=0 I1Cent= 0 IOpClX= 0 NMat=1 NMatS=1 NMatT=0.
 ***** Axes restored to original set *****
 -------------------------------------------------------------------
 Center     Atomic                   Forces (Hartrees/Bohr)
 Number     Number              X              Y              Z
 -------------------------------------------------------------------
      1        6          -0.002073844   -0.001535714    0.002435587
      2        8          -0.000258000    0.002253211   -0.002346987
      3        6          -0.000545660   -0.000557351    0.000941612
      4        6          -0.001120337   -0.001522414    0.002593879
      5        8           0.004877971    0.000938822   -0.001333921
      6        1           0.000379002   -0.000014519    0.000248784
      7        1           0.000497866   -0.000303824   -0.001004869
      8        1           0.000008205   -0.000255320    0.000366837
      9        1          -0.000161465   -0.000162765   -0.000380541
     10        1           0.000199836    0.000366004   -0.000989746
     11        1          -0.000800896   -0.000274351    0.000153666
     12        1          -0.000276229   -0.000431516   -0.000397617
     13        1          -0.000726450    0.001499737   -0.000286682
 -------------------------------------------------------------------
 Cartesian Forces:  Max     0.004877971 RMS     0.001326467

 GradGradGradGradGradGradGradGradGradGradGradGradGradGradGradGradGradGrad
 Berny optimization.
 Using GEDIIS/GDIIS optimizer.
 FormGI is forming the generalized inverse of G from B-inverse, IUseBI=4.
 Internal  Forces:  Max     0.004763999 RMS     0.001240121
 Search for a local minimum.
 Step number   3 out of a maximum of   66 on scan point     1 out of    37
 All quantities printed in internal units (Hartrees-Bohrs-Radians)
 Mixed Optimization -- RFO/linear search
 Update second derivatives using D2CorX and points    1    2    3
 DE= -5.25D-04 DEPred=-7.04D-04 R= 7.45D-01
 TightC=F SS=  1.41D+00  RLast= 1.34D-01 DXNew= 8.4853D-01 4.0324D-01
 Trust test= 7.45D-01 RLast= 1.34D-01 DXMaxT set to 5.05D-01
 ITU=  1  1  0
 Use linear search instead of GDIIS.
     Eigenvalues ---    0.00287   0.01218   0.01495   0.01754   0.04340
     Eigenvalues ---    0.04640   0.04905   0.05429   0.05503   0.08280
     Eigenvalues ---    0.11200   0.11464   0.11882   0.13325   0.13899
     Eigenvalues ---    0.16000   0.19812   0.21784   0.21949   0.25513
     Eigenvalues ---    0.29590   0.31774   0.32966   0.33578   0.33680
     Eigenvalues ---    0.33970   0.34125   0.35289   0.40104   0.50183
     Eigenvalues ---    0.53609   0.555351000.000001000.000001000.00000
     Eigenvalues --- 1000.000001000.000001000.000001000.000001000.00000
     Eigenvalues --- 1000.000001000.000001000.000001000.000001000.00000
     Eigenvalues --- 1000.000001000.000001000.000001000.000001000.00000
     Eigenvalues --- 1000.000001000.000001000.000001000.000001000.00000
     Eigenvalues --- 1000.00000
 RFO step:  Lambda=-3.73854731D-04 EMin= 2.87274313D-03
 Quartic linear search produced a step of -0.19885.
 Iteration  1 RMS(Cart)=  0.05359027 RMS(Int)=  0.00121730
 Iteration  2 RMS(Cart)=  0.00156384 RMS(Int)=  0.00003177
 Iteration  3 RMS(Cart)=  0.00000112 RMS(Int)=  0.00003176
 Iteration  4 RMS(Cart)=  0.00000000 RMS(Int)=  0.00003176
 Iteration  1 RMS(Cart)=  0.00000015 RMS(Int)=  0.00000012
 Variable       Old X    -DE/DX   Delta X   Delta X   Delta X     New X
                                 (Linear)    (Quad)   (Total)
    R1        2.72656   0.00223  -0.00085   0.00623   0.00538   2.73194
    R2        2.88589   0.00103   0.00293  -0.00430  -0.00137   2.88452
    R3        2.09050  -0.00044  -0.00028  -0.00046  -0.00075   2.08976
    R4        2.09150  -0.00114   0.00019  -0.00320  -0.00300   2.08850
    R5        1.84078  -0.00016  -0.00033   0.00046   0.00013   1.84091
    R6        2.89573   0.00206   0.00419  -0.00436  -0.00017   2.89556
    R7        2.10047   0.00035  -0.00120   0.00341   0.00221   2.10268
    R8        2.09299  -0.00071  -0.00037  -0.00092  -0.00129   2.09170
    R9        2.69003   0.00476   0.00150   0.00498   0.00648   2.69651
   R10        2.09287  -0.00025  -0.00085   0.00125   0.00040   2.09326
   R11        2.09153  -0.00046   0.00067  -0.00268  -0.00201   2.08952
   R12        1.86986   0.00165  -0.00100   0.00456   0.00355   1.87341
    A1        1.84317   0.00229   0.00418  -0.00090   0.00328   1.84645
    A2        1.88682  -0.00125   0.00159  -0.00391  -0.00232   1.88451
    A3        1.89935  -0.00016   0.00096  -0.00506  -0.00411   1.89524
    A4        1.95175  -0.00049  -0.00105   0.00178   0.00077   1.95252
    A5        1.96334  -0.00071  -0.00221   0.00049  -0.00170   1.96164
    A6        1.91593   0.00035  -0.00305   0.00677   0.00375   1.91968
    A7        1.93467  -0.00056   0.00024  -0.00364  -0.00340   1.93128
    A8        1.95944   0.00306   0.00292   0.00609   0.00900   1.96844
    A9        1.90803  -0.00068   0.00076  -0.00257  -0.00179   1.90624
   A10        1.91387  -0.00124  -0.00289   0.00138  -0.00154   1.91233
   A11        1.89111  -0.00031   0.00062  -0.00283  -0.00219   1.88892
   A12        1.92432  -0.00115  -0.00152   0.00315   0.00161   1.92593
   A13        1.86443   0.00020   0.00001  -0.00593  -0.00593   1.85850
   A14        1.94382   0.00352   0.00483   0.00288   0.00770   1.95152
   A15        1.95765  -0.00148  -0.00357  -0.00194  -0.00541   1.95224
   A16        1.95637  -0.00092  -0.00259   0.00358   0.00107   1.95744
   A17        1.79590  -0.00096   0.00338  -0.01149  -0.00812   1.78777
   A18        1.88999  -0.00062   0.00331  -0.00293   0.00035   1.89033
   A19        1.91258   0.00049  -0.00501   0.00881   0.00391   1.91649
   A20        1.93022   0.00032   0.00636  -0.01439  -0.00802   1.92220
    D1       -3.00110   0.00005  -0.00022   0.01334   0.01311  -2.98799
    D2        1.19059   0.00003  -0.00213   0.01374   0.01164   1.20223
    D3       -0.88947   0.00042   0.00007   0.01073   0.01078  -0.87869
    D4        1.04764   0.00131  -0.00000   0.00000  -0.00000   1.04764
    D5       -1.05151   0.00019  -0.00324   0.00138  -0.00185  -1.05336
    D6       -3.09012   0.00105  -0.00203   0.00923   0.00720  -3.08291
    D7        3.09585   0.00093   0.00387  -0.00429  -0.00042   3.09543
    D8        0.99669  -0.00019   0.00063  -0.00291  -0.00226   0.99443
    D9       -1.04191   0.00067   0.00183   0.00495   0.00679  -1.03512
   D10       -1.02181   0.00046  -0.00255   0.00642   0.00385  -1.01796
   D11       -3.12097  -0.00066  -0.00579   0.00781   0.00201  -3.11896
   D12        1.12361   0.00020  -0.00458   0.01566   0.01106   1.13467
   D13       -1.28129  -0.00102   0.00155  -0.09304  -0.09147  -1.37277
   D14        2.99959  -0.00113  -0.00346  -0.07935  -0.08283   2.91675
   D15        0.83930   0.00005   0.00747  -0.09223  -0.08470   0.75460
   D16        0.82765  -0.00015   0.00482  -0.09433  -0.08951   0.73813
   D17       -1.17466  -0.00026  -0.00019  -0.08063  -0.08087  -1.25553
   D18        2.94824   0.00092   0.01074  -0.09352  -0.08274   2.86550
   D19        2.86237  -0.00073   0.00434  -0.10134  -0.09701   2.76535
   D20        0.86006  -0.00083  -0.00067  -0.08765  -0.08837   0.77169
   D21       -1.30023   0.00035   0.01026  -0.10054  -0.09023  -1.39046
   D22        0.78919   0.00062   0.00508   0.00067   0.00575   0.79494
   D23        2.88964   0.00005   0.00535  -0.00696  -0.00165   2.88799
   D24       -1.36959  -0.00011   0.00271  -0.00371  -0.00096  -1.37055
         Item               Value     Threshold  Converged?
 Maximum Force            0.004764     0.000450     NO 
 RMS     Force            0.001216     0.000300     NO 
 Maximum Displacement     0.166048     0.001800     NO 
 RMS     Displacement     0.053615     0.001200     NO 
 Predicted change in Energy=-2.065095D-04
 GradGradGradGradGradGradGradGradGradGradGradGradGradGradGradGradGradGrad

                          Input orientation:                          
 ---------------------------------------------------------------------
 Center     Atomic      Atomic             Coordinates (Angstroms)
 Number     Number       Type             X           Y           Z
 ---------------------------------------------------------------------
      1          6           0        0.958251    2.015341    1.262925
      2          8           0        1.612644    3.193815    0.740466
      3          6           0        1.974776    0.883983    1.133834
      4          6           0        3.263239    1.151536    1.918761
      5          8           0        4.126998    2.053545    1.228515
      6          1           0        0.054403    1.828546    0.653764
      7          1           0        0.672948    2.207221    2.313266
      8          1           0        1.078215    3.989412    0.914857
      9          1           0        2.241484    0.751762    0.061702
     10          1           0        1.514359   -0.067395    1.462583
     11          1           0        3.889203    0.241851    2.006282
     12          1           0        3.060792    1.565182    2.924019
     13          1           0        3.608890    2.824601    0.882326
 ---------------------------------------------------------------------
                    Distance matrix (angstroms):
                    1          2          3          4          5
     1  C    0.000000
     2  O    1.445681   0.000000
     3  C    1.526421   2.370908   0.000000
     4  C    2.547402   2.878150   1.532264   0.000000
     5  O    3.169164   2.803638   2.451305   1.426933   0.000000
     6  H    1.105853   2.073545   2.193285   3.514995   4.119101
     7  H    1.105185   2.080888   2.199267   2.824839   3.623639
     8  H    2.008108   0.974166   3.239670   3.719636   3.625057
     9  H    2.164776   2.611472   1.112692   2.156959   2.571236
    10  H    2.164927   3.341647   1.106878   2.180016   3.373285
    11  H    3.505471   3.936890   2.199666   1.107708   1.985876
    12  H    2.717087   3.085042   2.201869   1.105727   2.061560
    13  H    2.797436   2.035053   2.549428   1.998204   0.991368
                    6          7          8          9         10
     6  H    0.000000
     7  H    1.811061   0.000000
     8  H    2.405348   2.301303   0.000000
     9  H    2.508650   3.106157   3.544495   0.000000
    10  H    2.525916   2.570119   4.116783   1.778256   0.000000
    11  H    4.364928   3.781695   4.810101   2.599304   2.455834
    12  H    3.776479   2.546965   3.720784   3.086386   2.681894
    13  H    3.698479   3.323929   2.786065   2.615318   3.617651
                   11         12         13
    11  H    0.000000
    12  H    1.810997   0.000000
    13  H    2.830628   2.460704   0.000000
 Stoichiometry    C3H8O2
 Framework group  C1[X(C3H8O2)]
 Deg. of freedom    33
 Full point group                 C1      NOp   1
 Largest Abelian subgroup         C1      NOp   1
 Largest concise Abelian subgroup C1      NOp   1
                         Standard orientation:                         
 ---------------------------------------------------------------------
 Center     Atomic      Atomic             Coordinates (Angstroms)
 Number     Number       Type             X           Y           Z
 ---------------------------------------------------------------------
      1          6           0        1.317799    0.470103    0.167204
      2          8           0        1.264671   -0.953927   -0.076333
      3          6           0       -0.001757    1.030706   -0.356682
      4          6           0       -1.222888    0.430269    0.347695
      5          8           0       -1.536703   -0.869412   -0.150791
      6          1           0        2.186065    0.878208   -0.382773
      7          1           0        1.445197    0.637467    1.252189
      8          1           0        2.012733   -1.404504    0.355389
      9          1           0       -0.085810    0.813423   -1.444711
     10          1           0       -0.002469    2.132954   -0.255557
     11          1           0       -2.147216    0.999666    0.127644
     12          1           0       -1.079221    0.357357    1.441622
     13          1           0       -0.711953   -1.414321   -0.226111
 ---------------------------------------------------------------------
 Rotational constants (GHZ):      7.6991498      3.9050345      2.8847555
 Standard basis: VSTO-6G (5D, 7F)
 There are    28 symmetry adapted cartesian basis functions of A   symmetry.
 There are    28 symmetry adapted basis functions of A   symmetry.
    28 basis functions,   168 primitive gaussians,    28 cartesian basis functions
    16 alpha electrons       16 beta electrons
       nuclear repulsion energy       137.1558719060 Hartrees.
 Integral buffers will be    131072 words long.
 Regular integral format.
 Two-electron integral symmetry is turned off.
 Do NDO integrals.
 One-electron integrals computed using PRISM.
 NBasis=    28 RedAO= F EigKep=  0.00D+00  NBF=    28
 NBsUse=    28 1.00D-04 EigRej=  0.00D+00 NBFU=    28
 Initial guess from the checkpoint file:  "1-3-propanediol-opt.chk"
 B after Tr=    -0.000000   -0.000000    0.000000
         Rot=    0.999955    0.001493   -0.004056    0.008399 Ang=   1.08 deg.
 Overlap will be assumed to be unity.
 Keep J ints in memory in canonical form, NReq=891302.
 Requested convergence on RMS density matrix=1.00D-08 within 128 cycles.
 Requested convergence on MAX density matrix=1.00D-06.
 Requested convergence on             energy=1.00D-06.
 No special actions if energy rises.
 SCF Done:  E(RPM6) = -0.161532284172     A.U. after   11 cycles
            NFock= 10  Conv=0.71D-08     -V/T= 0.9910
 Calling FoFJK, ICntrl=      2127 FMM=F ISym2X=0 I1Cent= 0 IOpClX= 0 NMat=1 NMatS=1 NMatT=0.
 ***** Axes restored to original set *****
 -------------------------------------------------------------------
 Center     Atomic                   Forces (Hartrees/Bohr)
 Number     Number              X              Y              Z
 -------------------------------------------------------------------
      1        6          -0.000459617    0.000595139    0.001714576
      2        8           0.000352982    0.000376635   -0.001640513
      3        6           0.000168233    0.000183326   -0.000636383
      4        6          -0.000164318   -0.001739636    0.001911400
      5        8           0.001246426    0.001675842   -0.001873173
      6        1           0.000276450   -0.000129183    0.000287483
      7        1          -0.000009293   -0.000309491   -0.000341306
      8        1           0.000069364   -0.000432760    0.000248242
      9        1          -0.000113384   -0.000174055   -0.000142130
     10        1           0.000166853    0.000127471   -0.000472286
     11        1          -0.000779809   -0.000372655    0.000647772
     12        1          -0.000172292   -0.000208284   -0.000200483
     13        1          -0.000581595    0.000407650    0.000496799
 -------------------------------------------------------------------
 Cartesian Forces:  Max     0.001911400 RMS     0.000792769

 GradGradGradGradGradGradGradGradGradGradGradGradGradGradGradGradGradGrad
 Berny optimization.
 Using GEDIIS/GDIIS optimizer.
 FormGI is forming the generalized inverse of G from B-inverse, IUseBI=4.
 GSVD:  received Info=                   1 from GESDD.
 Internal  Forces:  Max     0.002385268 RMS     0.000565718
 Search for a local minimum.
 Step number   4 out of a maximum of   66 on scan point     1 out of    37
 All quantities printed in internal units (Hartrees-Bohrs-Radians)
 Mixed Optimization -- En-DIIS/RFO-DIIS
 Update second derivatives using D2CorX and points    1    2    3    4
 DE= -1.35D-04 DEPred=-2.07D-04 R= 6.53D-01
 TightC=F SS=  1.41D+00  RLast= 2.65D-01 DXNew= 8.4853D-01 7.9601D-01
 Trust test= 6.53D-01 RLast= 2.65D-01 DXMaxT set to 7.96D-01
 ITU=  1  1  1  0
 Use linear search instead of GDIIS.
     Eigenvalues ---    0.00342   0.01195   0.01549   0.01710   0.04144
     Eigenvalues ---    0.04666   0.05264   0.05383   0.05594   0.08373
     Eigenvalues ---    0.11235   0.11562   0.12059   0.13337   0.14023
     Eigenvalues ---    0.16031   0.18878   0.21786   0.21959   0.28012
     Eigenvalues ---    0.29698   0.30733   0.33002   0.33612   0.33648
     Eigenvalues ---    0.33881   0.34109   0.35260   0.40218   0.50324
     Eigenvalues ---    0.53633   0.543121000.000001000.000001000.00000
     Eigenvalues --- 1000.000001000.000001000.000001000.000001000.00000
     Eigenvalues --- 1000.000001000.000001000.000001000.000001000.00000
     Eigenvalues --- 1000.000001000.000001000.000001000.000001000.00000
     Eigenvalues --- 1000.000001000.000001000.000001000.000001000.00000
     Eigenvalues --- 1000.00000
 RFO step:  Lambda=-7.17889030D-05 EMin= 3.41891408D-03
 Quartic linear search produced a step of -0.24504.
 Iteration  1 RMS(Cart)=  0.01717604 RMS(Int)=  0.00015596
 Iteration  2 RMS(Cart)=  0.00018476 RMS(Int)=  0.00000191
 Iteration  3 RMS(Cart)=  0.00000002 RMS(Int)=  0.00000191
 Iteration  1 RMS(Cart)=  0.00000004 RMS(Int)=  0.00000003
 Variable       Old X    -DE/DX   Delta X   Delta X   Delta X     New X
                                 (Linear)    (Quad)   (Total)
    R1        2.73194   0.00065  -0.00132   0.00312   0.00181   2.73375
    R2        2.88452  -0.00006   0.00034  -0.00017   0.00017   2.88469
    R3        2.08976  -0.00036   0.00018  -0.00098  -0.00080   2.08896
    R4        2.08850  -0.00038   0.00074  -0.00183  -0.00109   2.08740
    R5        1.84091  -0.00035  -0.00003  -0.00037  -0.00040   1.84051
    R6        2.89556   0.00008   0.00004   0.00076   0.00080   2.89636
    R7        2.10268   0.00013  -0.00054   0.00110   0.00056   2.10324
    R8        2.09170  -0.00032   0.00032  -0.00108  -0.00077   2.09093
    R9        2.69651   0.00239  -0.00159   0.00652   0.00493   2.70144
   R10        2.09326  -0.00008  -0.00010  -0.00001  -0.00010   2.09316
   R11        2.08952  -0.00023   0.00049  -0.00113  -0.00064   2.08888
   R12        1.87341   0.00045  -0.00087   0.00198   0.00111   1.87452
    A1        1.84645  -0.00073  -0.00080  -0.00046  -0.00127   1.84519
    A2        1.88451  -0.00006   0.00057   0.00034   0.00090   1.88541
    A3        1.89524   0.00082   0.00101   0.00045   0.00146   1.89670
    A4        1.95252   0.00000  -0.00019   0.00012  -0.00007   1.95245
    A5        1.96164   0.00005   0.00042  -0.00127  -0.00086   1.96079
    A6        1.91968  -0.00008  -0.00092   0.00085  -0.00007   1.91962
    A7        1.93128  -0.00057   0.00083  -0.00336  -0.00253   1.92875
    A8        1.96844  -0.00073  -0.00220   0.00198  -0.00023   1.96821
    A9        1.90624  -0.00003   0.00044  -0.00274  -0.00230   1.90394
   A10        1.91233   0.00049   0.00038   0.00259   0.00297   1.91530
   A11        1.88892   0.00065   0.00054  -0.00109  -0.00055   1.88837
   A12        1.92593  -0.00007  -0.00039   0.00296   0.00256   1.92849
   A13        1.85850  -0.00028   0.00145  -0.00419  -0.00273   1.85577
   A14        1.95152  -0.00135  -0.00189   0.00006  -0.00182   1.94970
   A15        1.95224  -0.00027   0.00133  -0.00294  -0.00162   1.95062
   A16        1.95744   0.00019  -0.00026  -0.00162  -0.00189   1.95556
   A17        1.78777   0.00141   0.00199   0.00661   0.00860   1.79637
   A18        1.89033   0.00029  -0.00009  -0.00084  -0.00092   1.88941
   A19        1.91649  -0.00018  -0.00096  -0.00058  -0.00154   1.91495
   A20        1.92220  -0.00098   0.00197  -0.00552  -0.00355   1.91865
    D1       -2.98799  -0.00006  -0.00321   0.01087   0.00766  -2.98033
    D2        1.20223   0.00036  -0.00285   0.01081   0.00796   1.21019
    D3       -0.87869   0.00003  -0.00264   0.00935   0.00671  -0.87199
    D4        1.04764   0.00085   0.00000   0.00000   0.00000   1.04764
    D5       -1.05336   0.00053   0.00045   0.00198   0.00243  -1.05092
    D6       -3.08291   0.00060  -0.00177   0.00712   0.00535  -3.07756
    D7        3.09543   0.00035   0.00010   0.00019   0.00029   3.09572
    D8        0.99443   0.00002   0.00055   0.00217   0.00272   0.99716
    D9       -1.03512   0.00010  -0.00166   0.00730   0.00564  -1.02948
   D10       -1.01796   0.00028  -0.00094   0.00043  -0.00051  -1.01848
   D11       -3.11896  -0.00004  -0.00049   0.00242   0.00192  -3.11704
   D12        1.13467   0.00004  -0.00271   0.00755   0.00484   1.13951
   D13       -1.37277   0.00058   0.02241   0.00677   0.02919  -1.34358
   D14        2.91675  -0.00018   0.02030   0.00034   0.02064   2.93739
   D15        0.75460   0.00012   0.02075   0.00456   0.02531   0.77992
   D16        0.73813   0.00052   0.02193   0.00384   0.02577   0.76390
   D17       -1.25553  -0.00024   0.01982  -0.00260   0.01722  -1.23831
   D18        2.86550   0.00006   0.02027   0.00162   0.02190   2.88740
   D19        2.76535   0.00052   0.02377  -0.00019   0.02359   2.78894
   D20        0.77169  -0.00024   0.02165  -0.00662   0.01504   0.78673
   D21       -1.39046   0.00006   0.02211  -0.00240   0.01971  -1.37075
   D22        0.79494   0.00020  -0.00141   0.01449   0.01308   0.80802
   D23        2.88799   0.00007   0.00040   0.01494   0.01535   2.90334
   D24       -1.37055   0.00066   0.00024   0.01709   0.01733  -1.35322
         Item               Value     Threshold  Converged?
 Maximum Force            0.002385     0.000450     NO 
 RMS     Force            0.000538     0.000300     NO 
 Maximum Displacement     0.055962     0.001800     NO 
 RMS     Displacement     0.017179     0.001200     NO 
 Predicted change in Energy=-4.678811D-05
 GradGradGradGradGradGradGradGradGradGradGradGradGradGradGradGradGradGrad

                          Input orientation:                          
 ---------------------------------------------------------------------
 Center     Atomic      Atomic             Coordinates (Angstroms)
 Number     Number       Type             X           Y           Z
 ---------------------------------------------------------------------
      1          6           0        0.961923    2.016821    1.261069
      2          8           0        1.622067    3.187313    0.725424
      3          6           0        1.972382    0.879283    1.137730
      4          6           0        3.265396    1.147437    1.915769
      5          8           0        4.113690    2.070942    1.229386
      6          1           0        0.055075    1.829243    0.657399
      7          1           0        0.681951    2.217884    2.310519
      8          1           0        1.094890    3.987055    0.901739
      9          1           0        2.234705    0.740190    0.065079
     10          1           0        1.509744   -0.069198    1.470340
     11          1           0        3.895910    0.239761    1.989752
     12          1           0        3.065879    1.546401    2.927154
     13          1           0        3.582589    2.846269    0.911940
 ---------------------------------------------------------------------
                    Distance matrix (angstroms):
                    1          2          3          4          5
     1  C    0.000000
     2  O    1.446637   0.000000
     3  C    1.526510   2.370595   0.000000
     4  C    2.547636   2.877247   1.532689   0.000000
     5  O    3.152392   2.776410   2.452275   1.429541   0.000000
     6  H    1.105430   2.074716   2.192991   3.514899   4.105843
     7  H    1.104607   2.082340   2.198294   2.824159   3.601010
     8  H    2.007142   0.973955   3.237890   3.715210   3.590542
     9  H    2.163366   2.607642   1.112987   2.157134   2.580135
    10  H    2.166882   3.342512   1.106472   2.181954   3.379171
    11  H    3.506736   3.931533   2.198838   1.107653   1.994695
    12  H    2.724659   3.102387   2.200641   1.105387   2.062879
    13  H    2.770879   1.998686   2.552015   1.998579   0.991954
                    6          7          8          9         10
     6  H    0.000000
     7  H    1.810200   0.000000
     8  H    2.407711   2.298944   0.000000
     9  H    2.507522   3.104291   3.541371   0.000000
    10  H    2.526067   2.573303   4.116868   1.776355   0.000000
    11  H    4.365046   3.787531   4.803300   2.591215   2.461510
    12  H    3.781102   2.552301   3.734152   3.087442   2.674701
    13  H    3.680012   3.280944   2.736812   2.639988   3.620559
                   11         12         13
    11  H    0.000000
    12  H    1.809691   0.000000
    13  H    2.837910   2.453108   0.000000
 Stoichiometry    C3H8O2
 Framework group  C1[X(C3H8O2)]
 Deg. of freedom    33
 Full point group                 C1      NOp   1
 Largest Abelian subgroup         C1      NOp   1
 Largest concise Abelian subgroup C1      NOp   1
                         Standard orientation:                         
 ---------------------------------------------------------------------
 Center     Atomic      Atomic             Coordinates (Angstroms)
 Number     Number       Type             X           Y           Z
 ---------------------------------------------------------------------
      1          6           0        1.312292    0.471647    0.173655
      2          8           0        1.258367   -0.950916   -0.083572
      3          6           0       -0.003912    1.037452   -0.353322
      4          6           0       -1.229666    0.431070    0.338750
      5          8           0       -1.516426   -0.881923   -0.148492
      6          1           0        2.183678    0.884257   -0.367100
      7          1           0        1.432505    0.630265    1.260184
      8          1           0        1.999923   -1.405306    0.354849
      9          1           0       -0.080356    0.826284   -1.443416
     10          1           0       -0.005546    2.138994   -0.248999
     11          1           0       -2.154945    0.991357    0.100353
     12          1           0       -1.100776    0.373088    1.435065
     13          1           0       -0.682299   -1.417246   -0.188916
 ---------------------------------------------------------------------
 Rotational constants (GHZ):      7.6534531      3.9473077      2.8975284
 Standard basis: VSTO-6G (5D, 7F)
 There are    28 symmetry adapted cartesian basis functions of A   symmetry.
 There are    28 symmetry adapted basis functions of A   symmetry.
    28 basis functions,   168 primitive gaussians,    28 cartesian basis functions
    16 alpha electrons       16 beta electrons
       nuclear repulsion energy       137.2389157893 Hartrees.
 Integral buffers will be    131072 words long.
 Regular integral format.
 Two-electron integral symmetry is turned off.
 Do NDO integrals.
 One-electron integrals computed using PRISM.
 NBasis=    28 RedAO= F EigKep=  0.00D+00  NBF=    28
 NBsUse=    28 1.00D-04 EigRej=  0.00D+00 NBFU=    28
 Initial guess from the checkpoint file:  "1-3-propanediol-opt.chk"
 B after Tr=     0.000000    0.000000   -0.000000
         Rot=    0.999997   -0.000179    0.001317   -0.001890 Ang=  -0.26 deg.
 Overlap will be assumed to be unity.
 Keep J ints in memory in canonical form, NReq=891302.
 Requested convergence on RMS density matrix=1.00D-08 within 128 cycles.
 Requested convergence on MAX density matrix=1.00D-06.
 Requested convergence on             energy=1.00D-06.
 No special actions if energy rises.
 SCF Done:  E(RPM6) = -0.161590903782     A.U. after   11 cycles
            NFock= 10  Conv=0.32D-08     -V/T= 0.9910
 Calling FoFJK, ICntrl=      2127 FMM=F ISym2X=0 I1Cent= 0 IOpClX= 0 NMat=1 NMatS=1 NMatT=0.
 ***** Axes restored to original set *****
 -------------------------------------------------------------------
 Center     Atomic                   Forces (Hartrees/Bohr)
 Number     Number              X              Y              Z
 -------------------------------------------------------------------
      1        6           0.000086995    0.000299045    0.001729668
      2        8          -0.000379622   -0.000030729   -0.001314095
      3        6           0.000522326    0.000301349   -0.001274705
      4        6          -0.000111063   -0.000751398    0.001261878
      5        8           0.000379070   -0.000299367   -0.000462811
      6        1           0.000192511   -0.000002946    0.000114745
      7        1          -0.000063038   -0.000081097   -0.000145788
      8        1           0.000079271   -0.000089336    0.000191877
      9        1           0.000014033   -0.000106585   -0.000138220
     10        1           0.000123311    0.000189013   -0.000172853
     11        1          -0.000368635    0.000326152    0.000153797
     12        1          -0.000071313   -0.000139141   -0.000043442
     13        1          -0.000403846    0.000385040    0.000099950
 -------------------------------------------------------------------
 Cartesian Forces:  Max     0.001729668 RMS     0.000516996

 GradGradGradGradGradGradGradGradGradGradGradGradGradGradGradGradGradGrad
 Berny optimization.
 Using GEDIIS/GDIIS optimizer.
 FormGI is forming the generalized inverse of G from B-inverse, IUseBI=4.
 Internal  Forces:  Max     0.001001589 RMS     0.000284161
 Search for a local minimum.
 Step number   5 out of a maximum of   66 on scan point     1 out of    37
 All quantities printed in internal units (Hartrees-Bohrs-Radians)
 Mixed Optimization -- En-DIIS/RFO-DIIS
 Swapping is turned off.
 Update second derivatives using D2CorX and points    1    2    3    4    5
 DE= -5.86D-05 DEPred=-4.68D-05 R= 1.25D+00
 TightC=F SS=  1.41D+00  RLast= 7.53D-02 DXNew= 1.3387D+00 2.2604D-01
 Trust test= 1.25D+00 RLast= 7.53D-02 DXMaxT set to 7.96D-01
 ITU=  1  1  1  1  0
     Eigenvalues ---    0.00337   0.01034   0.01435   0.01763   0.04251
     Eigenvalues ---    0.04701   0.05237   0.05469   0.05690   0.08384
     Eigenvalues ---    0.11233   0.11601   0.11996   0.13317   0.14116
     Eigenvalues ---    0.15992   0.18244   0.21891   0.22079   0.26601
     Eigenvalues ---    0.29227   0.30516   0.32991   0.33502   0.33621
     Eigenvalues ---    0.33790   0.34123   0.35192   0.40183   0.51483
     Eigenvalues ---    0.53568   0.554611000.000001000.000001000.00000
     Eigenvalues --- 1000.000001000.000001000.000001000.000001000.00000
     Eigenvalues --- 1000.000001000.000001000.000001000.000001000.00000
     Eigenvalues --- 1000.000001000.000001000.000001000.000001000.00000
     Eigenvalues --- 1000.000001000.000001000.000001000.000001000.00000
     Eigenvalues --- 1000.00000
 En-DIIS/RFO-DIIS IScMMF=        0 using points:     5    4
 RFO step:  Lambda=-4.40581502D-06.
 DidBck=F Rises=F RFO-DIIS coefs:    1.22916   -0.22916
 Iteration  1 RMS(Cart)=  0.00376318 RMS(Int)=  0.00002508
 Iteration  2 RMS(Cart)=  0.00002424 RMS(Int)=  0.00000080
 Iteration  3 RMS(Cart)=  0.00000000 RMS(Int)=  0.00000080
 Iteration  1 RMS(Cart)=  0.00000013 RMS(Int)=  0.00000010
 Variable       Old X    -DE/DX   Delta X   Delta X   Delta X     New X
                                 (Linear)    (Quad)   (Total)
    R1        2.73375   0.00018   0.00041   0.00098   0.00139   2.73514
    R2        2.88469   0.00017   0.00004   0.00060   0.00063   2.88532
    R3        2.08896  -0.00022  -0.00018  -0.00074  -0.00092   2.08804
    R4        2.08740  -0.00014  -0.00025  -0.00061  -0.00086   2.08654
    R5        1.84051  -0.00008  -0.00009  -0.00005  -0.00015   1.84036
    R6        2.89636  -0.00006   0.00018  -0.00048  -0.00029   2.89607
    R7        2.10324   0.00015   0.00013   0.00094   0.00106   2.10431
[...]
           A6         109.45509 109.47457 109.45869 109.43263 109.39162
           A7         110.67939 110.66535 110.67998 110.71617 110.74838
           A8         111.24581 111.51111 111.74396 112.01927 112.37342
           A9         110.11128 109.99759 109.88907 109.81691 109.79848
           A10        110.66245 110.68170 110.71294 110.67210 110.54090
           A11        109.59329 109.45254 109.19966 108.90346 108.60654
           A12        109.93295 109.83741 109.90049 109.98915 110.07370
           A13        105.11714 105.16495 105.17984 105.20241 105.18042
           A14        110.40024 110.32050 110.28521 110.30417 110.34194
           A15        111.89806 112.16439 112.33653 112.41616 112.43431
           A16        112.22262 112.14138 112.04221 111.92130 111.80935
           A17        109.84427 109.74632 109.57056 109.39896 109.27539
           A18        102.73814 102.80770 102.91317 102.98935 103.00057
           A19        109.35316 109.25278 109.27266 109.38562 109.55203
           A20        110.87052 110.90545 110.93527 110.94214 110.94492
           D1         -62.06840 -64.56346 -66.76618 -68.80933 -70.80320
           D2         177.88708 175.72683 173.76035 171.81539 169.79618
           D3          62.05478  59.91202  57.99859  56.12250  54.17476
           D4         -49.97464 -39.97463 -29.97470 -19.97461  -9.97458
           D5        -171.67809-161.59985-151.36071-141.11904-130.96541
           D6          72.54231  82.61861  92.88585 103.16665 113.43402
           D7          64.02885  73.74854  83.56350  93.51181 103.61978
           D8         -57.67460 -47.87667 -37.82250 -27.63262 -17.37105
           D9        -173.45420-163.65822-153.57594-143.34693-132.97162
           D10       -172.64118-163.06044-153.37541-143.53565-133.56295
           D11         65.65537  75.31434  85.23859  95.31992 105.44622
           D12        -50.12423 -40.46720 -30.51485 -20.39439 -10.15436
           D13        179.75057-176.87740-171.16514-167.39375-167.06127
           D14         57.07829  60.44707  66.29052  70.21352  70.66520
           D15        -66.29136 -62.93026 -57.16804 -53.36239 -53.05873
           D16        -58.24497 -54.93679 -49.38109 -45.72364 -45.38850
           D17        179.08274-177.61231-171.92543-168.11637-167.66202
           D18         55.71309  59.01036  64.61602  68.30772  68.61404
           D19         56.81377  60.04643  65.51295  69.08025  69.26931
           D20        -65.85851 -62.62909 -57.03138 -53.31248 -53.00421
           D21        170.77184 173.99357 179.51006-176.88839-176.72815
           D22        -65.52865 -64.82647 -64.11482 -63.53697 -62.97593
           D23         58.33724  59.25477  60.03916  60.61264  61.13738
           D24        174.61890 175.41490 176.20032 176.86791 177.53545
                          31        32        33        34        35
     Eigenvalues --    -0.15917  -0.15891  -0.15896  -0.15930  -0.15987
           R1           1.43381   1.43363   1.43343   1.43315   1.43278
           R2           1.53454   1.53470   1.53418   1.53312   1.53176
           R3           1.10867   1.10837   1.10814   1.10802   1.10805
           R4           1.10345   1.10377   1.10417   1.10458   1.10502
           R5           0.97673   0.97653   0.97623   0.97586   0.97550
           R6           1.53095   1.53055   1.53019   1.52996   1.52985
           R7           1.11074   1.11108   1.11142   1.11170   1.11191
           R8           1.10562   1.10564   1.10573   1.10592   1.10619
           R9           1.43335   1.43316   1.43302   1.43294   1.43288
           R10          1.10265   1.10291   1.10323   1.10360   1.10402
           R11          1.10956   1.10976   1.10970   1.10942   1.10892
           R12          0.97536   0.97557   0.97581   0.97607   0.97634
           A1         112.75547 112.85065 112.87353 112.85205 112.83135
           A2         101.85965 102.03379 102.21182 102.33938 102.38010
           A3         109.21373 109.08441 108.97664 108.89559 108.81167
           A4         111.40004 111.36410 111.33269 111.31099 111.31748
           A5         111.78682 111.71032 111.64780 111.61926 111.63966
           A6         109.35660 109.34576 109.36433 109.40186 109.43974
           A7         110.77829 110.81346 110.86483 110.93987 111.03556
           A8         112.70739 112.94982 113.09037 113.14995 113.16499
           A9         109.81302 109.83314 109.83555 109.80599 109.73205
           A10        110.35236 110.14840 109.94652 109.77244 109.64164
           A11        108.32011 108.08989 107.95973 107.96235 108.09487
           A12        110.19218 110.34143 110.49307 110.59440 110.61593
           A13        105.16097 105.16541 105.19606 105.23759 105.27833
           A14        110.38726 110.44473 110.51626 110.59326 110.65845
           A15        112.43461 112.42991 112.41878 112.40016 112.36823
           A16        111.71775 111.65161 111.62614 111.66308 111.77871
           A17        109.18414 109.11398 109.05623 109.01098 108.98777
           A18        102.95598 102.87351 102.75919 102.62179 102.47210
           A19        109.73014 109.89023 110.01927 110.09652 110.10956
           A20        110.94302 110.93438 110.91919 110.89903 110.87444
           D1         -72.57472 -73.86908 -74.31004 -73.36901 -70.47029
           D2         167.92759 166.52500 166.00212 166.90178 169.77813
           D3          52.34326  50.92009  50.33323  51.16140  54.00935
           D4           0.02548  10.02542  20.02544  30.02551  40.02557
           D5        -120.83430-110.71748-100.64731 -90.66966 -80.79658
           D6         123.68905 133.90602 144.05322 154.09667 164.03650
           D7         113.83794 124.09080 134.30724 144.43952 154.48178
           D8          -7.02183   3.34791  13.63449  23.74435  33.65963
           D9        -122.49848-112.02860-101.66498 -91.48932 -81.50729
           D10       -123.47727-113.31960-103.14667 -93.00194 -82.89143
           D11        115.66296 125.93750 136.18059 146.30289 156.28642
           D12          0.18631  10.56099  20.88111  31.06922  41.11950
           D13       -168.82473-171.58176-174.74634-177.98969 179.17900
           D14         68.98634  66.28151  63.14751  59.91996  57.09394
           D15        -54.90299 -57.76506 -61.04158 -64.38553 -67.29358
           D16        -47.11575 -49.85127 -53.01333 -56.25376 -59.07560
           D17       -169.30467-171.98800-175.11949-178.34411 178.83934
           D18         66.80600  63.96543  60.69142  57.35039  54.45182
           D19         67.42300  64.64388  61.52570  58.38972  55.70263
           D20        -54.76592 -57.49285 -60.58045 -63.70063 -66.38243
           D21       -178.65526 178.46058 175.23046 171.99388 169.23005
           D22        -62.38751 -61.82090 -61.29538 -60.84694 -60.53309
           D23         61.69421  62.24546  62.76534  63.21085  63.51216
           D24        178.23412 178.89660 179.48172 179.92742-179.84065
                          36        37
     Eigenvalues --    -0.16057  -0.16129
           R1           1.43256   1.43276
           R2           1.53030   1.52893
           R3           1.10810   1.10798
           R4           1.10541   1.10586
           R5           0.97525   0.97584
           R6           1.52993   1.53011
           R7           1.11212   1.11262
           R8           1.10639   1.10618
           R9           1.43285   1.43268
           R10          1.10434   1.10453
           R11          1.10833   1.10789
           R12          0.97660   0.97686
           A1         112.78989 112.70659
           A2         102.35469 102.36884
           A3         108.69830 108.40034
           A4         111.38507 111.59498
           A5         111.71869 111.85464
           A6         109.46193 109.46095
           A7         111.12263 111.15400
           A8         113.09338 112.77611
           A9         109.64887 109.53424
           A10        109.59271 109.70370
           A11        108.32511 108.52701
           A12        110.56934 110.62057
           A13        105.30847 105.40398
           A14        110.69924 110.73131
           A15        112.33693 112.30654
           A16        111.94955 112.11916
           A17        109.00158 109.08326
           A18        102.34192 102.31516
           A19        110.03543 109.80842
           A20        110.84879 110.81410
           D1         -65.44383 -56.27480
           D2         174.76000-176.28858
           D3          59.02454  68.09084
           D4          50.02552  60.02552
           D5         -70.98363 -60.94772
           D6         173.88750-176.18918
           D7         164.46748 174.56760
           D8          43.45833  53.59435
           D9         -71.67054 -61.64710
           D10        -72.77125 -62.42018
           D11        166.21959 176.60658
           D12         51.09072  61.36513
           D13        178.10729-175.30871
           D14         55.99697  62.47380
           D15        -68.40028 -61.72988
           D16        -60.13684 -53.76314
           D17        177.75284-175.98063
           D18         53.35559  59.81569
           D19         54.78284  61.41402
           D20        -67.32749 -60.80347
           D21        168.27526 174.99285
           D22        -60.37941 -60.20290
           D23         63.66321  63.87924
           D24       -179.83256-179.85382
                          Input orientation:                          
 ---------------------------------------------------------------------
 Center     Atomic      Atomic             Coordinates (Angstroms)
 Number     Number       Type             X           Y           Z
 ---------------------------------------------------------------------
      1          6           0        1.102075    2.516032    0.712235
      2          8           0        0.082199    2.182566    1.661689
      3          6           0        2.512738    2.304686    1.262686
      4          6           0        2.777164    0.854704    1.673630
      5          8           0        4.068094    0.727306    2.281768
      6          1           0        0.898750    3.586573    0.511676
      7          1           0        0.927235    1.929013   -0.208503
      8          1           0        0.179983    1.263728    1.975430
      9          1           0        2.667423    2.957524    2.150271
     10          1           0        3.258065    2.640504    0.517466
     11          1           0        2.710126    0.157929    0.819238
     12          1           0        2.100012    0.520793    2.484423
     13          1           0        4.772337    0.998042    1.661290
 ---------------------------------------------------------------------
                    Distance matrix (angstroms):
                    1          2          3          4          5
     1  C    0.000000
     2  O    1.432763   0.000000
     3  C    1.528932   2.466097   0.000000
     4  C    2.547589   3.004363   1.530112   0.000000
     5  O    3.802662   4.288314   2.438399   1.432676   0.000000
     6  H    1.107982   1.990106   2.193675   3.513073   4.620971
     7  H    1.105856   2.067847   2.195300   2.849351   4.184560
     8  H    2.003542   0.975836   2.652045   2.646457   3.936877
     9  H    2.170985   2.742746   1.112624   2.158954   2.636863
    10  H    2.168346   3.406624   1.106183   2.181069   2.725663
    11  H    2.856208   3.422701   2.200948   1.104526   2.075394
    12  H    2.849123   2.740429   2.201194   1.107889   1.989237
    13  H    4.083604   4.837406   2.640453   2.000354   0.976857
                    6          7          8          9         10
     6  H    0.000000
     7  H    1.807477   0.000000
     8  H    2.838100   2.402197   0.000000
     9  H    2.491766   3.106429   3.014444   0.000000
    10  H    2.541938   2.542837   3.673658   1.765054   0.000000
    11  H    3.889895   2.715086   2.993526   3.100195   2.560173
    12  H    3.838459   3.257352   2.120740   2.524138   3.114994
    13  H    4.798623   4.375802   4.610748   2.917077   2.509788
                   11         12         13
    11  H    0.000000
    12  H    1.810181   0.000000
    13  H    2.380663   2.836660   0.000000
 Stoichiometry    C3H8O2
 Framework group  C1[X(C3H8O2)]
 Deg. of freedom    33
 Full point group                 C1      NOp   1
 Largest Abelian subgroup         C1      NOp   1
 Largest concise Abelian subgroup C1      NOp   1
                         Standard orientation:                         
 ---------------------------------------------------------------------
 Center     Atomic      Atomic             Coordinates (Angstroms)
 Number     Number       Type             X           Y           Z
 ---------------------------------------------------------------------
      1          6           0        1.410168    0.545117    0.228160
      2          8           0        1.970139   -0.687541   -0.240664
      3          6           0       -0.045162    0.733243   -0.201088
      4          6           0       -0.964445   -0.372929    0.320968
      5          8           0       -2.291771   -0.214646   -0.194507
      6          1           0        2.073743    1.299865   -0.238369
      7          1           0        1.523446    0.584192    1.327504
      8          1           0        1.437815   -1.450616    0.053623
      9          1           0       -0.106348    0.748868   -1.311919
     10          1           0       -0.405383    1.726332    0.127024
     11          1           0       -1.006126   -0.397419    1.424435
     12          1           0       -0.678031   -1.370688   -0.066153
     13          1           0       -2.669429    0.644377    0.076978
 ---------------------------------------------------------------------
 Rotational constants (GHZ):     12.7475476      2.4272867      2.2076788

 **********************************************************************

            Population analysis using the SCF density.

 **********************************************************************

 Orbital symmetries:
       Occupied  (A) (A) (A) (A) (A) (A) (A) (A) (A) (A) (A) (A)
                 (A) (A) (A) (A)
       Virtual   (A) (A) (A) (A) (A) (A) (A) (A) (A) (A) (A) (A)
 The electronic state is 1-A.
 Alpha  occ. eigenvalues --   -1.12087  -1.09661  -0.99642  -0.89592  -0.79027
 Alpha  occ. eigenvalues --   -0.67632  -0.64837  -0.60765  -0.57609  -0.53778
 Alpha  occ. eigenvalues --   -0.52005  -0.49878  -0.45314  -0.44416  -0.39637
 Alpha  occ. eigenvalues --   -0.39276
 Alpha virt. eigenvalues --    0.08481   0.09253   0.12587   0.13525   0.17170
 Alpha virt. eigenvalues --    0.18071   0.18963   0.19039   0.19580   0.20684
 Alpha virt. eigenvalues --    0.21400   0.21912
          Condensed to atoms (all electrons):
               1          2          3          4          5          6
     1  C    3.973286   0.000000   0.000000   0.000000   0.000000   0.000000
     2  O    0.000000   6.545294   0.000000   0.000000   0.000000   0.000000
     3  C    0.000000   0.000000   4.417376   0.000000   0.000000   0.000000
     4  C    0.000000   0.000000   0.000000   3.975672   0.000000   0.000000
     5  O    0.000000   0.000000   0.000000   0.000000   6.542471   0.000000
     6  H    0.000000   0.000000   0.000000   0.000000   0.000000   0.854328
     7  H    0.000000   0.000000   0.000000   0.000000   0.000000   0.000000
     8  H    0.000000   0.000000   0.000000   0.000000   0.000000   0.000000
     9  H    0.000000   0.000000   0.000000   0.000000   0.000000   0.000000
    10  H    0.000000   0.000000   0.000000   0.000000   0.000000   0.000000
    11  H    0.000000   0.000000   0.000000   0.000000   0.000000   0.000000
    12  H    0.000000   0.000000   0.000000   0.000000   0.000000   0.000000
    13  H    0.000000   0.000000   0.000000   0.000000   0.000000   0.000000
               7          8          9         10         11         12
     1  C    0.000000   0.000000   0.000000   0.000000   0.000000   0.000000
     2  O    0.000000   0.000000   0.000000   0.000000   0.000000   0.000000
     3  C    0.000000   0.000000   0.000000   0.000000   0.000000   0.000000
     4  C    0.000000   0.000000   0.000000   0.000000   0.000000   0.000000
     5  O    0.000000   0.000000   0.000000   0.000000   0.000000   0.000000
     6  H    0.000000   0.000000   0.000000   0.000000   0.000000   0.000000
     7  H    0.889269   0.000000   0.000000   0.000000   0.000000   0.000000
     8  H    0.000000   0.694733   0.000000   0.000000   0.000000   0.000000
     9  H    0.000000   0.000000   0.819250   0.000000   0.000000   0.000000
    10  H    0.000000   0.000000   0.000000   0.844525   0.000000   0.000000
    11  H    0.000000   0.000000   0.000000   0.000000   0.889928   0.000000
    12  H    0.000000   0.000000   0.000000   0.000000   0.000000   0.859141
    13  H    0.000000   0.000000   0.000000   0.000000   0.000000   0.000000
              13
     1  C    0.000000
     2  O    0.000000
     3  C    0.000000
     4  C    0.000000
     5  O    0.000000
     6  H    0.000000
     7  H    0.000000
     8  H    0.000000
     9  H    0.000000
    10  H    0.000000
    11  H    0.000000
    12  H    0.000000
    13  H    0.694726
 Mulliken charges:
               1
     1  C    0.026714
     2  O   -0.545294
     3  C   -0.417376
     4  C    0.024328
     5  O   -0.542471
     6  H    0.145672
     7  H    0.110731
     8  H    0.305267
     9  H    0.180750
    10  H    0.155475
    11  H    0.110072
    12  H    0.140859
    13  H    0.305274
 Sum of Mulliken charges =  -0.00000
 Mulliken charges with hydrogens summed into heavy atoms:
               1
     1  C    0.283117
     2  O   -0.240028
     3  C   -0.081151
     4  C    0.275259
     5  O   -0.237197
 Charge=             -0.0000 electrons
 Dipole moment (field-independent basis, Debye):
    X=             -0.4388    Y=              1.7479    Z=              2.0250  Tot=              2.7108
 N-N= 1.340364786924D+02 E-N=-2.292157340360D+02  KE=-1.787666895375D+01
 1\1\GINC-GTX1080DELTA\Scan\RPM6\ZDO\C3H8O2\MVEROT\18-Apr-2022\0\\#n PM
 6 Opt=modredundant\\Optimisation de geometrie\\0,1\C,1.1020751401,2.51
 60315171,0.7122351899\O,0.08219872,2.1825655977,1.6616890318\C,2.51273
 75546,2.3046855993,1.262686152\C,2.7771640018,0.8547042217,1.673630012
 1\O,4.0680936596,0.7273055795,2.2817679512\H,0.898749884,3.5865733876,
 0.5116764069\H,0.9272352157,1.9290134945,-0.2085027053\H,0.1799825617,
 1.2637284471,1.9754299713\H,2.667422845,2.9575241906,2.1502713329\H,3.
 2580654533,2.6405043158,0.5174657191\H,2.7101259214,0.1579287085,0.819
 2375564\H,2.1000117429,0.5207932652,2.484423451\H,4.7723372997,0.99804
 16754,1.6612899307\\Version=AM64L-G09RevD.01\State=1-A\HF=-0.1656619,-
 0.1657241,-0.1651505,-0.1642457,-0.1633494,-0.1626551,-0.1622414,-0.16
 21195,-0.1622268,-0.1624689,-0.162744,-0.1629547,-0.1630299,-0.1629409
 ,-0.1627017,-0.1623602,-0.1619889,-0.1616732,-0.1614845,-0.1614552,-0.
 1615659,-0.1617464,-0.1618965,-0.1619134,-0.1617022,-0.1627764,-0.1621
 724,-0.1613521,-0.1604959,-0.1597318,-0.1591731,-0.1589057,-0.158959,-
 0.1593043,-0.159872,-0.160568,-0.1612932\RMSD=2.164e-09,5.249e-09,7.98
 7e-09,5.319e-09,5.907e-09,7.729e-09,7.325e-09,6.631e-09,4.920e-09,9.55
 4e-09,5.448e-09,6.306e-09,5.143e-09,6.283e-09,9.389e-09,4.128e-09,2.63
 0e-09,3.012e-09,6.158e-09,4.411e-09,4.158e-09,4.169e-09,9.029e-09,5.61
 5e-09,7.692e-09,6.618e-09,4.826e-09,9.308e-09,6.772e-09,5.344e-09,3.58
 1e-09,9.713e-09,4.906e-09,8.340e-09,5.296e-09,4.030e-09,9.126e-09\PG=C
 01 [X(C3H8O2)]\\@


 TWO ROADS DIVERGED IN A WOOD, AND I--
 I TOOK THE ONE LESS TRAVELED BY,
 AND THAT HAS MADE ALL THE DIFFERENCE.

                       -- ROBERT FROST
 Job cpu time:       0 days  0 hours  1 minutes 54.4 seconds.
 File lengths (MBytes):  RWF=     72 Int=      0 D2E=      0 Chk=      5 Scr=      2
 Normal termination of Gaussian 09 at Mon Apr 18 00:27:38 2022.
