 Entering Gaussian System, Link 0=g09
 Input=/scratch/mverot/cyclobutane-ion-frozen/cyclobutane-ion-frozen.com
 Output=/scratch/mverot/cyclobutane-ion-frozen/cyclobutane-ion-frozen.log
 Initial command:
 /opt/g09/l1.exe "/scratch/mverot/cyclobutane-ion-frozen/Gau-845038.inp" -scrdir="/scratch/mverot/cyclobutane-ion-frozen/"
 Entering Link 1 = /opt/g09/l1.exe PID=    845040.
  
 Copyright (c) 1988,1990,1992,1993,1995,1998,2003,2009,2013,
            Gaussian, Inc.  All Rights Reserved.
  
 This is part of the Gaussian(R) 09 program.  It is based on
 the Gaussian(R) 03 system (copyright 2003, Gaussian, Inc.),
 the Gaussian(R) 98 system (copyright 1998, Gaussian, Inc.),
 the Gaussian(R) 94 system (copyright 1995, Gaussian, Inc.),
 the Gaussian 92(TM) system (copyright 1992, Gaussian, Inc.),
 the Gaussian 90(TM) system (copyright 1990, Gaussian, Inc.),
 the Gaussian 88(TM) system (copyright 1988, Gaussian, Inc.),
 the Gaussian 86(TM) system (copyright 1986, Carnegie Mellon
 University), and the Gaussian 82(TM) system (copyright 1983,
 Carnegie Mellon University). Gaussian is a federally registered
 trademark of Gaussian, Inc.
  
 This software contains proprietary and confidential information,
 including trade secrets, belonging to Gaussian, Inc.
  
 This software is provided under written license and may be
 used, copied, transmitted, or stored only in accord with that
 written license.
  
 The following legend is applicable only to US Government
 contracts under FAR:
  
                    RESTRICTED RIGHTS LEGEND
  
 Use, reproduction and disclosure by the US Government is
 subject to restrictions as set forth in subparagraphs (a)
 and (c) of the Commercial Computer Software - Restricted
 Rights clause in FAR 52.227-19.
  
 Gaussian, Inc.
 340 Quinnipiac St., Bldg. 40, Wallingford CT 06492
  
  
 ---------------------------------------------------------------
 Warning -- This program may not be used in any manner that
 competes with the business of Gaussian, Inc. or will provide
 assistance to any competitor of Gaussian, Inc.  The licensee
 of this program is prohibited from giving any competitor of
 Gaussian, Inc. access to this program.  By using this program,
 the user acknowledges that Gaussian, Inc. is engaged in the
 business of creating and licensing software in the field of
 computational chemistry and represents and warrants to the
 licensee that it is not a competitor of Gaussian, Inc. and that
 it will not use this program in any manner prohibited above.
 ---------------------------------------------------------------
  

 Cite this work as:
 Gaussian 09, Revision D.01,
 M. J. Frisch, G. W. Trucks, H. B. Schlegel, G. E. Scuseria, 
 M. A. Robb, J. R. Cheeseman, G. Scalmani, V. Barone, B. Mennucci, 
 G. A. Petersson, H. Nakatsuji, M. Caricato, X. Li, H. P. Hratchian, 
 A. F. Izmaylov, J. Bloino, G. Zheng, J. L. Sonnenberg, M. Hada, 
 M. Ehara, K. Toyota, R. Fukuda, J. Hasegawa, M. Ishida, T. Nakajima, 
 Y. Honda, O. Kitao, H. Nakai, T. Vreven, J. A. Montgomery, Jr., 
 J. E. Peralta, F. Ogliaro, M. Bearpark, J. J. Heyd, E. Brothers, 
 K. N. Kudin, V. N. Staroverov, T. Keith, R. Kobayashi, J. Normand, 
 K. Raghavachari, A. Rendell, J. C. Burant, S. S. Iyengar, J. Tomasi, 
 M. Cossi, N. Rega, J. M. Millam, M. Klene, J. E. Knox, J. B. Cross, 
 V. Bakken, C. Adamo, J. Jaramillo, R. Gomperts, R. E. Stratmann, 
 O. Yazyev, A. J. Austin, R. Cammi, C. Pomelli, J. W. Ochterski, 
 R. L. Martin, K. Morokuma, V. G. Zakrzewski, G. A. Voth, 
 P. Salvador, J. J. Dannenberg, S. Dapprich, A. D. Daniels, 
 O. Farkas, J. B. Foresman, J. V. Ortiz, J. Cioslowski, 
 and D. J. Fox, Gaussian, Inc., Wallingford CT, 2013.
 
 ******************************************
 Gaussian 09:  AM64L-G09RevD.01 24-Apr-2013
                16-Apr-2022 
 ******************************************
 %chk=cyclobutane-opt
 ----------------
 # hf/6-31G* freq
 ----------------
 1/10=4,30=1,38=1/1,3;
 2/12=2,17=6,18=5,40=1/2;
 3/5=1,6=6,7=1,11=9,16=1,25=1,30=1,71=2,140=1/1,2,3;
 4//1;
 5/5=2,38=5,98=1/2;
 8/6=4,10=90,11=11/1;
 10/13=10,15=4/2;
 11/6=3,8=1,9=11,15=111,16=1/1,2,10;
 10/6=1/2;
 6/7=2,8=2,9=2,10=2,18=1,28=1/1;
 7/8=1,10=1,25=1/1,2,3,16;
 1/10=4,30=1/3;
 99//99;
 -------------------------
 Optimisation de geometrie
 -------------------------
 Symbolic Z-matrix:
 Charge =  1 Multiplicity = 2
 C                     1.82576   2.82813   1.05438 
 C                     0.69068   1.7985    0.85585 
 C                     1.72698   0.67338   1.07531 
 C                     2.84412   1.69902   0.77864 
 H                     1.87854   3.17336   2.0816 
 H                     1.84223   3.6924    0.40014 
 H                     0.31662   1.80576  -0.16258 
 H                    -0.15486   1.84384   1.5328 
 H                     1.66372  -0.20129   0.43796 
 H                     1.74886   0.34475   2.10908 
 H                     3.1435    1.67517  -0.26394 
 H                     3.73645   1.66408   1.39327 
 

 GradGradGradGradGradGradGradGradGradGradGradGradGradGradGradGradGradGrad
 Berny optimization.
 Initialization pass.
 Trust Radius=3.00D-01 FncErr=1.00D-07 GrdErr=1.00D-07
 Number of steps in this run=      2 maximum allowed number of steps=      2.
 GradGradGradGradGradGradGradGradGradGradGradGradGradGradGradGradGradGrad

                          Input orientation:                          
 ---------------------------------------------------------------------
 Center     Atomic      Atomic             Coordinates (Angstroms)
 Number     Number       Type             X           Y           Z
 ---------------------------------------------------------------------
      1          6           0        1.825761    2.828133    1.054379
      2          6           0        0.690676    1.798499    0.855846
      3          6           0        1.726977    0.673378    1.075307
      4          6           0        2.844119    1.699024    0.778635
      5          1           0        1.878537    3.173357    2.081604
      6          1           0        1.842228    3.692399    0.400140
      7          1           0        0.316623    1.805758   -0.162577
      8          1           0       -0.154863    1.843837    1.532798
      9          1           0        1.663722   -0.201290    0.437960
     10          1           0        1.748862    0.344750    2.109077
     11          1           0        3.143504    1.675172   -0.263936
     12          1           0        3.736454    1.664084    1.393268
 ---------------------------------------------------------------------
                    Distance matrix (angstroms):
                    1          2          3          4          5
     1  C    0.000000
     2  C    1.545309   0.000000
     3  C    2.157120   1.545309   0.000000
     4  C    1.545308   2.157122   1.545306   0.000000
     5  H    1.084968   2.191742   2.699167   2.191742   0.000000
     6  H    1.084092   2.262874   3.095743   2.262872   1.760126
     7  H    2.191742   1.084968   2.191744   2.699168   3.057164
     8  H    2.262874   1.084092   2.262873   3.095743   2.490689
     9  H    3.095745   2.262875   1.084092   2.262872   3.759781
    10  H    2.699165   2.191741   1.084968   2.191739   2.831712
    11  H    2.191740   2.699164   2.191738   1.084968   3.057165
    12  H    2.262875   3.095748   2.262874   1.084092   2.490697
                    6          7          8          9         10
     6  H    0.000000
     7  H    2.490689   0.000000
     8  H    2.947621   1.760126   0.000000
     9  H    3.897963   2.490695   2.947620   0.000000
    10  H    3.759779   3.057166   2.490689   1.760125   0.000000
    11  H    2.490688   2.831710   3.759778   2.490688   3.057162
    12  H    2.947620   3.759784   3.897965   2.947618   2.490692
                   11         12
    11  H    0.000000
    12  H    1.760124   0.000000
 This structure is nearly, but not quite of a higher symmetry.
 Consider Symm=Loose if the higher symmetry is desired.
 Stoichiometry    C4H8(1+,2)
 Framework group  C1[X(C4H8)]
 Deg. of freedom    30
 Full point group                 C1      NOp   1
 Largest Abelian subgroup         C1      NOp   1
 Largest concise Abelian subgroup C1      NOp   1
                         Standard orientation:                         
 ---------------------------------------------------------------------
 Center     Atomic      Atomic             Coordinates (Angstroms)
 Number     Number       Type             X           Y           Z
 ---------------------------------------------------------------------
      1          6           0       -0.501009   -0.953731   -0.134266
      2          6           0       -0.953068    0.493890    0.162408
      3          6           0        0.494250    0.959954   -0.113337
      4          6           0        0.959827   -0.500113    0.085195
      5          1           0       -0.684769   -1.227060   -1.168034
      6          1           0       -0.884973   -1.742155    0.503084
      7          1           0       -1.224042    0.623413    1.204977
      8          1           0       -1.742572    0.911213   -0.452232
      9          1           0        0.913480    1.715915    0.540899
     10          1           0        0.621736    1.285086   -1.140562
     11          1           0        1.287068   -0.681439    1.103620
     12          1           0        1.714073   -0.884972   -0.591750
 ---------------------------------------------------------------------
 Rotational constants (GHZ):     10.7914252     10.7914124      6.3784383
 Standard basis: 6-31G(d) (6D, 7F)
 There are    76 symmetry adapted cartesian basis functions of A   symmetry.
 There are    76 symmetry adapted basis functions of A   symmetry.
    76 basis functions,   144 primitive gaussians,    76 cartesian basis functions
    16 alpha electrons       15 beta electrons
       nuclear repulsion energy       127.5379166642 Hartrees.
 NAtoms=   12 NActive=   12 NUniq=   12 SFac= 1.00D+00 NAtFMM=   60 NAOKFM=F Big=F
 Integral buffers will be    131072 words long.
 Raffenetti 2 integral format.
 Two-electron integral symmetry is turned on.
 One-electron integrals computed using PRISM.
 NBasis=    76 RedAO= T EigKep=  3.19D-03  NBF=    76
 NBsUse=    76 1.00D-06 EigRej= -1.00D+00 NBFU=    76
 ExpMin= 1.61D-01 ExpMax= 3.05D+03 ExpMxC= 4.57D+02 IAcc=1 IRadAn=         1 AccDes= 0.00D+00
 Harris functional with IExCor=  205 and IRadAn=       1 diagonalized for initial guess.
 HarFok:  IExCor=  205 AccDes= 0.00D+00 IRadAn=         1 IDoV= 1 UseB2=F ITyADJ=14
 ICtDFT=  3500011 ScaDFX=  1.000000  1.000000  1.000000  1.000000
 FoFCou: FMM=F IPFlag=           0 FMFlag=      100000 FMFlg1=           0
         NFxFlg=           0 DoJE=T BraDBF=F KetDBF=T FulRan=T
         wScrn=  0.000000 ICntrl=     500 IOpCl=  0 I1Cent=   200000004 NGrid=           0
         NMat0=    1 NMatS0=      1 NMatT0=    0 NMatD0=    1 NMtDS0=    0 NMtDT0=    0
 Petite list used in FoFCou.
 Initial guess <Sx>= 0.0000 <Sy>= 0.0000 <Sz>= 0.5000 <S**2>= 0.7500 S= 0.5000
 Keep R1 and R2 ints in memory in canonical form, NReq=9465470.
 Requested convergence on RMS density matrix=1.00D-08 within 128 cycles.
 Requested convergence on MAX density matrix=1.00D-06.
 Requested convergence on             energy=1.00D-06.
 No special actions if energy rises.
 SCF Done:  E(UHF) =  -155.669682080     A.U. after   16 cycles
            NFock= 16  Conv=0.52D-08     -V/T= 2.0002
 <Sx>= 0.0000 <Sy>= 0.0000 <Sz>= 0.5000 <S**2>= 0.7621 S= 0.5060
 <L.S>=  0.00000000000    
 Annihilation of the first spin contaminant:
 S**2 before annihilation     0.7621,   after     0.7501
 Range of M.O.s used for correlation:     1    76
 NBasis=    76 NAE=    16 NBE=    15 NFC=     0 NFV=     0
 NROrb=     76 NOA=    16 NOB=    15 NVA=    60 NVB=    61
          Differentiating once with respect to electric field.
                with respect to dipole field.
          Electric field/nuclear overlap derivatives assumed to be zero.
 Keep R1 and R2 ints in memory in canonical form, NReq=9445129.
          There are     3 degrees of freedom in the 1st order CPHF.  IDoFFX=0 NUNeed=     3.
      3 vectors produced by pass  0 Test12= 6.25D-14 3.33D-08 XBig12= 4.96D+01 5.61D+00.
 AX will form     3 AO Fock derivatives at one time.
      3 vectors produced by pass  1 Test12= 6.25D-14 3.33D-08 XBig12= 5.80D+00 8.15D-01.
      3 vectors produced by pass  2 Test12= 6.25D-14 3.33D-08 XBig12= 2.32D+00 5.90D-01.
      3 vectors produced by pass  3 Test12= 6.25D-14 3.33D-08 XBig12= 1.14D-01 9.89D-02.
      3 vectors produced by pass  4 Test12= 6.25D-14 3.33D-08 XBig12= 1.58D-02 8.75D-02.
      3 vectors produced by pass  5 Test12= 6.25D-14 3.33D-08 XBig12= 8.76D-04 6.08D-03.
      3 vectors produced by pass  6 Test12= 6.25D-14 3.33D-08 XBig12= 2.01D-05 1.11D-03.
      3 vectors produced by pass  7 Test12= 6.25D-14 3.33D-08 XBig12= 8.43D-07 1.74D-04.
      3 vectors produced by pass  8 Test12= 6.25D-14 3.33D-08 XBig12= 2.99D-08 4.14D-05.
      3 vectors produced by pass  9 Test12= 6.25D-14 3.33D-08 XBig12= 1.34D-09 1.03D-05.
      3 vectors produced by pass 10 Test12= 6.25D-14 3.33D-08 XBig12= 8.02D-11 2.44D-06.
      2 vectors produced by pass 11 Test12= 6.25D-14 3.33D-08 XBig12= 1.18D-12 3.14D-07.
      2 vectors produced by pass 12 Test12= 6.25D-14 3.33D-08 XBig12= 7.39D-14 6.50D-08.
 InvSVY:  IOpt=1 It=  1 EMax= 5.34D-15
 Solved reduced A of dimension    37 with     3 vectors.
 End of Minotr F.D. properties file   721 does not exist.
 End of Minotr F.D. properties file   722 does not exist.
 End of Minotr F.D. properties file   788 does not exist.
 Symmetrizing basis deriv contribution to polar:
 IMax=3 JMax=2 DiffMx= 0.00D+00
 G2DrvN: will do    13 centers at a time, making    1 passes.
 PxScal for G2LodP:  IOpCl= 1 ISclPx=1 IMOff=     1 NMtTot=     4 NTT=    2926 ScalPx= 1.07D+01
 Calling FoFCou, ICntrl=  3107 FMM=F I1Cent=   0 AccDes= 0.00D+00.
 End of G2Drv F.D. properties file   721 does not exist.
 End of G2Drv F.D. properties file   722 does not exist.
 End of G2Drv F.D. properties file   788 does not exist.
          IDoAtm=111111111111
          Differentiating once with respect to electric field.
                with respect to dipole field.
          Differentiating once with respect to nuclear coordinates.
 Keep R1 and R2 ints in memory in canonical form, NReq=9445405.
          There are    39 degrees of freedom in the 1st order CPHF.  IDoFFX=5 NUNeed=    39.
 Will reuse    3 saved solutions.
     33 vectors produced by pass  0 Test12= 4.81D-15 2.56D-09 XBig12= 1.73D-01 2.38D-01.
 AX will form    33 AO Fock derivatives at one time.
     33 vectors produced by pass  1 Test12= 4.81D-15 2.56D-09 XBig12= 8.47D-03 2.11D-02.
     33 vectors produced by pass  2 Test12= 4.81D-15 2.56D-09 XBig12= 1.25D-04 2.39D-03.
     33 vectors produced by pass  3 Test12= 4.81D-15 2.56D-09 XBig12= 1.10D-06 1.85D-04.
     33 vectors produced by pass  4 Test12= 4.81D-15 2.56D-09 XBig12= 1.46D-08 2.63D-05.
     33 vectors produced by pass  5 Test12= 4.81D-15 2.56D-09 XBig12= 1.74D-10 2.02D-06.
     33 vectors produced by pass  6 Test12= 4.81D-15 2.56D-09 XBig12= 1.82D-12 2.26D-07.
     18 vectors produced by pass  7 Test12= 4.81D-15 2.56D-09 XBig12= 1.92D-14 2.05D-08.
 InvSVY:  IOpt=1 It=  1 EMax= 2.55D-15
 Solved reduced A of dimension   249 with    33 vectors.
 Isotropic polarizability for W=    0.000000      153.34 Bohr**3.
 End of Minotr F.D. properties file   721 does not exist.
 End of Minotr F.D. properties file   722 does not exist.
 End of Minotr F.D. properties file   788 does not exist.

 **********************************************************************

            Population analysis using the SCF density.

 **********************************************************************

 Orbital symmetries:
 Alpha Orbitals:
       Occupied  (A) (A) (A) (A) (A) (A) (A) (A) (A) (A) (A) (A)
                 (A) (A) (A) (A)
       Virtual   (A) (A) (A) (A) (A) (A) (A) (A) (A) (A) (A) (A)
                 (A) (A) (A) (A) (A) (A) (A) (A) (A) (A) (A) (A)
                 (A) (A) (A) (A) (A) (A) (A) (A) (A) (A) (A) (A)
                 (A) (A) (A) (A) (A) (A) (A) (A) (A) (A) (A) (A)
                 (A) (A) (A) (A) (A) (A) (A) (A) (A) (A) (A) (A)
 Beta  Orbitals:
       Occupied  (A) (A) (A) (A) (A) (A) (A) (A) (A) (A) (A) (A)
                 (A) (A) (A)
       Virtual   (A) (A) (A) (A) (A) (A) (A) (A) (A) (A) (A) (A)
                 (A) (A) (A) (A) (A) (A) (A) (A) (A) (A) (A) (A)
                 (A) (A) (A) (A) (A) (A) (A) (A) (A) (A) (A) (A)
                 (A) (A) (A) (A) (A) (A) (A) (A) (A) (A) (A) (A)
                 (A) (A) (A) (A) (A) (A) (A) (A) (A) (A) (A) (A)
                 (A)
 The electronic state is 2-A.
 Alpha  occ. eigenvalues --  -11.46628 -11.46573 -11.46573 -11.46516  -1.37929
 Alpha  occ. eigenvalues --   -1.15194  -1.15194  -1.01648  -0.90767  -0.89212
 Alpha  occ. eigenvalues --   -0.80594  -0.80594  -0.72947  -0.72343  -0.68316
 Alpha  occ. eigenvalues --   -0.68316
 Alpha virt. eigenvalues --    0.02517   0.03145   0.07213   0.07213   0.12754
 Alpha virt. eigenvalues --    0.12754   0.13034   0.15769   0.15769   0.18771
 Alpha virt. eigenvalues --    0.20010   0.27947   0.47420   0.48405   0.52076
 Alpha virt. eigenvalues --    0.52137   0.52137   0.65754   0.65754   0.74368
 Alpha virt. eigenvalues --    0.74991   0.77481   0.77941   0.77941   0.89962
 Alpha virt. eigenvalues --    0.89962   0.91625   0.92823   0.98665   0.98665
 Alpha virt. eigenvalues --    0.99409   0.99597   1.11107   1.30274   1.30274
 Alpha virt. eigenvalues --    1.40993   1.62790   1.73818   1.78364   1.92201
 Alpha virt. eigenvalues --    1.92202   2.06129   2.06129   2.10560   2.12460
 Alpha virt. eigenvalues --    2.17224   2.17632   2.17632   2.41656   2.41656
 Alpha virt. eigenvalues --    2.49678   2.62306   2.62306   2.65190   2.71378
 Alpha virt. eigenvalues --    2.95252   4.29390   4.51315   4.51315   4.83903
  Beta  occ. eigenvalues --  -11.46431 -11.46373 -11.46373 -11.46309  -1.36333
  Beta  occ. eigenvalues --   -1.12190  -1.12190  -0.95547  -0.87312  -0.85656
  Beta  occ. eigenvalues --   -0.72845  -0.70514  -0.70514  -0.67130  -0.67130
  Beta virt. eigenvalues --   -0.40486   0.02969   0.04492   0.07727   0.07727
  Beta virt. eigenvalues --    0.13808   0.13808   0.13902   0.16418   0.16418
  Beta virt. eigenvalues --    0.20199   0.20459   0.29536   0.48496   0.50607
  Beta virt. eigenvalues --    0.53327   0.53358   0.53358   0.66193   0.66193
  Beta virt. eigenvalues --    0.75459   0.77027   0.77706   0.79633   0.79633
  Beta virt. eigenvalues --    0.92485   0.92485   0.93509   0.94614   0.99953
  Beta virt. eigenvalues --    1.00787   1.00787   1.01680   1.13312   1.30912
  Beta virt. eigenvalues --    1.30912   1.41522   1.63833   1.74784   1.78410
  Beta virt. eigenvalues --    1.93430   1.93430   2.07167   2.07167   2.11999
  Beta virt. eigenvalues --    2.14090   2.18075   2.18075   2.18873   2.42994
  Beta virt. eigenvalues --    2.42994   2.51272   2.62917   2.62917   2.65269
  Beta virt. eigenvalues --    2.72756   2.95341   4.29759   4.51644   4.51644
  Beta virt. eigenvalues --    4.84225
          Condensed to atoms (all electrons):
               1          2          3          4          5          6
     1  C    5.308016   0.322861  -0.192270   0.322863   0.343707   0.364769
     2  C    0.322861   5.308016   0.322862  -0.192270  -0.022814  -0.023492
     3  C   -0.192270   0.322862   5.308025   0.322863  -0.000727   0.008211
     4  C    0.322863  -0.192270   0.322863   5.308024  -0.022814  -0.023492
     5  H    0.343707  -0.022814  -0.000727  -0.022814   0.375227  -0.006631
     6  H    0.364769  -0.023492   0.008211  -0.023492  -0.006631   0.379448
     7  H   -0.022814   0.343706  -0.022814  -0.000727   0.001012  -0.000094
     8  H   -0.023492   0.364769  -0.023492   0.008211  -0.000094   0.000191
     9  H    0.008211  -0.023492   0.364765  -0.023492  -0.000010  -0.000246
    10  H   -0.000727  -0.022813   0.343702  -0.022813  -0.001336  -0.000010
    11  H   -0.022813  -0.000727  -0.022813   0.343702   0.001012  -0.000093
    12  H   -0.023492   0.008211  -0.023492   0.364765  -0.000093   0.000191
               7          8          9         10         11         12
     1  C   -0.022814  -0.023492   0.008211  -0.000727  -0.022813  -0.023492
     2  C    0.343706   0.364769  -0.023492  -0.022813  -0.000727   0.008211
     3  C   -0.022814  -0.023492   0.364765   0.343702  -0.022813  -0.023492
     4  C   -0.000727   0.008211  -0.023492  -0.022813   0.343702   0.364765
     5  H    0.001012  -0.000094  -0.000010  -0.001336   0.001012  -0.000093
     6  H   -0.000094   0.000191  -0.000246  -0.000010  -0.000093   0.000191
     7  H    0.375226  -0.006631  -0.000093   0.001012  -0.001336  -0.000010
     8  H   -0.006631   0.379448   0.000191  -0.000093  -0.000010  -0.000246
     9  H   -0.000093   0.000191   0.379444  -0.006631  -0.000093   0.000190
    10  H    0.001012  -0.000093  -0.006631   0.375223   0.001012  -0.000093
    11  H   -0.001336  -0.000010  -0.000093   0.001012   0.375223  -0.006631
    12  H   -0.000010  -0.000246   0.000190  -0.000093  -0.006631   0.379444
          Atomic-Atomic Spin Densities.
               1          2          3          4          5          6
     1  C    0.060041  -0.043107   0.029158  -0.043110   0.051755   0.026035
     2  C   -0.043107   0.060041  -0.043110   0.029158  -0.012521  -0.003687
     3  C    0.029158  -0.043110   0.060048  -0.043112   0.004620   0.000663
     4  C   -0.043110   0.029158  -0.043112   0.060048  -0.012521  -0.003688
     5  H    0.051755  -0.012521   0.004620  -0.012521   0.116826  -0.005963
     6  H    0.026035  -0.003687   0.000663  -0.003688  -0.005963   0.043653
     7  H   -0.012521   0.051756  -0.012522   0.004620   0.001150  -0.001869
     8  H   -0.003687   0.026034  -0.003687   0.000663  -0.001869   0.000384
     9  H    0.000663  -0.003688   0.026037  -0.003688  -0.000144   0.000046
    10  H    0.004620  -0.012522   0.051760  -0.012522   0.001792  -0.000144
    11  H   -0.012522   0.004620  -0.012522   0.051760   0.001150  -0.001869
    12  H   -0.003688   0.000663  -0.003688   0.026037  -0.001869   0.000384
               7          8          9         10         11         12
     1  C   -0.012521  -0.003687   0.000663   0.004620  -0.012522  -0.003688
     2  C    0.051756   0.026034  -0.003688  -0.012522   0.004620   0.000663
     3  C   -0.012522  -0.003687   0.026037   0.051760  -0.012522  -0.003688
     4  C    0.004620   0.000663  -0.003688  -0.012522   0.051760   0.026037
     5  H    0.001150  -0.001869  -0.000144   0.001792   0.001150  -0.001869
     6  H   -0.001869   0.000384   0.000046  -0.000144  -0.001869   0.000384
     7  H    0.116827  -0.005963  -0.001869   0.001150   0.001792  -0.000144
     8  H   -0.005963   0.043653   0.000384  -0.001869  -0.000144   0.000046
     9  H   -0.001869   0.000384   0.043659  -0.005964  -0.001870   0.000384
    10  H    0.001150  -0.001869  -0.005964   0.116834   0.001150  -0.001869
    11  H    0.001792  -0.000144  -0.001870   0.001150   0.116834  -0.005964
    12  H   -0.000144   0.000046   0.000384  -0.001869  -0.005964   0.043659
 Mulliken charges and spin densities:
               1          2
     1  C   -0.384817   0.053637
     2  C   -0.384817   0.053637
     3  C   -0.384819   0.053645
     4  C   -0.384819   0.053645
     5  H    0.333561   0.142406
     6  H    0.301250   0.053944
     7  H    0.333562   0.142407
     8  H    0.301250   0.053944
     9  H    0.301256   0.053951
    10  H    0.333569   0.142417
    11  H    0.333568   0.142416
    12  H    0.301256   0.053951
 Sum of Mulliken charges =   1.00000   1.00000
 Mulliken charges and spin densities with hydrogens summed into heavy atoms:
               1          2
     1  C    0.249995   0.249986
     2  C    0.249995   0.249987
     3  C    0.250005   0.250013
     4  C    0.250005   0.250013
 APT charges:
               1
     1  C   -3.504184
     2  C   -3.504214
     3  C   -3.504230
     4  C   -3.504227
     5  H    1.862553
     6  H    1.891525
     7  H    1.862578
     8  H    1.891517
     9  H    1.891697
    10  H    1.862646
    11  H    1.862634
    12  H    1.891704
 Sum of APT charges =   1.00000
 APT charges with hydrogens summed into heavy atoms:
               1
     1  C    0.249895
     2  C    0.249881
     3  C    0.250113
     4  C    0.250111
 Electronic spatial extent (au):  <R**2>=            248.8269
 Charge=              1.0000 electrons
 Dipole moment (field-independent basis, Debye):
    X=              0.0001    Y=              0.0000    Z=             -0.0000  Tot=              0.0001
 Quadrupole moment (field-independent basis, Debye-Ang):
   XX=            -18.5967   YY=            -18.5967   ZZ=            -19.2451
   XY=              0.0004   XZ=             -0.0177   YZ=              0.0163
 Traceless Quadrupole moment (field-independent basis, Debye-Ang):
   XX=              0.2161   YY=              0.2162   ZZ=             -0.4323
   XY=              0.0004   XZ=             -0.0177   YZ=              0.0163
 Octapole moment (field-independent basis, Debye-Ang**2):
  XXX=              0.0349  YYY=              0.0321  ZZZ=              0.0026  XYY=              0.0189
  XXY=             -0.0436  XXZ=              0.4212  XZZ=             -0.0532  YZZ=              0.0117
  YYZ=             -0.4238  XYZ=             -0.6020
 Hexadecapole moment (field-independent basis, Debye-Ang**3):
 XXXX=           -125.4241 YYYY=           -125.4161 ZZZZ=            -38.8166 XXXY=             -7.4715
 XXXZ=              1.3152 YYYX=              7.4042 YYYZ=             -1.5856 ZZZX=              0.8638
 ZZZY=             -0.7959 XXYY=            -38.2224 XXZZ=            -23.4818 YYZZ=            -23.5013
 XXYZ=             -0.1675 YYXZ=              0.5896 ZZXY=             -0.0023
 N-N= 1.275379166642D+02 E-N=-6.096373405379D+02  KE= 1.556440116516D+02
  Exact polarizability: 212.243   0.122 212.262  -4.828   4.443  35.514
 Approx polarizability:  49.899   0.010  49.901  -0.399   0.367  35.299
                          Isotropic Fermi Contact Couplings
        Atom                 a.u.       MegaHertz       Gauss      10(-4) cm-1
     1  C(13)             -0.03017     -33.92016     -12.10356     -11.31455
     2  C(13)             -0.03017     -33.92039     -12.10364     -11.31462
     3  C(13)             -0.03018     -33.92297     -12.10456     -11.31549
     4  C(13)             -0.03018     -33.92286     -12.10452     -11.31545
     5  H(1)               0.08555     382.41735     136.45602     127.56070
     6  H(1)               0.03645     162.90895      58.12996      54.34058
     7  H(1)               0.08555     382.41905     136.45662     127.56126
     8  H(1)               0.03645     162.90878      58.12990      54.34052
     9  H(1)               0.03645     162.93031      58.13758      54.34770
    10  H(1)               0.08556     382.44783     136.46689     127.57087
    11  H(1)               0.08556     382.44684     136.46654     127.57053
    12  H(1)               0.03645     162.93007      58.13750      54.34762
 --------------------------------------------------------
       Center         ----  Spin Dipole Couplings  ----
                      3XX-RR        3YY-RR        3ZZ-RR
 --------------------------------------------------------
     1   Atom       -0.098610     -0.106012      0.204622
     2   Atom       -0.106033     -0.099428      0.205461
     3   Atom       -0.099441     -0.104569      0.204010
     4   Atom       -0.104466     -0.098680      0.203146
     5   Atom       -0.018242     -0.012951      0.031194
     6   Atom       -0.006505      0.021863     -0.015359
     7   Atom       -0.013049     -0.019466      0.032515
     8   Atom        0.021894     -0.005751     -0.016142
     9   Atom       -0.005694      0.020429     -0.014735
    10   Atom       -0.019506     -0.010719      0.030225
    11   Atom       -0.010626     -0.018308      0.028933
    12   Atom        0.020336     -0.006498     -0.013839
 --------------------------------------------------------
                        XY            XZ            YZ
 --------------------------------------------------------
     1   Atom       -0.004442      0.015699      0.006797
     2   Atom        0.004795     -0.005872     -0.000248
     3   Atom       -0.004855      0.000654     -0.022121
     4   Atom        0.003660      0.023004     -0.015248
     5   Atom        0.005302      0.013037      0.020993
     6   Atom        0.019218     -0.007187     -0.013897
     7   Atom       -0.004176     -0.021137      0.010401
     8   Atom       -0.019952      0.012784     -0.006650
     9   Atom        0.019626      0.007676      0.014658
    10   Atom        0.004670     -0.010076     -0.023410
    11   Atom       -0.005923      0.023212     -0.012623
    12   Atom       -0.018831     -0.015735      0.008158
 --------------------------------------------------------


 ---------------------------------------------------------------------------------
              Anisotropic Spin Dipole Couplings in Principal Axis System
 ---------------------------------------------------------------------------------

       Atom             a.u.   MegaHertz   Gauss  10(-4) cm-1        Axes

              Baa    -0.1086   -14.578    -5.202    -4.863  0.4593  0.8873 -0.0423
     1 C(13)  Bbb    -0.0969   -13.008    -4.642    -4.339  0.8868 -0.4608 -0.0358
              Bcc     0.2056    27.586     9.843     9.202  0.0512  0.0211  0.9985
 
              Baa    -0.1086   -14.578    -5.202    -4.863  0.8870 -0.4615  0.0162
     2 C(13)  Bbb    -0.0969   -13.008    -4.642    -4.339  0.4614  0.8871  0.0097
              Bcc     0.2056    27.586     9.843     9.202 -0.0189 -0.0011  0.9998
 
              Baa    -0.1086   -14.579    -5.202    -4.863  0.4622  0.8846  0.0616
     3 C(13)  Bbb    -0.0969   -13.009    -4.642    -4.339  0.8868 -0.4608 -0.0358
              Bcc     0.2056    27.588     9.844     9.202  0.0033 -0.0712  0.9975
 
              Baa    -0.1086   -14.579    -5.202    -4.863  0.8842 -0.4589 -0.0877
     4 C(13)  Bbb    -0.0969   -13.009    -4.642    -4.339  0.4614  0.8871  0.0097
              Bcc     0.2056    27.588     9.844     9.202  0.0733 -0.0490  0.9961
 
              Baa    -0.0215   -11.484    -4.098    -3.831  0.8867 -0.4609 -0.0357
     5 H(1)   Bbb    -0.0213   -11.366    -4.056    -3.791  0.4041  0.8103 -0.4244
              Bcc     0.0428    22.850     8.153     7.622  0.2246  0.3619  0.9048
 
              Baa    -0.0201   -10.725    -3.827    -3.578  0.1641  0.2416  0.9564
     6 H(1)   Bbb    -0.0162    -8.644    -3.084    -2.883  0.8868 -0.4608 -0.0358
              Bcc     0.0363    19.369     6.911     6.461  0.4321  0.8540 -0.2898
 
              Baa    -0.0215   -11.484    -4.098    -3.831  0.4612  0.8872  0.0096
     7 H(1)   Bbb    -0.0213   -11.366    -4.056    -3.791  0.8111 -0.4260  0.4009
              Bcc     0.0428    22.850     8.153     7.622 -0.3598  0.1771  0.9161
 
              Baa    -0.0201   -10.726    -3.827    -3.578 -0.2394  0.1140  0.9642
     8 H(1)   Bbb    -0.0162    -8.644    -3.084    -2.883  0.4614  0.8871  0.0097
              Bcc     0.0363    19.369     6.911     6.461  0.8543 -0.4472  0.2649
 
              Baa    -0.0201   -10.726    -3.827    -3.578 -0.1121 -0.2895  0.9506
     9 H(1)   Bbb    -0.0162    -8.645    -3.085    -2.884  0.8868 -0.4608 -0.0358
              Bcc     0.0363    19.371     6.912     6.462  0.4484  0.8390  0.3084
 
              Baa    -0.0215   -11.485    -4.098    -3.831  0.8869 -0.4605 -0.0356
    10 H(1)   Bbb    -0.0213   -11.367    -4.056    -3.792  0.4273  0.7888  0.4419
              Bcc     0.0428    22.852     8.154     7.623 -0.1754 -0.4072  0.8964
 
              Baa    -0.0215   -11.485    -4.098    -3.831  0.4617  0.8870  0.0095
    11 H(1)   Bbb    -0.0213   -11.367    -4.056    -3.792  0.7871 -0.4047 -0.4654
              Bcc     0.0428    22.852     8.154     7.623  0.4089 -0.2224  0.8851
 
              Baa    -0.0201   -10.726    -3.827    -3.578  0.2915 -0.1619  0.9428
    12 H(1)   Bbb    -0.0162    -8.645    -3.085    -2.884  0.4614  0.8871  0.0097
              Bcc     0.0363    19.371     6.912     6.461  0.8380 -0.4322 -0.3333
 

 ---------------------------------------------------------------------------------

 Calling FoFJK, ICntrl=    100127 FMM=F ISym2X=0 I1Cent= 0 IOpClX= 1 NMat=1 NMatS=1 NMatT=0.
 Full mass-weighted force constant matrix:
 Low frequencies ----4133.1034-3872.7711-3872.7377 -365.4009 -117.0460 -117.0421
 Low frequencies ---    0.0003    0.0003    0.0006
 ******    4 imaginary frequencies (negative Signs) ****** 
 Diagonal vibrational polarizability:
      282.2296523     282.2612387       4.9054663
 Diagonal vibrational hyperpolarizability:
      392.3835867     400.8457660      32.1145450
 Harmonic frequencies (cm**-1), IR intensities (KM/Mole), Raman scattering
 activities (A**4/AMU), depolarization ratios for plane and unpolarized
 incident light, reduced masses (AMU), force constants (mDyne/A),
 and normal coordinates:
                      1                      2                      3
                      A                      A                      A
 Frequencies --  -4133.1034             -3872.7662             -3872.7327
 Red. masses --      1.0933                 1.4196                 1.4196
 Frc consts  --     11.0039                12.5443                12.5441
 IR Inten    --      0.0423            139571.2868            139568.5732
 Raman Activ --2835760.4024            459236.5868            459230.1442
 Depolar (P) --      0.7500                 0.7500                 0.7500
 Depolar (U) --      0.8571                 0.8571                 0.8571
  Atom  AN      X      Y      Z        X      Y      Z        X      Y      Z
     1   6    -0.04   0.02   0.00     0.02   0.08   0.04     0.06   0.07   0.05
     2   6    -0.02  -0.04  -0.00     0.07  -0.06  -0.05    -0.08   0.02   0.04
     3   6     0.04  -0.02  -0.00     0.02   0.08  -0.04     0.06   0.07  -0.05
     4   6     0.02   0.04   0.00     0.07  -0.06   0.04    -0.08   0.02  -0.04
     5   1     0.36  -0.19  -0.01    -0.23  -0.19  -0.18    -0.05  -0.30  -0.21
     6   1    -0.26   0.14   0.01    -0.21  -0.21  -0.11    -0.08  -0.31  -0.13
     7   1     0.19   0.36   0.00    -0.30   0.04   0.21     0.19  -0.22  -0.20
     8   1    -0.14  -0.26  -0.00    -0.31   0.07   0.13     0.21  -0.20  -0.12
     9   1     0.26  -0.14  -0.01    -0.20  -0.22   0.11    -0.07  -0.32   0.12
    10   1    -0.36   0.19   0.01    -0.22  -0.20   0.19    -0.04  -0.31   0.20
    11   1    -0.19  -0.36  -0.00    -0.32   0.05  -0.19     0.20  -0.23   0.17
    12   1     0.14   0.26   0.00    -0.32   0.08  -0.11     0.22  -0.21   0.10
                      4                      5                      6
                      A                      A                      A
 Frequencies --   -365.4009               400.8228               539.5340
 Red. masses --      1.1119                 1.0505                 1.1010
 Frc consts  --      0.0875                 0.0994                 0.1888
 IR Inten    --      0.0000                13.6106                23.7894
 Raman Activ --  89905.4148            183042.1673                57.5324
 Depolar (P) --      0.1264                 0.7500                 0.7500
 Depolar (U) --      0.2245                 0.8571                 0.8571
  Atom  AN      X      Y      Z        X      Y      Z        X      Y      Z
     1   6     0.00   0.00   0.05    -0.01  -0.01  -0.03     0.01  -0.01  -0.05
     2   6     0.00  -0.00  -0.05     0.01  -0.01  -0.03     0.02   0.03   0.03
     3   6    -0.00  -0.00   0.05     0.01   0.01  -0.03     0.02  -0.01   0.05
     4   6    -0.00   0.00  -0.05    -0.01   0.01  -0.03     0.01   0.03  -0.03
     5   1    -0.16  -0.32   0.17    -0.19  -0.37   0.11    -0.34  -0.24   0.09
     6   1     0.07   0.12   0.27     0.07   0.12   0.22     0.17   0.12   0.22
     7   1    -0.32   0.17  -0.16     0.37  -0.19   0.10    -0.34  -0.22  -0.04
     8   1     0.12  -0.06  -0.28    -0.12   0.06   0.23     0.16   0.11  -0.12
     9   1    -0.06  -0.13   0.27    -0.06  -0.13   0.22     0.16   0.13  -0.22
    10   1     0.17   0.31   0.18     0.19   0.36   0.12    -0.34  -0.24  -0.08
    11   1     0.31  -0.16  -0.19    -0.36   0.19   0.13    -0.34  -0.23   0.05
    12   1    -0.13   0.07  -0.27     0.13  -0.07   0.22     0.17   0.10   0.12
                      7                      8                      9
                      A                      A                      A
 Frequencies --    539.5365               783.8817               915.0360
 Red. masses --      1.1010                 1.0323                 5.7288
 Frc consts  --      0.1888                 0.3737                 2.8261
 IR Inten    --     23.7925                 0.0000                 0.1776
 Raman Activ --     57.5270                 0.0000             41619.4044
 Depolar (P) --      0.7500                 0.7468                 0.7500
 Depolar (U) --      0.8571                 0.8551                 0.8571
  Atom  AN      X      Y      Z        X      Y      Z        X      Y      Z
     1   6    -0.03   0.02  -0.02     0.02  -0.01  -0.00     0.15   0.29  -0.01
     2   6     0.01   0.02  -0.05    -0.01  -0.02  -0.00    -0.29   0.15  -0.00
     3   6    -0.03   0.01   0.03    -0.02   0.01   0.00    -0.15  -0.29  -0.01
     4   6     0.01   0.01   0.05     0.01   0.02   0.00     0.29  -0.15  -0.02
     5   1     0.23  -0.34   0.03    -0.41   0.21   0.02     0.03   0.04   0.10
     6   1    -0.10   0.16   0.13     0.16  -0.08  -0.01     0.17   0.32   0.05
     7   1     0.24  -0.34   0.07     0.21   0.41   0.00    -0.04   0.02   0.10
     8   1    -0.11   0.16   0.23    -0.08  -0.16  -0.00    -0.32   0.16   0.06
     9   1    -0.11   0.17  -0.11    -0.16   0.08   0.01    -0.16  -0.32   0.04
    10   1     0.22  -0.34  -0.06     0.41  -0.21  -0.02    -0.02  -0.05   0.10
    11   1     0.24  -0.34  -0.10    -0.21  -0.41  -0.00     0.05  -0.03   0.09
    12   1    -0.13   0.17  -0.21     0.08   0.16   0.00     0.32  -0.17   0.03
                     10                     11                     12
                      A                      A                      A
 Frequencies --    952.3542               991.7999              1007.4010
 Red. masses --      1.5044                 3.9267                 1.3418
 Frc consts  --      0.8039                 2.2758                 0.8023
 IR Inten    --      0.0000                 0.0000               127.6085
 Raman Activ -- 216934.6302            607284.4238              1456.6044
 Depolar (P) --      0.7500                 0.1252                 0.7500
 Depolar (U) --      0.8571                 0.2225                 0.8571
  Atom  AN      X      Y      Z        X      Y      Z        X      Y      Z
     1   6     0.09  -0.05  -0.00    -0.05  -0.11   0.23    -0.08  -0.03  -0.01
     2   6     0.05   0.09   0.00    -0.11   0.06  -0.22     0.09   0.02  -0.01
     3   6    -0.09   0.05   0.00     0.06   0.10   0.23    -0.08  -0.03   0.01
     4   6    -0.05  -0.09  -0.00     0.10  -0.05  -0.23     0.09   0.02   0.01
     5   1     0.33  -0.17  -0.01     0.18   0.33   0.05    -0.29  -0.06   0.01
     6   1     0.28  -0.15  -0.01    -0.08  -0.16   0.08    -0.37  -0.02  -0.14
     7   1     0.17   0.33   0.00     0.33  -0.17  -0.06     0.27   0.10  -0.00
     8   1     0.15   0.28   0.00    -0.16   0.08  -0.08     0.31   0.18  -0.16
     9   1    -0.28   0.15   0.01     0.08   0.15   0.09    -0.36  -0.03   0.16
    10   1    -0.33   0.17   0.01    -0.17  -0.34   0.04    -0.29  -0.06   0.00
    11   1    -0.17  -0.33  -0.00    -0.34   0.18  -0.03     0.27   0.10  -0.01
    12   1    -0.15  -0.28  -0.00     0.15  -0.08  -0.09     0.32   0.17   0.15
                     13                     14                     15
                      A                      A                      A
 Frequencies --   1007.4021              1053.4017              1181.1714
 Red. masses --      1.3418                 3.4183                 1.0630
 Frc consts  --      0.8023                 2.2348                 0.8738
 IR Inten    --    127.6016                 0.0000                64.4515
 Raman Activ --   1456.5613            234946.1529           3174077.2341
 Depolar (P) --      0.7500                 0.1239                 0.7500
 Depolar (U) --      0.8571                 0.2205                 0.8571
  Atom  AN      X      Y      Z        X      Y      Z        X      Y      Z
     1   6     0.02  -0.09  -0.01     0.10   0.19   0.08    -0.01  -0.03  -0.02
     2   6    -0.03   0.08   0.01     0.19  -0.10  -0.09     0.03  -0.01  -0.02
     3   6     0.02  -0.09   0.01    -0.10  -0.20   0.08     0.01   0.03  -0.02
     4   6    -0.03   0.08  -0.00    -0.20   0.10  -0.07    -0.03   0.01  -0.02
     5   1     0.10  -0.27  -0.01     0.16   0.31   0.05     0.12   0.24  -0.08
     6   1     0.17  -0.31  -0.17     0.12   0.22   0.09     0.12   0.21   0.33
     7   1    -0.06   0.29   0.01     0.31  -0.16  -0.06    -0.24   0.13  -0.07
     8   1    -0.02   0.36   0.16     0.22  -0.11  -0.10    -0.21   0.11   0.34
     9   1     0.18  -0.32   0.14    -0.11  -0.22   0.09    -0.11  -0.23   0.32
    10   1     0.10  -0.27  -0.01    -0.16  -0.31   0.04    -0.13  -0.23  -0.09
    11   1    -0.06   0.29   0.01    -0.31   0.16  -0.03     0.23  -0.12  -0.09
    12   1    -0.03   0.37  -0.14    -0.22   0.12  -0.08     0.23  -0.12   0.32
                     16                     17                     18
                      A                      A                      A
 Frequencies --   1187.0285              1240.7551              1312.8504
 Red. masses --      2.0474                 1.3379                 1.8307
 Frc consts  --      1.6997                 1.2135                 1.8591
 IR Inten    --      0.0000                 0.0000                 8.7076
 Raman Activ --   4442.7239                 0.0003                31.7413
 Depolar (P) --      0.7500                 0.7500                 0.7500
 Depolar (U) --      0.8571                 0.8571                 0.8571
  Atom  AN      X      Y      Z        X      Y      Z        X      Y      Z
     1   6     0.14  -0.07  -0.01    -0.08   0.04   0.00    -0.14   0.00  -0.01
     2   6     0.07   0.14   0.00     0.04   0.08   0.00     0.11   0.08  -0.02
     3   6    -0.14   0.07   0.01     0.08  -0.04  -0.00    -0.14   0.00   0.02
     4   6    -0.07  -0.14  -0.00    -0.04  -0.08  -0.00     0.11   0.08   0.02
     5   1    -0.12   0.06   0.00     0.12  -0.06  -0.00     0.09  -0.08  -0.03
     6   1    -0.41   0.21   0.02     0.42  -0.22  -0.02     0.36  -0.30  -0.07
     7   1    -0.06  -0.12  -0.00    -0.06  -0.12  -0.00    -0.02  -0.11  -0.03
     8   1    -0.21  -0.41  -0.00    -0.22  -0.42  -0.00    -0.12  -0.44  -0.06
     9   1     0.41  -0.21  -0.02    -0.42   0.22   0.02     0.37  -0.30   0.03
    10   1     0.12  -0.06  -0.00    -0.12   0.06   0.00     0.09  -0.09   0.02
    11   1     0.06   0.12   0.00     0.06   0.12   0.00    -0.02  -0.12   0.02
    12   1     0.21   0.41   0.00     0.22   0.42   0.00    -0.12  -0.44   0.05
                     19                     20                     21
                      A                      A                      A
 Frequencies --   1312.8520              1446.1156              1820.2180
 Red. masses --      1.8307                 1.1859                 1.1943
 Frc consts  --      1.8591                 1.4612                 2.3313
 IR Inten    --      8.7090                 0.0000               283.7260
 Raman Activ --     31.7439               110.5167             11250.8237
 Depolar (P) --      0.7500                 0.3307                 0.7500
 Depolar (U) --      0.8571                 0.4970                 0.8571
  Atom  AN      X      Y      Z        X      Y      Z        X      Y      Z
     1   6     0.08  -0.11  -0.02    -0.02  -0.04  -0.05     0.01   0.02  -0.08
     2   6     0.00   0.14   0.02    -0.04   0.02   0.05    -0.02  -0.03  -0.01
     3   6     0.08  -0.11   0.01     0.02   0.04  -0.05     0.02   0.01   0.08
     4   6     0.00   0.14  -0.01     0.04  -0.02   0.04    -0.02  -0.03   0.01
     5   1    -0.12   0.02  -0.02     0.09   0.19  -0.14    -0.23  -0.25  -0.15
     6   1    -0.44   0.12  -0.04     0.12   0.20   0.35     0.15   0.19   0.08
     7   1    -0.08  -0.09   0.03     0.19  -0.10   0.13     0.27   0.39  -0.02
     8   1    -0.30  -0.37   0.05     0.20  -0.10  -0.36    -0.15  -0.20   0.01
     9   1    -0.44   0.12   0.07    -0.10  -0.22   0.35     0.15   0.19  -0.08
    10   1    -0.11   0.02   0.03    -0.10  -0.19  -0.14    -0.23  -0.26   0.15
    11   1    -0.09  -0.09  -0.03    -0.18   0.09   0.15     0.27   0.39   0.03
    12   1    -0.30  -0.36  -0.05    -0.22   0.12  -0.34    -0.15  -0.20  -0.02
                     22                     23                     24
                      A                      A                      A
 Frequencies --   1820.2206              2432.6551              2432.6593
 Red. masses --      1.1943                 1.0352                 1.0352
 Frc consts  --      2.3313                 3.6095                 3.6095
 IR Inten    --    283.7453              5273.8588              5273.8208
 Raman Activ --  11251.0468             16997.4144             16996.9534
 Depolar (P) --      0.7500                 0.7500                 0.7500
 Depolar (U) --      0.8571                 0.8571                 0.8571
  Atom  AN      X      Y      Z        X      Y      Z        X      Y      Z
     1   6    -0.03   0.02  -0.01     0.02   0.02  -0.00     0.01  -0.02  -0.00
     2   6     0.02  -0.02   0.08    -0.02  -0.01  -0.00    -0.02   0.02   0.00
     3   6    -0.03   0.02   0.02     0.02   0.02   0.00     0.01  -0.02  -0.00
     4   6     0.01  -0.01  -0.08    -0.02  -0.01   0.00    -0.02   0.02   0.00
     5   1     0.39  -0.27  -0.04    -0.03  -0.11   0.39     0.04   0.08  -0.31
     6   1    -0.20   0.15   0.02     0.09   0.07  -0.36     0.04  -0.12   0.28
     7   1    -0.25   0.23   0.16     0.08  -0.06   0.30     0.11  -0.05   0.39
     8   1     0.19  -0.15  -0.09    -0.12  -0.02  -0.28    -0.07   0.11  -0.35
     9   1    -0.20   0.15  -0.01     0.11   0.06   0.35     0.02  -0.10  -0.28
    10   1     0.39  -0.27   0.01    -0.05  -0.09  -0.39     0.06   0.06   0.31
    11   1    -0.26   0.23  -0.14     0.06  -0.04  -0.31     0.09  -0.03  -0.39
    12   1     0.19  -0.15   0.07    -0.10  -0.04   0.28    -0.06   0.09   0.36
                     25                     26                     27
                      A                      A                      A
 Frequencies --   3101.0101              3204.1516              3207.0169
 Red. masses --      1.0729                 1.0914                 1.0843
 Frc consts  --      6.0787                 6.6018                 6.5704
 IR Inten    --    306.2153                 0.0000                52.6763
 Raman Activ --2934998.9400            624178.7605           1073215.1574
 Depolar (P) --      0.7500                 0.1280                 0.7500
 Depolar (U) --      0.8571                 0.2269                 0.8571
  Atom  AN      X      Y      Z        X      Y      Z        X      Y      Z
     1   6     0.01   0.01   0.03    -0.01  -0.02   0.04    -0.01  -0.03   0.03
     2   6    -0.01   0.01   0.03    -0.02   0.01  -0.04     0.03  -0.01   0.03
     3   6    -0.01  -0.02   0.03     0.01   0.02   0.04     0.01   0.03   0.03
     4   6     0.02  -0.01   0.03     0.02  -0.01  -0.04    -0.03   0.01   0.03
     5   1    -0.08  -0.11  -0.47    -0.06  -0.09  -0.25    -0.02  -0.04  -0.04
     6   1    -0.01  -0.03   0.06     0.15   0.31  -0.23     0.18   0.36  -0.29
     7   1     0.11  -0.05  -0.48    -0.09   0.05   0.25     0.04  -0.02  -0.05
     8   1     0.03  -0.02   0.06     0.31  -0.16   0.23    -0.36   0.19  -0.28
     9   1     0.02   0.03   0.06    -0.16  -0.30  -0.24    -0.19  -0.35  -0.30
    10   1     0.05   0.14  -0.47     0.04   0.11  -0.25     0.02   0.04  -0.04
    11   1    -0.14   0.08  -0.47     0.11  -0.06   0.24    -0.04   0.02  -0.04
    12   1    -0.03   0.01   0.06    -0.30   0.15   0.25     0.35  -0.18  -0.31
                     28                     29                     30
                      A                      A                      A
 Frequencies --   3292.3233              3527.7242              3527.7261
 Red. masses --      1.0758                 1.1824                 1.1824
 Frc consts  --      6.8703                 8.6695                 8.6695
 IR Inten    --      0.0000                 0.0290                 0.0289
 Raman Activ --  66423.2830              1030.8582              1030.8175
 Depolar (P) --      0.1483                 0.7500                 0.7500
 Depolar (U) --      0.2583                 0.8571                 0.8571
  Atom  AN      X      Y      Z        X      Y      Z        X      Y      Z
     1   6    -0.02  -0.03  -0.02     0.02   0.04  -0.08    -0.01   0.00   0.00
     2   6    -0.03   0.01   0.02    -0.00  -0.01   0.00     0.04  -0.02   0.08
     3   6     0.01   0.03  -0.02     0.02   0.03   0.08    -0.01   0.00  -0.00
     4   6     0.03  -0.02   0.02    -0.00  -0.01  -0.00     0.03  -0.02  -0.08
     5   1     0.07   0.10   0.40     0.04   0.03   0.40     0.09  -0.05  -0.02
     6   1     0.10   0.21  -0.15    -0.20  -0.41   0.33    -0.04   0.05  -0.01
     7   1     0.10  -0.05  -0.40     0.05   0.09  -0.02     0.03  -0.02  -0.40
     8   1     0.21  -0.11   0.15    -0.05  -0.04  -0.02    -0.41   0.22  -0.32
     9   1    -0.11  -0.20  -0.16    -0.22  -0.39  -0.34    -0.04   0.05   0.02
    10   1    -0.05  -0.12   0.39     0.02   0.05  -0.40     0.09  -0.05   0.02
    11   1    -0.12   0.07  -0.39     0.05   0.09   0.02     0.05  -0.04   0.40
    12   1    -0.20   0.10   0.16    -0.05  -0.04   0.02    -0.39   0.20   0.35

 -------------------
 - Thermochemistry -
 -------------------
 Temperature   298.150 Kelvin.  Pressure   1.00000 Atm.
 Atom     1 has atomic number  6 and mass  12.00000
 Atom     2 has atomic number  6 and mass  12.00000
 Atom     3 has atomic number  6 and mass  12.00000
 Atom     4 has atomic number  6 and mass  12.00000
 Atom     5 has atomic number  1 and mass   1.00783
 Atom     6 has atomic number  1 and mass   1.00783
 Atom     7 has atomic number  1 and mass   1.00783
 Atom     8 has atomic number  1 and mass   1.00783
 Atom     9 has atomic number  1 and mass   1.00783
 Atom    10 has atomic number  1 and mass   1.00783
 Atom    11 has atomic number  1 and mass   1.00783
 Atom    12 has atomic number  1 and mass   1.00783
 Molecular mass:    56.06260 amu.
 Principal axes and moments of inertia in atomic units:
                           1         2         3
     Eigenvalues --   167.23845 167.23865 282.94406
           X            0.99820   0.05338   0.02728
           Y           -0.05270   0.99829  -0.02512
           Z           -0.02858   0.02364   0.99931
 This molecule is an asymmetric top.
 Rotational symmetry number  1.
 Rotational temperatures (Kelvin)      0.51791     0.51791     0.30612
 Rotational constants (GHZ):          10.79143    10.79141     6.37844
    4 imaginary frequencies ignored.
 Zero-point vibrational energy     264599.9 (Joules/Mol)
                                   63.24089 (Kcal/Mol)
 Warning -- explicit consideration of   3 degrees of freedom as
           vibrations may cause significant error
 Vibrational temperatures:    576.69   776.27   776.27  1127.83  1316.53
          (Kelvin)           1370.22  1426.98  1449.42  1449.43  1515.61
                             1699.44  1707.87  1785.17  1888.90  1888.90
                             2080.64  2618.88  2618.89  3500.04  3500.05
                             4461.66  4610.05  4614.18  4736.91  5075.60
                             5075.60
 
 Zero-point correction=                           0.100781 (Hartree/Particle)
 Thermal correction to Energy=                    0.104713
 Thermal correction to Enthalpy=                  0.105657
 Thermal correction to Gibbs Free Energy=         0.074268
 Sum of electronic and zero-point Energies=           -155.568901
 Sum of electronic and thermal Energies=              -155.564969
 Sum of electronic and thermal Enthalpies=            -155.564025
 Sum of electronic and thermal Free Energies=         -155.595414
 
                     E (Thermal)             CV                S
                      KCal/Mol        Cal/Mol-Kelvin    Cal/Mol-Kelvin
 Total                   65.708             13.829             66.064
 Electronic               0.000              0.000              1.377
 Translational            0.889              2.981             37.993
 Rotational               0.889              2.981             23.585
 Vibrational             63.931              7.867              3.108
 Vibration     1          0.767              1.468              0.960
 Vibration     2          0.895              1.163              0.566
 Vibration     3          0.895              1.163              0.566
                       Q            Log10(Q)             Ln(Q)
 Total Bot       0.690384D-34        -34.160909        -78.658401
 Total V=0       0.156650D+13         12.194931         28.079867
 Vib (Bot)       0.656995D-46        -46.182438       -106.338992
 Vib (Bot)    1  0.444408D+00         -0.352218         -0.811011
 Vib (Bot)    2  0.293781D+00         -0.531976         -1.224921
 Vib (Bot)    3  0.293779D+00         -0.531979         -1.224928
 Vib (V=0)       0.149074D+01          0.173403          0.399275
 Vib (V=0)    1  0.116895D+01          0.067797          0.156109
 Vib (V=0)    2  0.107992D+01          0.033392          0.076887
 Vib (V=0)    3  0.107992D+01          0.033391          0.076886
 Electronic      0.200000D+01          0.301030          0.693147
 Translational   0.164993D+08          7.217465         16.618827
 Rotational      0.318444D+05          4.503033         10.368617
 ***** Axes restored to original set *****
 -------------------------------------------------------------------
 Center     Atomic                   Forces (Hartrees/Bohr)
 Number     Number              X              Y              Z
 -------------------------------------------------------------------
      1        6          -0.004589965   -0.051603812   -0.061549918
      2        6           0.053321621   -0.001860549    0.060215569
      3        6           0.000094912    0.050609825   -0.062545361
      4        6          -0.048830193    0.002859183    0.063879875
      5        1           0.001211625    0.011288917    0.019249619
      6        1           0.000863929    0.014603257    0.005268981
      7        1          -0.011827564    0.000358006   -0.018958917
      8        1          -0.014746894    0.000628196   -0.004888775
      9        1          -0.000471521   -0.014517996    0.005552051
     10        1           0.000191149   -0.010978931    0.019467670
     11        1           0.010426619   -0.000670301   -0.019758405
     12        1           0.014356283   -0.000715796   -0.005932389
 -------------------------------------------------------------------
 Cartesian Forces:  Max     0.063879875 RMS     0.028312084

 GradGradGradGradGradGradGradGradGradGradGradGradGradGradGradGradGradGrad
 Berny optimization.
 Search for a local minimum.
 Step number   1 out of a maximum of    2
 All quantities printed in internal units (Hartrees-Bohrs-Radians)
 Second derivative matrix not updated -- analytic derivatives used.
 ITU=  0
     Eigenvalues ---   -2.18359  -2.18355  -1.08243  -0.00568   0.00709
     Eigenvalues ---    0.01390   0.01390   0.02469   0.03994   0.04706
     Eigenvalues ---    0.04706   0.05605   0.06615   0.16930   0.16930
     Eigenvalues ---    0.17236   0.18873   0.21164   0.21164   0.21625
     Eigenvalues ---    0.23235   0.33357   0.37751   0.37751   0.61464
     Eigenvalues ---    0.81958   0.94189   1.04470   1.37711   1.37712
 Eigenvalue     1 is  -2.18D+00 should be greater than     0.000000 Eigenvector:
                          X2        X4        Y1        Y3        Z4
   1                    0.35413   0.34071  -0.31711  -0.31429  -0.19870
                          X8        Z3        X12       Y6        Y9
   1                   -0.18799   0.18258  -0.18214   0.18093   0.17970
 Eigenvalue     2 is  -2.18D+00 should be greater than     0.000000 Eigenvector:
                          Y1        Y3        X2        X4        Z1
   1                    0.34914   0.34619   0.32185   0.30924   0.18653
                          Y6        Z4        Y9        Z3        X8
   1                   -0.18580  -0.18477  -0.18452  -0.18392  -0.18293
 Eigenvalue     3 is  -1.08D+00 should be greater than     0.000000 Eigenvector:
                          Y11       Y7        X10       X5        Y2
   1                    0.32185  -0.32182  -0.32165   0.32163   0.29425
                          Y4        X1        X3        Y8        Y12
   1                   -0.29421  -0.29407   0.29404   0.24353  -0.24352
 Eigenvalue     4 is  -5.68D-03 should be greater than     0.000000 Eigenvector:
                          X11       Y10       Y5        X7        Z12
   1                    0.35283  -0.34796   0.34504  -0.33974   0.27879
                          Z9        Z6        Z8        Z7        Z5
   1                   -0.27519  -0.27250   0.26890   0.19279  -0.18373
 Quadratic step=4.274D-01 exceeds max=3.000D-01 adjusted using Lamda=-1.059D-02.
 Angle between NR and scaled steps=  24.51 degrees.
 Angle between quadratic step and forces=  48.03 degrees.
 Linear search not attempted -- first point.
 TrRot= -0.000001  0.000001  0.000000 -0.000000  0.000000 -0.000000
 Variable       Old X    -DE/DX   Delta X   Delta X   Delta X     New X
                                 (Linear)    (Quad)   (Total)
    X1        3.45019  -0.00459   0.00000  -0.00546  -0.00546   3.44473
    Y1        5.34440  -0.05160   0.00000  -0.05210  -0.05210   5.29230
    Z1        1.99249  -0.06155   0.00000  -0.08519  -0.08519   1.90730
    X2        1.30519   0.05332   0.00000   0.05449   0.05449   1.35967
    Y2        3.39867  -0.00186   0.00000  -0.00168  -0.00168   3.39699
    Z2        1.61731   0.06022   0.00000   0.08385   0.08385   1.70116
    X3        3.26351   0.00009   0.00000  -0.00075  -0.00075   3.26276
    Y3        1.27250   0.05061   0.00000   0.05073   0.05073   1.32323
    Z3        2.03204  -0.06255   0.00000  -0.08619  -0.08619   1.94585
    X4        5.37461  -0.04883   0.00000  -0.04828  -0.04828   5.32632
    Y4        3.21069   0.00286   0.00000   0.00306   0.00306   3.21375
    Z4        1.47141   0.06388   0.00000   0.08753   0.08753   1.55893
    X5        3.54992   0.00121   0.00000   0.00119   0.00119   3.55111
    Y5        5.99678   0.01129   0.00000   0.07284   0.07285   6.06962
    Z5        3.93366   0.01925   0.00000  -0.06082  -0.06082   3.87284
    X6        3.48131   0.00086   0.00000   0.00340   0.00340   3.48471
    Y6        6.97762   0.01460   0.00000   0.05243   0.05243   7.03005
    Z6        0.75616   0.00527   0.00000   0.02727   0.02727   0.78343
    X7        0.59833  -0.01183   0.00000  -0.07110  -0.07111   0.52723
    Y7        3.41239   0.00036   0.00000   0.00387   0.00387   3.41626
    Z7       -0.30723  -0.01896   0.00000   0.06274   0.06274  -0.24449
    X8       -0.29265  -0.01475   0.00000  -0.05318  -0.05318  -0.34583
    Y8        3.48435   0.00063   0.00000   0.00218   0.00218   3.48653
    Z8        2.89657  -0.00489   0.00000  -0.02591  -0.02591   2.87066
    X9        3.14398  -0.00047   0.00000  -0.00139  -0.00139   3.14259
    Y9       -0.38038  -0.01452   0.00000  -0.05198  -0.05198  -0.43237
    Z9        0.82762   0.00555   0.00000   0.02829   0.02829   0.85591
   X10        3.30487   0.00019   0.00000  -0.00554  -0.00554   3.29933
   Y10        0.65148  -0.01098   0.00000  -0.07382  -0.07382   0.57766
   Z10        3.98558   0.01947   0.00000  -0.05940  -0.05940   3.92618
   X11        5.94036   0.01043   0.00000   0.07548   0.07547   6.01584
   Y11        3.16562  -0.00067   0.00000  -0.00290  -0.00290   3.16271
   Z11       -0.49877  -0.01976   0.00000   0.05748   0.05748  -0.44128
   X12        7.06088   0.01436   0.00000   0.05116   0.05116   7.11204
   Y12        3.14466  -0.00072   0.00000  -0.00263  -0.00263   3.14203
   Z12        2.63289  -0.00593   0.00000  -0.02965  -0.02965   2.60324
         Item               Value     Threshold  Converged?
 Maximum Force            0.063880     0.000450     NO 
 RMS     Force            0.028312     0.000300     NO 
 Maximum Displacement     0.087527     0.001800     NO 
 RMS     Displacement     0.050016     0.001200     NO 
 Predicted change in Energy=-1.758532D-02
 GradGradGradGradGradGradGradGradGradGradGradGradGradGradGradGradGradGrad

 1\1\GINC-GTX1080DELTA\Freq\UHF\6-31G(d)\C4H8(1+,2)\MVEROT\16-Apr-2022\
 0\\# hf/6-31G* freq\\Optimisation de geometrie\\1,2\C,1.825761211,2.82
 81332541,1.0543793239\C,0.6906761186,1.7984987854,0.8558461423\C,1.726
 9766585,0.6733775111,1.0753069069\C,2.8441191179,1.6990237006,0.778635
 1658\H,1.8785371452,3.1733574011,2.0816035515\H,1.8422275635,3.6923991
 993,0.4001400886\H,0.3166230355,1.8057582072,-0.1625772199\H,-0.154863
 3493,1.8438370249,1.532797543\H,1.6637216908,-0.2012903598,0.437960171
 5\H,1.7488620185,0.3447498345,2.1090766804\H,3.1435043095,1.6751717281
 ,-0.2639361863\H,3.7364544803,1.6640837135,1.3932678323\\Version=AM64L
 -G09RevD.01\State=2-A\HF=-155.6696821\S2=0.762062\S2-1=0.\S2A=0.75013\
 RMSD=5.228e-09\RMSF=2.831e-02\ZeroPoint=0.1007808\Thermal=0.1047129\Di
 pole=0.0000373,-0.0000415,-0.0000014\DipoleDeriv=2.626094,-0.9658748,-
 0.0992572,-0.7240896,-13.0234371,0.0170316,-0.4102022,-6.7205937,-0.11
 52075,-13.203904,0.7317987,0.3532257,0.6660683,2.6432231,-0.0417339,-6
 .3884551,0.26763,0.0480396,2.6496454,-0.4701189,-0.0937739,-0.7114977,
 -12.9117664,0.2410815,0.2178907,6.9782058,-0.2505696,-12.7003161,0.710
 1699,0.5604198,0.7754959,2.6386548,-0.0560704,7.301677,-0.3646746,-0.4
 510192,1.2179288,0.2762624,-0.0313988,0.1374334,4.1298453,0.0705309,0.
 1473394,3.9422412,0.2398856,0.9591209,0.1888926,-0.0301171,0.1655642,4
 .5631817,-0.0313813,-0.0004105,0.6116733,0.1522725,4.2401435,-0.139581
 7,-0.0359527,-0.1018968,1.2109485,-0.0087452,3.8381139,-0.1864636,0.13
 66421,4.5764755,-0.167782,-0.1486574,-0.1612961,0.9588363,-0.0010875,0
 .4947865,-0.030581,0.1392399,0.9570955,0.1413198,-0.0305885,0.1645732,
 4.5528191,-0.0515301,-0.0603458,-0.6945107,0.165177,1.2042344,-0.01173
 89,-0.0383511,0.1270138,4.0643891,-0.1416992,-0.2173497,-4.013425,0.31
 93141,3.944727,-0.1278042,-0.2383475,-0.1654108,1.2137414,0.0033747,-4
 .1124437,0.1808319,0.4294335,4.5287551,-0.165543,-0.1672015,-0.1719577
 ,0.9595642,0.0002289,-0.8106005,0.0296664,0.186792\Polar=212.141572,-0
 .0523294,212.3622874,-6.4088426,-1.4256581,35.5142027\PolarDeriv=205.5
 827987,1092.4625244,-135.6756778,-141.6079289,-68.2395672,10.3575165,1
 253.1917297,-184.0182879,-1194.2128626,-64.6862573,-561.02665,12.27777
 54,1543.3729854,-91.5206412,613.3528477,-62.1416257,-247.6984489,3.530
 242,1208.0340936,-161.6113239,-1299.630957,541.2242683,-4.9213285,-40.
 4747823,-162.2356489,-1092.6886903,149.2741018,-4.1494811,163.3947408,
 -1.466201,-626.4188115,-28.1055362,-1517.9221981,253.6553194,1.4298766
 ,-14.5142858,-110.831941,-1098.7674217,178.245761,-111.6663017,26.8225
 624,8.327587,-1232.698236,143.043426,1185.0902355,22.9691457,-588.0288
 351,9.2170146,1577.3556784,2.7959356,591.0276747,-41.0880882,251.90031
 3,-6.1458659,-1168.3809955,164.4543627,1187.6724907,606.5249452,-35.97
 16692,-41.8765404,149.8517508,1100.4252277,-170.3066079,-37.1592042,86
 .7122786,0.4890762,-579.2213541,-59.9744528,-1606.0327903,-250.3197937
 ,26.5164578,21.5645536,-83.2256628,-395.9909018,81.2448185,-15.7914672
 ,30.8234619,1.2846174,-481.5263273,84.3488509,795.9771036,26.9046504,1
 87.5084244,-3.1205582,-627.5823692,59.5765775,201.5699599,32.249301,19
 0.9458503,2.0748418,7.8534603,449.3551632,-9.2955335,-52.8653299,-3.97
 50298,3.5924546,-514.7533602,43.430101,741.4959294,29.0393285,176.1506
 029,-3.7382716,-163.4824446,-9.6695852,-55.3893967,9.5730149,41.246892
 6,-2.7651457,-811.8314508,77.4607037,500.5471234,-173.5289505,3.531346
 6,11.9978614,72.3001839,399.2212405,-53.8565543,2.6457145,8.4024061,-0
 .6475258,-192.8943485,31.7933865,618.3230448,-183.0097237,2.3392695,6.
 7390426,-749.067869,36.5391186,520.6828172,-157.8374579,5.2720875,11.7
 248532,-5.783208,-447.5258357,19.9047647,14.2054861,65.1545106,-1.7704
 378,74.5004453,7.4099416,148.6918239,-38.4523089,-0.2832661,4.3259437,
 -27.0584832,-448.9111518,5.8901474,-44.5129607,25.3740284,3.0271906,51
 4.1892854,-30.5118492,-736.3534962,-7.7347268,190.0627262,-3.7418874,-
 170.8602182,20.4367476,-45.4019912,5.7201136,-44.5784314,-1.0989888,34
 .0586738,399.2835127,-66.0457267,-27.0992684,-11.0399975,2.0537291,473
 .2694573,-69.9651109,-786.2852485,-6.694154,202.6801124,-4.5234125,-64
 1.3171646,18.1131152,213.2447279,15.0570267,-200.8699071,9.7024543,768
 .6071771,-76.5421726,-454.7753945,-215.240282,16.1825854,15.424622,-74
 .0485143,-396.9803598,64.8429313,17.5177634,36.1369205,-1.6396574,-220
 .507394,45.8050911,652.2373253,210.8562319,-16.5984028,-21.5642172,726
 .2601986,-37.7324134,-508.8598685,-207.5992663,16.1415197,14.5608907,8
 .2428876,451.2212877,-15.5702967,7.1417346,32.8527626,-1.3359143,27.05
 49956,3.3394202,186.2989723,47.9005326,-4.3502033,-1.8485745\HyperPola
 r=807.1997709,-0.9745362,-268.2145176,-181.5952316,7420.542575,-685.33
 69152,-7447.5428103,-527.7646755,169.8814832,26.6498807\PG=C01 [X(C4H8
 )]\NImag=4\\0.18555733,-0.04290633,-0.25597291,-0.01489792,-0.62488135
 ,0.57754468,0.03053417,-0.04853170,-0.02425557,-0.29057198,0.10425653,
 0.02179003,0.16726445,0.01610446,0.18764323,0.16372568,-0.03478884,-0.
 10908378,-0.60177104,0.03169138,0.61005925,0.15092908,-0.02843854,-0.0
 3241099,0.02552291,-0.10149562,0.16812512,0.18975171,-0.07359432,-0.95
 875838,-0.62047267,0.04751122,0.02407792,0.01708012,0.00332560,-0.2356
 7058,0.02582930,0.64036916,0.04928584,-0.04053028,-0.16682745,-0.10636
 663,0.04263804,0.63939882,0.55301589,0.01562179,0.04665068,0.03085539,
 -0.95753455,0.04517600,-0.59476184,0.01974427,-0.04571927,0.01581538,-
 0.19907833,-0.09199480,0.02652501,0.17180035,0.05738836,0.15102696,0.0
 2622508,0.08908537,0.01964616,-0.17629059,0.02414118,0.18670130,-0.175
 47455,-0.02253746,-0.09890342,0.66684723,-0.03161659,0.04795903,-0.174
 58120,0.03629143,-0.09613569,0.66019846,-0.02702841,0.51947610,0.07330
 187,0.01410795,-0.00576388,0.10487276,-0.15112446,-0.04721554,-0.16935
 409,0.03107290,-0.00650668,0.11992695,0.13075165,0.03917118,-0.0627494
 7,0.00981419,0.21612110,0.08925263,-0.00262928,-0.04185807,-0.00096133
 ,0.01226793,0.25079360,-0.20094599,-0.01248556,-0.05446915,-0.00461534
 ,0.00235874,-0.01673712,-0.00021982,0.20917895,-0.20265567,0.00194306,
 -0.07180710,0.00565866,0.01775100,0.32414377,-0.09337719,-0.01681252,-
 0.08108751,0.00322201,0.01155844,0.00572655,0.25159131,-0.15630332,0.0
 1828589,0.01555400,0.05667861,0.07828693,0.08488714,0.09534997,0.01171
 326,-0.01245785,0.04151454,-0.09097875,-0.08660705,0.06040785,-0.00679
 638,-0.00814823,-0.00788063,0.02287119,0.07699084,0.33567399,0.0031949
 6,-0.06995970,0.01244859,0.00177144,0.29771091,-0.21172469,-0.01265455
 ,-0.06139267,0.02097160,-0.01085097,-0.09038314,-0.10772305,0.00099052
 ,0.14951139,0.00962479,0.20748113,-0.15654236,0.00272659,-0.03202525,0
 .00057592,0.00036347,0.06550049,0.02093330,-0.00864950,-0.02540972,0.0
 0715303,-0.00290982,0.00556266,-0.02735494,-0.00203572,-0.17503886,0.1
 6092428,-0.05666761,0.01255695,-0.00344639,0.22421312,-0.00618723,0.07
 758125,-0.04408242,0.00236889,0.00027924,0.25404298,-0.02149796,-0.209
 98516,-0.03482090,-0.00452817,-0.00530534,-0.01582097,-0.00451408,-0.0
 0134838,-0.01619598,-0.13541737,0.11869651,-0.04048824,-0.00502452,0.0
 7302549,-0.00631679,0.14893511,0.10670804,0.03856075,-0.01640983,-0.16
 970472,0.01035723,0.09843793,-0.04311946,-0.01245941,-0.07556473,-0.03
 183072,0.01029482,-0.00202637,-0.06315698,-0.07348964,0.01132175,0.006
 64732,0.19758171,-0.01181348,-0.21047177,-0.07708803,-0.00651170,0.006
 06140,0.31542610,-0.01372925,-0.09627432,-0.00947698,-0.00506072,-0.00
 511783,-0.02737598,-0.00131643,0.00021483,0.01338061,0.00244705,0.2514
 5666,-0.06158979,0.01372804,0.02219873,0.09213538,-0.00825840,0.329384
 28,-0.07035966,-0.00281443,0.01470188,0.29339970,-0.01120357,-0.219128
 16,-0.03890781,-0.00232299,-0.00294247,-0.01609552,-0.00497220,-0.0009
 8473,-0.09322967,0.00604230,-0.10625181,0.13967723,0.09211410,0.045665
 56,0.08234506,-0.00949938,-0.15741588,-0.01521956,-0.08205615,0.052683
 57,-0.08491431,-0.00850969,0.09573515,0.00934933,-0.07432268,-0.007802
 87,-0.02551642,0.05362640,-0.02033385,-0.01080833,0.00713940,0.0607247
 1,0.00403446,-0.00845704,-0.00737001,-0.02758613,0.00655477,0.00321210
 ,0.20111249,-0.00934654,-0.17057233,-0.02642391,-0.00496199,0.00494868
 ,0.05826732,-0.00335210,0.02486064,0.00907409,-0.00245245,-0.00072259,
 -0.00898109,-0.00042984,0.00049837,0.00710376,-0.00115759,-0.02482622,
 -0.17424010,0.00971626,0.17024855,0.09582573,0.00691500,0.00677240,0.0
 4827768,-0.08748868,0.08507396,-0.15812452,0.00282845,-0.01527621,0.05
 002542,0.07903979,-0.08977236,-0.09065993,0.00086622,-0.00161742,0.058
 83562,-0.00682091,-0.00331482,-0.00868747,0.07289047,-0.02855762,-0.02
 057505,-0.05376029,-0.00784778,-0.00672523,0.01685407,0.29999295,0.206
 56852,-0.01398144,-0.06122896,-0.01896822,-0.00174738,0.06820352,-0.34
 005245,0.00228171,-0.06969580,-0.01148886,-0.00383213,-0.09001009,-0.1
 0781611,-0.00844704,-0.10683277,-0.02146341,0.00235255,-0.03910535,0.0
 0458323,0.00500272,-0.01562458,0.00155884,0.01379279,0.15512789,-0.006
 02566,-0.07067560,0.01819227,0.00587543,0.03291861,0.00025033,-0.00936
 524,-0.21185617,-0.14590588,-0.00637690,0.02751577,0.00696156,0.004431
 23,0.02324876,0.00303142,-0.00123046,0.02364548,-0.00556470,-0.0023227
 5,-0.00943149,0.00034985,-0.00006975,0.01121395,0.00026482,0.01387178,
 0.17459264,0.15412914,-0.16978794,0.00750066,0.01182571,0.11761754,0.1
 3559449,-0.04968080,0.07228308,-0.00134934,-0.01413403,0.10770567,-0.1
 4478137,0.04217661,0.11244044,-0.00506252,-0.00587095,-0.09036947,0.00
 400835,0.00229099,-0.04345599,-0.09854997,-0.00702383,-0.03165376,0.07
 670138,0.00780640,0.06075284,-0.00300660,-0.00342666,-0.06277230,0.026
 31726,0.24871166,0.19405860,-0.01187757,-0.05313402,0.00641607,0.00294
 387,0.21123208,-0.09638634,-0.00259049,-0.04060641,0.00184686,-0.01201
 738,-0.07315339,-0.09558428,-0.00069167,-0.08862581,-0.02177937,0.0044
 9056,-0.03412094,0.00647087,0.00451245,-0.01451416,0.00187571,-0.00706
 009,-0.08872815,-0.00407448,0.00208371,-0.01686939,-0.01242378,-0.3310
 4353,-0.09085797,0.00865258,0.07234680,0.00420058,-0.01966813,-0.21632
 308,-0.19672346,-0.00937875,0.08326980,0.00158293,0.00309474,0.0985423
 1,0.07238893,0.00835308,0.10928102,0.00136006,-0.00420219,0.01354405,-
 0.00548808,-0.00066078,0.02587781,-0.00126385,0.00179989,0.10921825,-0
 .02936856,0.01123029,-0.00154849,0.25172755,-0.03835719,0.00279897,0.0
 0291523,0.24463339,-0.01723791,0.18557641,-0.05072590,0.01175281,0.007
 37550,0.20211765,-0.00696444,-0.10742745,-0.04239544,0.00411642,0.0068
 2348,-0.00645442,0.00207843,0.00277857,-0.07297709,0.00762946,-0.09192
 883,-0.08608967,-0.00039812,-0.01931679,-0.01362152,-0.00436739,0.0024
 3084,-0.03365436,-0.00403453,0.00744423,-0.01673800,0.14694218,0.10605
 566,-0.05094967,-0.02233767,-0.16960828,-0.00769165,-0.13095867,0.1191
 9379,0.04830478,-0.00812674,0.07324840,0.00236957,-0.09910656,-0.03437
 257,-0.00591553,0.07385359,-0.03905088,0.00473462,0.00951448,0.1124853
 9,0.00381622,0.00087681,-0.09065912,0.00175561,-0.07563614,-0.03191464
 ,-0.00432140,0.09925619,-0.04287866,0.00588469,-0.00207597,-0.06314926
 ,0.07793312,0.00466332,0.00097918,-0.33984476,0.01640275,-0.08695829,0
 .07979872,-0.01409655,0.00021221,-0.22743706,0.00787794,-0.18857478,0.
 01131344,-0.00632385,-0.00629321,0.02785927,-0.00412499,-0.00192628,0.
 10231621,-0.00509085,0.07216732,0.11182430,-0.00424896,-0.00088594,0.0
 2961217,0.00215047,-0.00190272,0.00993521,0.00598140,-0.00653499,0.006
 12026,0.00278826,0.25197334,-0.06906409,-0.00266756,-0.00934672,0.3036
 2097,-0.00762610,0.19907538,-0.06093445,0.01290424,-0.01773428,0.05251
 390,-0.01298544,-0.34541755,-0.03206223,0.00440139,0.00284078,-0.01986
 225,0.00489781,0.00145855,-0.09231800,-0.00094247,-0.10519569,-0.10671
 138,0.00742207,-0.01896827,-0.01532356,-0.00490186,0.00220813,-0.03910
 574,-0.00207613,0.00575881,-0.08573745,0.00779849,0.11056913,0.1649843
 0,-0.07525669,0.05418197,0.08982832,-0.01031743,0.09564129,-0.00991486
 ,0.08636704,0.04417938,-0.08949170,-0.01175343,-0.15701424,0.01610064,
 0.07452501,-0.01500885,-0.03113986,-0.05427801,-0.01580361,-0.00704878
 ,0.00033099,-0.09060196,0.00575801,0.00786631,0.05891147,0.00023932,0.
 05443338,-0.02018402,0.00722392,-0.07239499,-0.00731282,0.03095037,0.0
 0670227,0.06065016,-0.00597895,-0.00622444,-0.00763876,0.03300462,0.00
 435770,0.00218179,-0.07833744,0.00281240,0.01474902,0.03086114,-0.0081
 9248,0.00405153,-0.21714608,0.01020864,-0.13132710,-0.00677023,-0.0019
 7324,-0.00037091,0.01018288,-0.00166283,-0.00027150,0.02594915,-0.0002
 5953,0.00528084,0.02616862,-0.00182929,-0.00576223,0.00925601,0.001117
 10,-0.00043754,-0.00512895,0.00272345,-0.00102314,-0.00279145,-0.00077
 551,-0.03225583,0.17475174,-0.00652641,0.14518506\\0.00458997,0.051603
 81,0.06154992,-0.05332162,0.00186055,-0.06021557,-0.00009491,-0.050609
 83,0.06254536,0.04883019,-0.00285918,-0.06387987,-0.00121163,-0.011288
 92,-0.01924962,-0.00086393,-0.01460326,-0.00526898,0.01182756,-0.00035
 801,0.01895892,0.01474689,-0.00062820,0.00488878,0.00047152,0.01451800
 ,-0.00555205,-0.00019115,0.01097893,-0.01946767,-0.01042662,0.00067030
 ,0.01975841,-0.01435628,0.00071580,0.00593239\\\@


 A FOOL CAN ASK MORE QUESTIONS THAN
 A WISE MAN CAN ANSWER.
 Job cpu time:       0 days  0 hours  0 minutes  9.8 seconds.
 File lengths (MBytes):  RWF=    152 Int=      0 D2E=      0 Chk=      2 Scr=      2
 Normal termination of Gaussian 09 at Sat Apr 16 16:34:51 2022.
