 Entering Gaussian System, Link 0=g09
 Input=/scratch/mverot/1-2-ethanediol-redundant-opt/1-2-ethanediol-redundant-opt.com
 Output=/scratch/mverot/1-2-ethanediol-redundant-opt/1-2-ethanediol-redundant-opt.log
 Initial command:
 /opt/g09/l1.exe "/scratch/mverot/1-2-ethanediol-redundant-opt/Gau-1483500.inp" -scrdir="/scratch/mverot/1-2-ethanediol-redundant-opt/"
 Entering Link 1 = /opt/g09/l1.exe PID=   1483502.
  
 Copyright (c) 1988,1990,1992,1993,1995,1998,2003,2009,2013,
            Gaussian, Inc.  All Rights Reserved.
  
 This is part of the Gaussian(R) 09 program.  It is based on
 the Gaussian(R) 03 system (copyright 2003, Gaussian, Inc.),
 the Gaussian(R) 98 system (copyright 1998, Gaussian, Inc.),
 the Gaussian(R) 94 system (copyright 1995, Gaussian, Inc.),
 the Gaussian 92(TM) system (copyright 1992, Gaussian, Inc.),
 the Gaussian 90(TM) system (copyright 1990, Gaussian, Inc.),
 the Gaussian 88(TM) system (copyright 1988, Gaussian, Inc.),
 the Gaussian 86(TM) system (copyright 1986, Carnegie Mellon
 University), and the Gaussian 82(TM) system (copyright 1983,
 Carnegie Mellon University). Gaussian is a federally registered
 trademark of Gaussian, Inc.
  
 This software contains proprietary and confidential information,
 including trade secrets, belonging to Gaussian, Inc.
  
 This software is provided under written license and may be
 used, copied, transmitted, or stored only in accord with that
 written license.
  
 The following legend is applicable only to US Government
 contracts under FAR:
  
                    RESTRICTED RIGHTS LEGEND
  
 Use, reproduction and disclosure by the US Government is
 subject to restrictions as set forth in subparagraphs (a)
 and (c) of the Commercial Computer Software - Restricted
 Rights clause in FAR 52.227-19.
  
 Gaussian, Inc.
 340 Quinnipiac St., Bldg. 40, Wallingford CT 06492
  
  
 ---------------------------------------------------------------
 Warning -- This program may not be used in any manner that
 competes with the business of Gaussian, Inc. or will provide
 assistance to any competitor of Gaussian, Inc.  The licensee
 of this program is prohibited from giving any competitor of
 Gaussian, Inc. access to this program.  By using this program,
 the user acknowledges that Gaussian, Inc. is engaged in the
 business of creating and licensing software in the field of
 computational chemistry and represents and warrants to the
 licensee that it is not a competitor of Gaussian, Inc. and that
 it will not use this program in any manner prohibited above.
 ---------------------------------------------------------------
  

 Cite this work as:
 Gaussian 09, Revision D.01,
 M. J. Frisch, G. W. Trucks, H. B. Schlegel, G. E. Scuseria, 
 M. A. Robb, J. R. Cheeseman, G. Scalmani, V. Barone, B. Mennucci, 
 G. A. Petersson, H. Nakatsuji, M. Caricato, X. Li, H. P. Hratchian, 
 A. F. Izmaylov, J. Bloino, G. Zheng, J. L. Sonnenberg, M. Hada, 
 M. Ehara, K. Toyota, R. Fukuda, J. Hasegawa, M. Ishida, T. Nakajima, 
 Y. Honda, O. Kitao, H. Nakai, T. Vreven, J. A. Montgomery, Jr., 
 J. E. Peralta, F. Ogliaro, M. Bearpark, J. J. Heyd, E. Brothers, 
 K. N. Kudin, V. N. Staroverov, T. Keith, R. Kobayashi, J. Normand, 
 K. Raghavachari, A. Rendell, J. C. Burant, S. S. Iyengar, J. Tomasi, 
 M. Cossi, N. Rega, J. M. Millam, M. Klene, J. E. Knox, J. B. Cross, 
 V. Bakken, C. Adamo, J. Jaramillo, R. Gomperts, R. E. Stratmann, 
 O. Yazyev, A. J. Austin, R. Cammi, C. Pomelli, J. W. Ochterski, 
 R. L. Martin, K. Morokuma, V. G. Zakrzewski, G. A. Voth, 
 P. Salvador, J. J. Dannenberg, S. Dapprich, A. D. Daniels, 
 O. Farkas, J. B. Foresman, J. V. Ortiz, J. Cioslowski, 
 and D. J. Fox, Gaussian, Inc., Wallingford CT, 2013.
 
 ******************************************
 Gaussian 09:  AM64L-G09RevD.01 24-Apr-2013
                18-Apr-2022 
 ******************************************
 %chk=1-2-ethanediol-opt
 -----------------------
 #n AM1 Opt=modredundant
 -----------------------
 1/14=-1,18=120,19=15,26=1,38=1/1,3;
 2/9=110,12=2,17=6,18=5,40=1/2;
 3/5=2,16=1,25=1,41=700000,71=1/1,2,3;
 4/35=1/1;
 5/5=2,35=1,38=5/2;
 6/7=2,8=2,9=2,10=2,28=1/1;
 7//1,2,3,16;
 1/14=-1,18=20,19=15,26=1/3(2);
 2/9=110/2;
 99//99;
 2/9=110/2;
 3/5=2,16=1,25=1,41=700000,71=1,135=20/1,2,3;
 4/5=5,16=3,35=1/1;
 5/5=2,35=1,38=5/2;
 7//1,2,3,16;
 1/14=-1,18=20,19=15,26=1/3(-5);
 2/9=110/2;
 6/7=2,8=2,9=2,10=2,19=2,28=1/1;
 99/9=1/99;
 -------------------------
 Optimisation de geometrie
 -------------------------
 Symbolic Z-matrix:
 Charge =  0 Multiplicity = 1
 C                     1.0379    2.1554    1.623 
 O                     1.6569    2.075     2.9094 
 C                     1.3393    0.836     0.929 
 O                     2.7356    0.6333    0.8072 
 H                     1.4617    2.9816    1.0336 
 H                    -0.0497    2.3075    1.709 
 H                     1.6972    2.965     3.2882 
 H                     0.9208    0.8398   -0.083 
 H                     0.8609    0.0177    1.4923 
 H                     3.0927    0.8053    1.6951 
 
 The following ModRedundant input section has been read:
 D       2       1       3       4 S  36 10.000                                
 

 GradGradGradGradGradGradGradGradGradGradGradGradGradGradGradGradGradGrad
 Berny optimization.
 Initialization pass.
                           ----------------------------
                           !    Initial Parameters    !
                           ! (Angstroms and Degrees)  !
 --------------------------                            --------------------------
 ! Name  Definition              Value          Derivative Info.                !
 --------------------------------------------------------------------------------
 ! R1    R(1,2)                  1.4298         estimate D2E/DX2                !
 ! R2    R(1,3)                  1.521          estimate D2E/DX2                !
 ! R3    R(1,5)                  1.0998         estimate D2E/DX2                !
 ! R4    R(1,6)                  1.1015         estimate D2E/DX2                !
 ! R5    R(2,7)                  0.9681         estimate D2E/DX2                !
 ! R6    R(3,4)                  1.4162         estimate D2E/DX2                !
 ! R7    R(3,8)                  1.0951         estimate D2E/DX2                !
 ! R8    R(3,9)                  1.1026         estimate D2E/DX2                !
 ! R9    R(4,10)                 0.9724         estimate D2E/DX2                !
 ! A1    A(2,1,3)              106.0187         estimate D2E/DX2                !
 ! A2    A(2,1,5)              110.9508         estimate D2E/DX2                !
 ! A3    A(2,1,6)              111.405          estimate D2E/DX2                !
 ! A4    A(3,1,5)              109.3158         estimate D2E/DX2                !
 ! A5    A(3,1,6)              110.5522         estimate D2E/DX2                !
 ! A6    A(5,1,6)              108.5765         estimate D2E/DX2                !
 ! A7    A(1,2,7)              108.5636         estimate D2E/DX2                !
 ! A8    A(1,3,4)              111.026          estimate D2E/DX2                !
 ! A9    A(1,3,8)              110.0549         estimate D2E/DX2                !
 ! A10   A(1,3,9)              108.9477         estimate D2E/DX2                !
 ! A11   A(4,3,8)              107.3256         estimate D2E/DX2                !
 ! A12   A(4,3,9)              111.4381         estimate D2E/DX2                !
 ! A13   A(8,3,9)              107.9908         estimate D2E/DX2                !
 ! A14   A(3,4,10)             104.9658         estimate D2E/DX2                !
 ! D1    D(3,1,2,7)            164.9577         estimate D2E/DX2                !
 ! D2    D(5,1,2,7)             46.3753         estimate D2E/DX2                !
 ! D3    D(6,1,2,7)            -74.7213         estimate D2E/DX2                !
 ! D4    D(2,1,3,4)            -59.4136         Scan                            !
 ! D5    D(2,1,3,8)           -178.0964         estimate D2E/DX2                !
 ! D6    D(2,1,3,9)             63.6768         estimate D2E/DX2                !
 ! D7    D(5,1,3,4)             60.2449         estimate D2E/DX2                !
 ! D8    D(5,1,3,8)            -58.4379         estimate D2E/DX2                !
 ! D9    D(5,1,3,9)           -176.6647         estimate D2E/DX2                !
 ! D10   D(6,1,3,4)            179.7124         estimate D2E/DX2                !
 ! D11   D(6,1,3,8)             61.0297         estimate D2E/DX2                !
 ! D12   D(6,1,3,9)            -57.1972         estimate D2E/DX2                !
 ! D13   D(1,3,4,10)            49.1359         estimate D2E/DX2                !
 ! D14   D(8,3,4,10)           169.4508         estimate D2E/DX2                !
 ! D15   D(9,3,4,10)           -72.5093         estimate D2E/DX2                !
 --------------------------------------------------------------------------------
 Trust Radius=3.00D-01 FncErr=1.00D-07 GrdErr=1.00D-07
 Number of optimizations in scan=  37
 Number of steps in this run=     48 maximum allowed number of steps=    100.
 GradGradGradGradGradGradGradGradGradGradGradGradGradGradGradGradGradGrad

                          Input orientation:                          
 ---------------------------------------------------------------------
 Center     Atomic      Atomic             Coordinates (Angstroms)
 Number     Number       Type             X           Y           Z
 ---------------------------------------------------------------------
      1          6           0        1.037900    2.155400    1.623000
      2          8           0        1.656900    2.075000    2.909400
      3          6           0        1.339300    0.836000    0.929000
      4          8           0        2.735600    0.633300    0.807200
      5          1           0        1.461700    2.981600    1.033600
      6          1           0       -0.049700    2.307500    1.709000
      7          1           0        1.697200    2.965000    3.288200
      8          1           0        0.920800    0.839800   -0.083000
      9          1           0        0.860900    0.017700    1.492300
     10          1           0        3.092700    0.805300    1.695100
 ---------------------------------------------------------------------
                    Distance matrix (angstroms):
                    1          2          3          4          5
     1  C    0.000000
     2  O    1.429843   0.000000
     3  C    1.520952   2.357536   0.000000
     4  O    2.421674   2.767912   1.416184   0.000000
     5  H    1.099821   2.092523   2.151632   2.681155   0.000000
     6  H    1.101546   2.099405   2.168648   3.372549   1.787430
     7  H    1.965457   0.968098   3.197899   3.559559   2.266927
     8  H    2.157534   3.319943   1.095126   2.031895   2.475212
     9  H    2.148993   2.621883   1.102628   2.088738   3.058769
    10  H    2.459710   2.268961   1.913704   0.972353   2.798933
                    6          7          8          9         10
     6  H    0.000000
     7  H    2.444962   0.000000
     8  H    2.511429   4.060081   0.000000
     9  H    2.473729   3.551230   1.777922   0.000000
    10  H    3.483027   3.024846   2.807130   2.375368   0.000000
 Stoichiometry    C2H6O2
 Framework group  C1[X(C2H6O2)]
 Deg. of freedom    24
 Full point group                 C1      NOp   1
 Largest Abelian subgroup         C1      NOp   1
 Largest concise Abelian subgroup C1      NOp   1
                         Standard orientation:                         
 ---------------------------------------------------------------------
 Center     Atomic      Atomic             Coordinates (Angstroms)
 Number     Number       Type             X           Y           Z
 ---------------------------------------------------------------------
      1          6           0        0.684527    0.611474   -0.262380
      2          8           0        1.316614   -0.576038    0.222113
      3          6           0       -0.741473    0.573046    0.265198
      4          8           0       -1.420502   -0.583538   -0.189564
      5          1           0        0.665344    0.626165   -1.361935
      6          1           0        1.203588    1.516259    0.091657
      7          1           0        2.135630   -0.714104   -0.275245
      8          1           0       -1.299628    1.442666   -0.097466
      9          1           0       -0.717100    0.619137    1.366593
     10          1           0       -0.815056   -1.320637   -0.000906
 ---------------------------------------------------------------------
 Rotational constants (GHZ):     15.1386151      5.7121834      4.6692489
 Standard basis: VSTO-6G (5D, 7F)
 There are    22 symmetry adapted cartesian basis functions of A   symmetry.
 There are    22 symmetry adapted basis functions of A   symmetry.
    22 basis functions,   132 primitive gaussians,    22 cartesian basis functions
    13 alpha electrons       13 beta electrons
       nuclear repulsion energy       103.7367791696 Hartrees.
 Integral buffers will be    131072 words long.
 Regular integral format.
 Two-electron integral symmetry is turned off.
 Do NDO integrals.
 One-electron integrals computed using PRISM.
 NBasis=    22 RedAO= F EigKep=  0.00D+00  NBF=    22
 NBsUse=    22 1.00D-04 EigRej=  0.00D+00 NBFU=    22
 Simple Huckel Guess.
 Overlap will be assumed to be unity.
 Keep J ints in memory in canonical form, NReq=887849.
 Requested convergence on RMS density matrix=1.00D-08 within 128 cycles.
 Requested convergence on MAX density matrix=1.00D-06.
 Requested convergence on             energy=1.00D-06.
 No special actions if energy rises.
 SCF Done:  E(RAM1) = -0.173743152039     A.U. after   13 cycles
            NFock= 12  Conv=0.31D-08     -V/T= 0.9897

 **********************************************************************

            Population analysis using the SCF density.

 **********************************************************************

 Orbital symmetries:
       Occupied  (A) (A) (A) (A) (A) (A) (A) (A) (A) (A) (A) (A)
                 (A)
       Virtual   (A) (A) (A) (A) (A) (A) (A) (A) (A)
 The electronic state is 1-A.
 Alpha  occ. eigenvalues --   -1.44126  -1.34968  -1.10815  -0.86359  -0.70092
 Alpha  occ. eigenvalues --   -0.64702  -0.61091  -0.57629  -0.53309  -0.50054
 Alpha  occ. eigenvalues --   -0.46253  -0.41820  -0.40410
 Alpha virt. eigenvalues --    0.11428   0.13373   0.13865   0.14553   0.15381
 Alpha virt. eigenvalues --    0.16704   0.17716   0.21724   0.23271
          Condensed to atoms (all electrons):
               1          2          3          4          5          6
     1  C    4.060794   0.000000   0.000000   0.000000   0.000000   0.000000
     2  O    0.000000   6.343629   0.000000   0.000000   0.000000   0.000000
     3  C    0.000000   0.000000   4.019220   0.000000   0.000000   0.000000
     4  O    0.000000   0.000000   0.000000   6.323909   0.000000   0.000000
     5  H    0.000000   0.000000   0.000000   0.000000   0.927017   0.000000
     6  H    0.000000   0.000000   0.000000   0.000000   0.000000   0.925373
     7  H    0.000000   0.000000   0.000000   0.000000   0.000000   0.000000
     8  H    0.000000   0.000000   0.000000   0.000000   0.000000   0.000000
     9  H    0.000000   0.000000   0.000000   0.000000   0.000000   0.000000
    10  H    0.000000   0.000000   0.000000   0.000000   0.000000   0.000000
               7          8          9         10
     1  C    0.000000   0.000000   0.000000   0.000000
     2  O    0.000000   0.000000   0.000000   0.000000
     3  C    0.000000   0.000000   0.000000   0.000000
     4  O    0.000000   0.000000   0.000000   0.000000
     5  H    0.000000   0.000000   0.000000   0.000000
     6  H    0.000000   0.000000   0.000000   0.000000
     7  H    0.791851   0.000000   0.000000   0.000000
     8  H    0.000000   0.897938   0.000000   0.000000
     9  H    0.000000   0.000000   0.925901   0.000000
    10  H    0.000000   0.000000   0.000000   0.784367
 Mulliken charges:
               1
     1  C   -0.060794
     2  O   -0.343629
     3  C   -0.019220
     4  O   -0.323909
     5  H    0.072983
     6  H    0.074627
     7  H    0.208149
     8  H    0.102062
     9  H    0.074099
    10  H    0.215633
 Sum of Mulliken charges =  -0.00000
 Mulliken charges with hydrogens summed into heavy atoms:
               1
     1  C    0.086815
     2  O   -0.135480
     3  C    0.156941
     4  O   -0.108276
 Charge=             -0.0000 electrons
 Dipole moment (field-independent basis, Debye):
    X=              1.9792    Y=              1.1516    Z=             -0.5466  Tot=              2.3542
 N-N= 1.037367791696D+02 E-N=-1.717652159178D+02  KE=-1.682328692062D+01
 Calling FoFJK, ICntrl=      2127 FMM=F ISym2X=0 I1Cent= 0 IOpClX= 0 NMat=1 NMatS=1 NMatT=0.
 ***** Axes restored to original set *****
 -------------------------------------------------------------------
 Center     Atomic                   Forces (Hartrees/Bohr)
 Number     Number              X              Y              Z
 -------------------------------------------------------------------
      1        6           0.009960256   -0.002752518    0.011612144
      2        8          -0.004168956    0.002112944   -0.004120396
      3        6           0.008314778    0.003278228    0.006858456
      4        8          -0.004698812    0.001063026    0.005569153
      5        1           0.007300496    0.012823626   -0.005804331
      6        1          -0.012312120    0.000856841    0.005332463
      7        1          -0.002377674   -0.003048421   -0.005074778
      8        1          -0.002904377    0.000997617   -0.018437252
      9        1          -0.001862986   -0.012486949    0.008558787
     10        1           0.002749394   -0.002844395   -0.004494245
 -------------------------------------------------------------------
 Cartesian Forces:  Max     0.018437252 RMS     0.007193379

 GradGradGradGradGradGradGradGradGradGradGradGradGradGradGradGradGradGrad
 Berny optimization.
 FormGI is forming the generalized inverse of G from B-inverse, IUseBI=4.
 Internal  Forces:  Max     0.018151130 RMS     0.006191697
 Search for a local minimum.
 Step number   1 out of a maximum of   48 on scan point     1 out of    37
 All quantities printed in internal units (Hartrees-Bohrs-Radians)
 Mixed Optimization -- RFO/linear search
 Second derivative matrix not updated -- first step.
 ITU=  0
     Eigenvalues ---    0.01297   0.01478   0.01970   0.05341   0.05960
     Eigenvalues ---    0.06016   0.10836   0.11481   0.13237   0.13767
     Eigenvalues ---    0.16000   0.16000   0.21965   0.22036   0.30275
     Eigenvalues ---    0.33393   0.33512   0.33702   0.34227   0.41012
     Eigenvalues ---    0.43040   0.52899   0.537671000.000001000.00000
     Eigenvalues --- 1000.000001000.000001000.000001000.000001000.00000
     Eigenvalues --- 1000.000001000.000001000.000001000.000001000.00000
     Eigenvalues --- 1000.000001000.000001000.00000
 RFO step:  Lambda=-5.44854294D-03 EMin= 1.29701872D-02
 Linear search not attempted -- first point.
 Iteration  1 RMS(Cart)=  0.04651500 RMS(Int)=  0.00115959
 Iteration  2 RMS(Cart)=  0.00103656 RMS(Int)=  0.00019532
 Iteration  3 RMS(Cart)=  0.00000060 RMS(Int)=  0.00019532
 Iteration  1 RMS(Cart)=  0.00000982 RMS(Int)=  0.00000981
 Iteration  2 RMS(Cart)=  0.00000616 RMS(Int)=  0.00001089
 Iteration  3 RMS(Cart)=  0.00000386 RMS(Int)=  0.00001248
 Iteration  4 RMS(Cart)=  0.00000242 RMS(Int)=  0.00001371
 Iteration  5 RMS(Cart)=  0.00000152 RMS(Int)=  0.00001455
 Iteration  6 RMS(Cart)=  0.00000095 RMS(Int)=  0.00001511
 Variable       Old X    -DE/DX   Delta X   Delta X   Delta X     New X
                                 (Linear)    (Quad)   (Total)
    R1        2.70201  -0.01105   0.00000  -0.02660  -0.02660   2.67541
    R2        2.87418   0.00987   0.00000   0.03203   0.03203   2.90622
    R3        2.07836   0.01556   0.00000   0.04543   0.04543   2.12379
    R4        2.08162   0.01269   0.00000   0.03726   0.03726   2.11888
    R5        1.82944  -0.00489   0.00000  -0.00900  -0.00900   1.82044
    R6        2.67620  -0.00176   0.00000  -0.00404  -0.00404   2.67216
    R7        2.06949   0.01815   0.00000   0.05220   0.05220   2.12169
    R8        2.08366   0.01445   0.00000   0.04257   0.04257   2.12624
    R9        1.83748  -0.00360   0.00000  -0.00673  -0.00673   1.83075
    A1        1.85037   0.00190   0.00000   0.00402   0.00405   1.85442
    A2        1.93646  -0.00193   0.00000  -0.01647  -0.01663   1.91982
    A3        1.94438  -0.00342   0.00000  -0.03585  -0.03588   1.90850
    A4        1.90792   0.00224   0.00000   0.02625   0.02609   1.93401
    A5        1.92950   0.00044   0.00000   0.00586   0.00563   1.93513
    A6        1.89502   0.00086   0.00000   0.01681   0.01620   1.91122
    A7        1.89479  -0.00746   0.00000  -0.04511  -0.04511   1.84968
    A8        1.93777   0.00486   0.00000   0.01587   0.01598   1.95374
    A9        1.92082  -0.00069   0.00000   0.00218   0.00212   1.92294
   A10        1.90150   0.00185   0.00000   0.02215   0.02210   1.92360
   A11        1.87319  -0.00368   0.00000  -0.03124  -0.03128   1.84191
   A12        1.94496  -0.00439   0.00000  -0.03539  -0.03555   1.90941
   A13        1.88480   0.00190   0.00000   0.02621   0.02556   1.91035
   A14        1.83200   0.00843   0.00000   0.05097   0.05097   1.88297
    D1        2.87906   0.00123   0.00000   0.02474   0.02461   2.90366
    D2        0.80940  -0.00155   0.00000  -0.00025  -0.00000   0.80940
    D3       -1.30413   0.00103   0.00000   0.01420   0.01408  -1.29005
    D4       -1.03696  -0.00126   0.00000   0.00000  -0.00000  -1.03697
    D5       -3.10837   0.00069   0.00000   0.02744   0.02754  -3.08083
    D6        1.11137  -0.00232   0.00000  -0.01894  -0.01900   1.09237
    D7        1.05147  -0.00128   0.00000  -0.00333  -0.00342   1.04805
    D8       -1.01993   0.00067   0.00000   0.02412   0.02412  -0.99581
    D9       -3.08338  -0.00234   0.00000  -0.02226  -0.02241  -3.10579
   D10        3.13657   0.00145   0.00000   0.03749   0.03761  -3.10901
   D11        1.06517   0.00341   0.00000   0.06493   0.06515   1.13032
   D12       -0.99828   0.00040   0.00000   0.01855   0.01861  -0.97967
   D13        0.85758   0.00181   0.00000   0.04727   0.04718   0.90476
   D14        2.95747   0.00151   0.00000   0.03962   0.03928   2.99675
   D15       -1.26553  -0.00090   0.00000   0.03241   0.03284  -1.23268
         Item               Value     Threshold  Converged?
 Maximum Force            0.018151     0.000450     NO 
 RMS     Force            0.006266     0.000300     NO 
 Maximum Displacement     0.150061     0.001800     NO 
 RMS     Displacement     0.046541     0.001200     NO 
 Predicted change in Energy=-2.821096D-03
 GradGradGradGradGradGradGradGradGradGradGradGradGradGradGradGradGradGrad

                          Input orientation:                          
 ---------------------------------------------------------------------
 Center     Atomic      Atomic             Coordinates (Angstroms)
 Number     Number       Type             X           Y           Z
 ---------------------------------------------------------------------
      1          6           0        1.037760    2.170957    1.633530
      2          8           0        1.648755    2.096691    2.908506
      3          6           0        1.340763    0.835987    0.932680
      4          8           0        2.730719    0.612000    0.800841
      5          1           0        1.464695    3.032947    1.052359
      6          1           0       -0.067175    2.314632    1.758881
      7          1           0        1.648447    2.995375    3.255471
      8          1           0        0.937495    0.848399   -0.115073
      9          1           0        0.877248   -0.016279    1.502567
     10          1           0        3.134592    0.725891    1.674037
 ---------------------------------------------------------------------
                    Distance matrix (angstroms):
                    1          2          3          4          5
     1  C    0.000000
     2  O    1.415766   0.000000
     3  C    1.537903   2.363920   0.000000
     4  O    2.447413   2.795927   1.414047   0.000000
     5  H    1.123859   2.087039   2.203705   2.743550   0.000000
     6  H    1.121266   2.076908   2.202564   3.412478   1.833515
     7  H    1.919192   0.963336   3.186374   3.588453   2.211081
     8  H    2.194727   3.347559   1.122749   2.027421   2.532408
     9  H    2.197025   2.652646   1.125156   2.079064   3.137764
    10  H    2.546873   2.368696   1.944108   0.968791   2.915055
                    6          7          8          9         10
     6  H    0.000000
     7  H    2.376247   0.000000
     8  H    2.582809   4.059006   0.000000
     9  H    2.527999   3.568961   1.835226   0.000000
    10  H    3.575278   3.140082   2.836047   2.382398   0.000000
 Stoichiometry    C2H6O2
 Framework group  C1[X(C2H6O2)]
 Deg. of freedom    24
 Full point group                 C1      NOp   1
 Largest Abelian subgroup         C1      NOp   1
 Largest concise Abelian subgroup C1      NOp   1
                         Standard orientation:                         
 ---------------------------------------------------------------------
 Center     Atomic      Atomic             Coordinates (Angstroms)
 Number     Number       Type             X           Y           Z
 ---------------------------------------------------------------------
      1          6           0        0.710339    0.597868   -0.256000
      2          8           0        1.319433   -0.588710    0.218796
      3          6           0       -0.737041    0.576214    0.263393
      4          8           0       -1.445667   -0.558698   -0.194158
      5          1           0        0.731131    0.617566   -1.379494
      6          1           0        1.265237    1.486156    0.144336
      7          1           0        2.139674   -0.682692   -0.277580
      8          1           0       -1.302875    1.462664   -0.129805
      9          1           0       -0.746708    0.594384    1.388360
     10          1           0       -0.916375   -1.343306    0.012718
 ---------------------------------------------------------------------
 Rotational constants (GHZ):     15.2944913      5.5736060      4.5973066
 Standard basis: VSTO-6G (5D, 7F)
 There are    22 symmetry adapted cartesian basis functions of A   symmetry.
 There are    22 symmetry adapted basis functions of A   symmetry.
    22 basis functions,   132 primitive gaussians,    22 cartesian basis functions
    13 alpha electrons       13 beta electrons
       nuclear repulsion energy       103.3901234577 Hartrees.
 Integral buffers will be    131072 words long.
 Regular integral format.
 Two-electron integral symmetry is turned off.
 Do NDO integrals.
 One-electron integrals computed using PRISM.
 NBasis=    22 RedAO= F EigKep=  0.00D+00  NBF=    22
 NBsUse=    22 1.00D-04 EigRej=  0.00D+00 NBFU=    22
 Initial guess from the checkpoint file:  "1-2-ethanediol-opt.chk"
 B after Tr=    -0.000000   -0.000000   -0.000000
         Rot=    0.999966   -0.003200    0.002226    0.007206 Ang=  -0.94 deg.
 Overlap will be assumed to be unity.
 Keep J ints in memory in canonical form, NReq=887849.
 Requested convergence on RMS density matrix=1.00D-08 within 128 cycles.
 Requested convergence on MAX density matrix=1.00D-06.
 Requested convergence on             energy=1.00D-06.
 No special actions if energy rises.
 SCF Done:  E(RAM1) = -0.175770916047     A.U. after   11 cycles
            NFock= 10  Conv=0.59D-08     -V/T= 0.9895
 Calling FoFJK, ICntrl=      2127 FMM=F ISym2X=0 I1Cent= 0 IOpClX= 0 NMat=1 NMatS=1 NMatT=0.
 ***** Axes restored to original set *****
 -------------------------------------------------------------------
 Center     Atomic                   Forces (Hartrees/Bohr)
 Number     Number              X              Y              Z
 -------------------------------------------------------------------
      1        6           0.002105610   -0.006674342   -0.006230926
      2        8           0.001537412    0.000875779    0.002166196
      3        6          -0.000114218    0.003399914    0.004236984
      4        8          -0.001492504    0.002368664   -0.000401367
      5        1          -0.000619007   -0.002083533   -0.000789074
      6        1          -0.000366353   -0.000954683   -0.001528883
      7        1           0.000739640   -0.000120088    0.002497606
      8        1           0.001290984    0.000839743    0.000947373
      9        1           0.000192172    0.002443574    0.000197801
     10        1          -0.003273736   -0.000095029   -0.001095710
 -------------------------------------------------------------------
 Cartesian Forces:  Max     0.006674342 RMS     0.002379948

 GradGradGradGradGradGradGradGradGradGradGradGradGradGradGradGradGradGrad
 Berny optimization.
 Using GEDIIS/GDIIS optimizer.
 FormGI is forming the generalized inverse of G from B-inverse, IUseBI=4.
 Internal  Forces:  Max     0.010214818 RMS     0.002484122
 Search for a local minimum.
 Step number   2 out of a maximum of   48 on scan point     1 out of    37
 All quantities printed in internal units (Hartrees-Bohrs-Radians)
 Mixed Optimization -- RFO/linear search
 Update second derivatives using D2CorX and points    1    2
 DE= -2.03D-03 DEPred=-2.82D-03 R= 7.19D-01
 TightC=F SS=  1.41D+00  RLast= 1.86D-01 DXNew= 5.0454D-01 5.5778D-01
 Trust test= 7.19D-01 RLast= 1.86D-01 DXMaxT set to 5.05D-01
 ITU=  1  0
 Use linear search instead of GDIIS.
     Eigenvalues ---    0.01294   0.01473   0.01942   0.05312   0.05644
     Eigenvalues ---    0.05926   0.11209   0.11872   0.13265   0.13868
     Eigenvalues ---    0.15998   0.17535   0.21932   0.22326   0.29047
     Eigenvalues ---    0.33390   0.33582   0.34007   0.36345   0.41952
     Eigenvalues ---    0.46746   0.52802   0.540231000.000001000.00000
     Eigenvalues --- 1000.000001000.000001000.000001000.000001000.00000
     Eigenvalues --- 1000.000001000.000001000.000001000.000001000.00000
     Eigenvalues --- 1000.000001000.000001000.00000
 RFO step:  Lambda=-4.30959151D-04 EMin= 1.29379047D-02
 Quartic linear search produced a step of -0.19936.
 Iteration  1 RMS(Cart)=  0.01582679 RMS(Int)=  0.00013115
 Iteration  2 RMS(Cart)=  0.00010286 RMS(Int)=  0.00003400
 Iteration  3 RMS(Cart)=  0.00000002 RMS(Int)=  0.00003400
 Iteration  1 RMS(Cart)=  0.00000186 RMS(Int)=  0.00000186
 Iteration  2 RMS(Cart)=  0.00000117 RMS(Int)=  0.00000207
 Iteration  3 RMS(Cart)=  0.00000074 RMS(Int)=  0.00000237
 Variable       Old X    -DE/DX   Delta X   Delta X   Delta X     New X
                                 (Linear)    (Quad)   (Total)
    R1        2.67541   0.00514   0.00530   0.00271   0.00801   2.68342
    R2        2.90622  -0.01021  -0.00639  -0.01816  -0.02454   2.88167
    R3        2.12379  -0.00143  -0.00906   0.00912   0.00006   2.12385
    R4        2.11888   0.00007  -0.00743   0.01041   0.00299   2.12187
    R5        1.82044   0.00079   0.00179  -0.00131   0.00049   1.82093
    R6        2.67216  -0.00491   0.00080  -0.01023  -0.00942   2.66274
    R7        2.12169  -0.00134  -0.01041   0.01124   0.00083   2.12252
    R8        2.12624  -0.00183  -0.00849   0.00733  -0.00115   2.12508
    R9        1.83075  -0.00236   0.00134  -0.00543  -0.00409   1.82666
    A1        1.85442   0.00004  -0.00081   0.00218   0.00139   1.85581
    A2        1.91982   0.00112   0.00332   0.00502   0.00836   1.92819
    A3        1.90850   0.00117   0.00715   0.00140   0.00856   1.91706
    A4        1.93401  -0.00138  -0.00520  -0.00380  -0.00901   1.92500
    A5        1.93513  -0.00159  -0.00112  -0.01008  -0.01119   1.92394
    A6        1.91122   0.00067  -0.00323   0.00530   0.00206   1.91327
    A7        1.84968   0.00447   0.00899   0.00990   0.01890   1.86857
    A8        1.95374  -0.00212  -0.00318  -0.00509  -0.00833   1.94542
    A9        1.92294   0.00019  -0.00042  -0.00105  -0.00150   1.92144
   A10        1.92360  -0.00089  -0.00441   0.00072  -0.00367   1.91993
   A11        1.84191   0.00022   0.00624  -0.01158  -0.00538   1.83653
   A12        1.90941   0.00192   0.00709   0.00042   0.00753   1.91694
   A13        1.91035   0.00080  -0.00510   0.01673   0.01177   1.92213
   A14        1.88297  -0.00457  -0.01016  -0.00881  -0.01897   1.86399
    D1        2.90366   0.00031  -0.00491   0.02056   0.01568   2.91934
    D2        0.80940   0.00132   0.00000   0.02108   0.02107   0.83047
    D3       -1.29005  -0.00093  -0.00281   0.01058   0.00776  -1.28229
    D4       -1.03697  -0.00047   0.00000   0.00000   0.00001  -1.03696
    D5       -3.08083   0.00045  -0.00549   0.01821   0.01270  -3.06813
    D6        1.09237  -0.00010   0.00379  -0.00245   0.00136   1.09373
    D7        1.04805   0.00015   0.00068   0.00526   0.00593   1.05399
    D8       -0.99581   0.00106  -0.00481   0.02347   0.01862  -0.97719
    D9       -3.10579   0.00052   0.00447   0.00281   0.00729  -3.09851
   D10       -3.10901  -0.00103  -0.00750   0.00249  -0.00500  -3.11401
   D11        1.13032  -0.00012  -0.01299   0.02070   0.00769   1.13800
   D12       -0.97967  -0.00066  -0.00371   0.00004  -0.00365  -0.98332
   D13        0.90476   0.00006  -0.00941   0.02362   0.01420   0.91896
   D14        2.99675  -0.00074  -0.00783   0.01232   0.00458   3.00133
   D15       -1.23268   0.00127  -0.00655   0.02584   0.01922  -1.21346
         Item               Value     Threshold  Converged?
 Maximum Force            0.010215     0.000450     NO 
 RMS     Force            0.002514     0.000300     NO 
 Maximum Displacement     0.045086     0.001800     NO 
 RMS     Displacement     0.015827     0.001200     NO 
 Predicted change in Energy=-3.496479D-04
 GradGradGradGradGradGradGradGradGradGradGradGradGradGradGradGradGradGrad

                          Input orientation:                          
 ---------------------------------------------------------------------
 Center     Atomic      Atomic             Coordinates (Angstroms)
 Number     Number       Type             X           Y           Z
 ---------------------------------------------------------------------
      1          6           0        1.042402    2.164875    1.628991
      2          8           0        1.661257    2.094815    2.905127
      3          6           0        1.339235    0.839768    0.935202
      4          8           0        2.725722    0.626560    0.802347
      5          1           0        1.464470    3.019668    1.033743
      6          1           0       -0.065684    2.300319    1.749749
      7          1           0        1.657467    2.986441    3.270504
      8          1           0        0.941404    0.856528   -0.115038
      9          1           0        0.876291   -0.008067    1.510927
     10          1           0        3.110734    0.735692    1.682249
 ---------------------------------------------------------------------
                    Distance matrix (angstroms):
                    1          2          3          4          5
     1  C    0.000000
     2  O    1.420004   0.000000
     3  C    1.524914   2.357848   0.000000
     4  O    2.425556   2.776786   1.409062   0.000000
     5  H    1.123892   2.096702   2.185717   2.715008   0.000000
     6  H    1.122846   2.087931   2.184146   3.389836   1.836164
     7  H    1.935934   0.963594   3.187964   3.577989   2.245318
     8  H    2.182570   3.342594   1.123189   2.019473   2.504490
     9  H    2.182478   2.642362   1.124544   2.079720   3.121032
    10  H    2.514636   2.333158   1.925388   0.966629   2.889168
                    6          7          8          9         10
     6  H    0.000000
     7  H    2.398481   0.000000
     8  H    2.564408   4.063394   0.000000
     9  H    2.504595   3.559976   1.842695   0.000000
    10  H    3.541503   3.114548   2.819722   2.361199   0.000000
 Stoichiometry    C2H6O2
 Framework group  C1[X(C2H6O2)]
 Deg. of freedom    24
 Full point group                 C1      NOp   1
 Largest Abelian subgroup         C1      NOp   1
 Largest concise Abelian subgroup C1      NOp   1
                         Standard orientation:                         
 ---------------------------------------------------------------------
 Center     Atomic      Atomic             Coordinates (Angstroms)
 Number     Number       Type             X           Y           Z
 ---------------------------------------------------------------------
      1          6           0        0.694922    0.603306   -0.255234
      2          8           0        1.317591   -0.583759    0.213352
      3          6           0       -0.737502    0.570878    0.266756
      4          8           0       -1.428941   -0.566698   -0.195076
      5          1           0        0.699826    0.632710   -1.378731
      6          1           0        1.234880    1.501504    0.147839
      7          1           0        2.146573   -0.677462   -0.268854
      8          1           0       -1.313606    1.448508   -0.132522
      9          1           0       -0.737646    0.587047    1.391184
     10          1           0       -0.883756   -1.333759    0.025747
 ---------------------------------------------------------------------
 Rotational constants (GHZ):     15.2820308      5.6511662      4.6480795
 Standard basis: VSTO-6G (5D, 7F)
 There are    22 symmetry adapted cartesian basis functions of A   symmetry.
 There are    22 symmetry adapted basis functions of A   symmetry.
    22 basis functions,   132 primitive gaussians,    22 cartesian basis functions
    13 alpha electrons       13 beta electrons
       nuclear repulsion energy       103.5784395765 Hartrees.
 Integral buffers will be    131072 words long.
 Regular integral format.
 Two-electron integral symmetry is turned off.
 Do NDO integrals.
 One-electron integrals computed using PRISM.
 NBasis=    22 RedAO= F EigKep=  0.00D+00  NBF=    22
 NBsUse=    22 1.00D-04 EigRej=  0.00D+00 NBFU=    22
 Initial guess from the checkpoint file:  "1-2-ethanediol-opt.chk"
 B after Tr=     0.000000   -0.000000    0.000000
         Rot=    0.999991   -0.001083   -0.000871   -0.003916 Ang=  -0.48 deg.
 Overlap will be assumed to be unity.
 Keep J ints in memory in canonical form, NReq=887849.
 Requested convergence on RMS density matrix=1.00D-08 within 128 cycles.
 Requested convergence on MAX density matrix=1.00D-06.
 Requested convergence on             energy=1.00D-06.
 No special actions if energy rises.
 SCF Done:  E(RAM1) = -0.176053008598     A.U. after   10 cycles
            NFock=  9  Conv=0.88D-08     -V/T= 0.9895
 Calling FoFJK, ICntrl=      2127 FMM=F ISym2X=0 I1Cent= 0 IOpClX= 0 NMat=1 NMatS=1 NMatT=0.
 ***** Axes restored to original set *****
 -------------------------------------------------------------------
 Center     Atomic                   Forces (Hartrees/Bohr)
 Number     Number              X              Y              Z
 -------------------------------------------------------------------
      1        6          -0.000887860    0.001604754    0.000029787
      2        8          -0.000123882    0.000453360   -0.000388996
      3        6          -0.002607194   -0.001449176   -0.000508094
      4        8           0.002966863   -0.000165175   -0.000507440
      5        1          -0.000453716   -0.000919535    0.001090689
      6        1           0.000876838    0.000357685    0.000110944
      7        1          -0.000403380   -0.000101758   -0.000170230
      8        1          -0.000127050   -0.000199607    0.000853521
      9        1           0.000067165    0.001021741   -0.000589406
     10        1           0.000692216   -0.000602289    0.000079224
 -------------------------------------------------------------------
 Cartesian Forces:  Max     0.002966863 RMS     0.000972284

 GradGradGradGradGradGradGradGradGradGradGradGradGradGradGradGradGradGrad
 Berny optimization.
 Using GEDIIS/GDIIS optimizer.
 FormGI is forming the generalized inverse of G from B-inverse, IUseBI=4.
 Internal  Forces:  Max     0.003756958 RMS     0.000875541
 Search for a local minimum.
 Step number   3 out of a maximum of   48 on scan point     1 out of    37
 All quantities printed in internal units (Hartrees-Bohrs-Radians)
 Mixed Optimization -- En-DIIS/RFO-DIIS
 Update second derivatives using D2CorX and points    1    2    3
 DE= -2.82D-04 DEPred=-3.50D-04 R= 8.07D-01
 TightC=F SS=  1.41D+00  RLast= 6.48D-02 DXNew= 8.4853D-01 1.9449D-01
 Trust test= 8.07D-01 RLast= 6.48D-02 DXMaxT set to 5.05D-01
 ITU=  1  1  0
 Use linear search instead of GDIIS.
     Eigenvalues ---    0.01241   0.01425   0.01972   0.05351   0.05970
     Eigenvalues ---    0.06015   0.11317   0.11681   0.13258   0.13784
     Eigenvalues ---    0.15948   0.17752   0.21732   0.22458   0.32685
     Eigenvalues ---    0.33404   0.33643   0.34103   0.35572   0.41942
     Eigenvalues ---    0.52006   0.53412   0.574421000.000001000.00000
     Eigenvalues --- 1000.000001000.000001000.000001000.000001000.00000
     Eigenvalues --- 1000.000001000.000001000.000001000.000001000.00000
     Eigenvalues --- 1000.000001000.000001000.00000
 RFO step:  Lambda=-6.42797433D-05 EMin= 1.24143018D-02
 Quartic linear search produced a step of -0.16442.
 Iteration  1 RMS(Cart)=  0.00918156 RMS(Int)=  0.00006576
 Iteration  2 RMS(Cart)=  0.00005864 RMS(Int)=  0.00000656
 Iteration  3 RMS(Cart)=  0.00000000 RMS(Int)=  0.00000656
 Iteration  1 RMS(Cart)=  0.00000030 RMS(Int)=  0.00000030
 Variable       Old X    -DE/DX   Delta X   Delta X   Delta X     New X
                                 (Linear)    (Quad)   (Total)
    R1        2.68342  -0.00075  -0.00132   0.00093  -0.00039   2.68303
    R2        2.88167   0.00171   0.00404  -0.00250   0.00153   2.88321
    R3        2.12385  -0.00145  -0.00001  -0.00368  -0.00369   2.12016
    R4        2.12187  -0.00081  -0.00049  -0.00132  -0.00181   2.12006
    R5        1.82093  -0.00016  -0.00008  -0.00004  -0.00012   1.82081
    R6        2.66274   0.00376   0.00155   0.00437   0.00591   2.66866
    R7        2.12252  -0.00076  -0.00014  -0.00184  -0.00198   2.12054
    R8        2.12508  -0.00110   0.00019  -0.00320  -0.00301   2.12207
    R9        1.82666   0.00028   0.00067  -0.00067   0.00001   1.82667
    A1        1.85581   0.00082  -0.00023   0.00351   0.00328   1.85909
    A2        1.92819  -0.00048  -0.00138  -0.00113  -0.00250   1.92569
    A3        1.91706  -0.00052  -0.00141   0.00059  -0.00082   1.91624
    A4        1.92500   0.00014   0.00148  -0.00118   0.00030   1.92530
    A5        1.92394   0.00020   0.00184  -0.00065   0.00119   1.92513
    A6        1.91327  -0.00014  -0.00034  -0.00103  -0.00135   1.91192
    A7        1.86857  -0.00053  -0.00311   0.00288  -0.00023   1.86835
    A8        1.94542   0.00133   0.00137   0.00341   0.00478   1.95020
    A9        1.92144  -0.00045   0.00025  -0.00299  -0.00274   1.91870
   A10        1.91993  -0.00046   0.00060  -0.00338  -0.00279   1.91715
   A11        1.83653  -0.00030   0.00088  -0.00067   0.00023   1.83676
   A12        1.91694  -0.00010  -0.00124   0.00392   0.00268   1.91962
   A13        1.92213  -0.00001  -0.00194  -0.00013  -0.00208   1.92005
   A14        1.86399   0.00130   0.00312   0.00093   0.00405   1.86804
    D1        2.91934   0.00017  -0.00258   0.01526   0.01268   2.93202
    D2        0.83047  -0.00023  -0.00346   0.01520   0.01174   0.84221
    D3       -1.28229   0.00059  -0.00128   0.01683   0.01556  -1.26674
    D4       -1.03696  -0.00018  -0.00000   0.00000  -0.00000  -1.03696
    D5       -3.06813  -0.00033  -0.00209   0.00062  -0.00146  -3.06959
    D6        1.09373   0.00027  -0.00022   0.00494   0.00471   1.09844
    D7        1.05399  -0.00019  -0.00098   0.00009  -0.00088   1.05310
    D8       -0.97719  -0.00034  -0.00306   0.00071  -0.00234  -0.97953
    D9       -3.09851   0.00026  -0.00120   0.00503   0.00383  -3.09468
   D10       -3.11401  -0.00014   0.00082  -0.00241  -0.00160  -3.11560
   D11        1.13800  -0.00029  -0.00126  -0.00179  -0.00305   1.13495
   D12       -0.98332   0.00031   0.00060   0.00253   0.00312  -0.98020
   D13        0.91896   0.00038  -0.00234   0.02131   0.01898   0.93794
   D14        3.00133   0.00037  -0.00075   0.01913   0.01838   3.01971
   D15       -1.21346   0.00014  -0.00316   0.02058   0.01741  -1.19605
         Item               Value     Threshold  Converged?
 Maximum Force            0.003757     0.000450     NO 
 RMS     Force            0.000886     0.000300     NO 
 Maximum Displacement     0.037835     0.001800     NO 
 RMS     Displacement     0.009185     0.001200     NO 
 Predicted change in Energy=-4.302542D-05
 GradGradGradGradGradGradGradGradGradGradGradGradGradGradGradGradGradGrad

                          Input orientation:                          
 ---------------------------------------------------------------------
 Center     Atomic      Atomic             Coordinates (Angstroms)
 Number     Number       Type             X           Y           Z
 ---------------------------------------------------------------------
      1          6           0        1.042270    2.165947    1.629876
      2          8           0        1.661966    2.102173    2.905703
      3          6           0        1.341474    0.840712    0.935564
      4          8           0        2.730148    0.624727    0.796919
      5          1           0        1.460978    3.020337    1.035355
      6          1           0       -0.064865    2.300359    1.751597
      7          1           0        1.644440    2.992735    3.273099
      8          1           0        0.939697    0.858406   -0.112034
      9          1           0        0.877154   -0.004468    1.510977
     10          1           0        3.120038    0.715671    1.676744
 ---------------------------------------------------------------------
                    Distance matrix (angstroms):
                    1          2          3          4          5
     1  C    0.000000
     2  O    1.419797   0.000000
     3  C    1.525727   2.361238   0.000000
     4  O    2.432717   2.787620   1.412192   0.000000
     5  H    1.121942   2.093232   2.185178   2.721505   0.000000
     6  H    1.121886   2.086428   2.185010   3.395769   1.832912
     7  H    1.935554   0.963530   3.191718   3.594119   2.245421
     8  H    2.180467   3.342957   1.122141   2.021513   2.502435
     9  H    2.179932   2.645585   1.122953   2.083111   3.117132
    10  H    2.534289   2.357690   1.930874   0.966632   2.911245
                    6          7          8          9         10
     6  H    0.000000
     7  H    2.390832   0.000000
     8  H    2.561541   4.063391   0.000000
     9  H    2.501504   3.560481   1.839193   0.000000
    10  H    3.558152   3.148136   2.823825   2.361484   0.000000
 Stoichiometry    C2H6O2
 Framework group  C1[X(C2H6O2)]
 Deg. of freedom    24
 Full point group                 C1      NOp   1
 Largest Abelian subgroup         C1      NOp   1
 Largest concise Abelian subgroup C1      NOp   1
                         Standard orientation:                         
 ---------------------------------------------------------------------
 Center     Atomic      Atomic             Coordinates (Angstroms)
 Number     Number       Type             X           Y           Z
 ---------------------------------------------------------------------
      1          6           0        0.698204    0.601242   -0.254185
      2          8           0        1.320807   -0.587017    0.210820
      3          6           0       -0.735618    0.572058    0.266530
      4          8           0       -1.436914   -0.563214   -0.195669
      5          1           0        0.704712    0.631593   -1.375697
      6          1           0        1.240483    1.496938    0.148670
      7          1           0        2.154873   -0.673274   -0.263820
      8          1           0       -1.305283    1.452996   -0.131753
      9          1           0       -0.733895    0.591315    1.389316
     10          1           0       -0.907551   -1.337520    0.038004
 ---------------------------------------------------------------------
 Rotational constants (GHZ):     15.3025117      5.6161361      4.6231736
 Standard basis: VSTO-6G (5D, 7F)
 There are    22 symmetry adapted cartesian basis functions of A   symmetry.
 There are    22 symmetry adapted basis functions of A   symmetry.
    22 basis functions,   132 primitive gaussians,    22 cartesian basis functions
    13 alpha electrons       13 beta electrons
       nuclear repulsion energy       103.5015477262 Hartrees.
 Integral buffers will be    131072 words long.
 Regular integral format.
 Two-electron integral symmetry is turned off.
 Do NDO integrals.
 One-electron integrals computed using PRISM.
 NBasis=    22 RedAO= F EigKep=  0.00D+00  NBF=    22
 NBsUse=    22 1.00D-04 EigRej=  0.00D+00 NBFU=    22
 Initial guess from the checkpoint file:  "1-2-ethanediol-opt.chk"
 B after Tr=    -0.000000    0.000000   -0.000000
         Rot=    0.999999   -0.000043   -0.000216    0.001448 Ang=  -0.17 deg.
 Overlap will be assumed to be unity.
 Keep J ints in memory in canonical form, NReq=887849.
 Requested convergence on RMS density matrix=1.00D-08 within 128 cycles.
 Requested convergence on MAX density matrix=1.00D-06.
 Requested convergence on             energy=1.00D-06.
 No special actions if energy rises.
 SCF Done:  E(RAM1) = -0.176099505690     A.U. after   10 cycles
            NFock=  9  Conv=0.59D-08     -V/T= 0.9895
 Calling FoFJK, ICntrl=      2127 FMM=F ISym2X=0 I1Cent= 0 IOpClX= 0 NMat=1 NMatS=1 NMatT=0.
 ***** Axes restored to original set *****
 -------------------------------------------------------------------
 Center     Atomic                   Forces (Hartrees/Bohr)
 Number     Number              X              Y              Z
 -------------------------------------------------------------------
      1        6           0.000323233    0.000658077    0.000191609
      2        8           0.000114323   -0.000281448   -0.000274061
      3        6           0.000075629   -0.000807584    0.000205132
      4        8          -0.000385968    0.000548525   -0.000220669
      5        1           0.000039067    0.000005966    0.000149086
      6        1           0.000133037    0.000114621    0.000002373
      7        1          -0.000383827   -0.000015302   -0.000163619
      8        1           0.000092884   -0.000171635    0.000148885
      9        1           0.000249720    0.000158382   -0.000084231
     10        1          -0.000258097   -0.000209602    0.000045494
 -------------------------------------------------------------------
 Cartesian Forces:  Max     0.000807584 RMS     0.000284989

 GradGradGradGradGradGradGradGradGradGradGradGradGradGradGradGradGradGrad
 Berny optimization.
 Using GEDIIS/GDIIS optimizer.
 FormGI is forming the generalized inverse of G from B-inverse, IUseBI=4.
 Internal  Forces:  Max     0.000667976 RMS     0.000227747
 Search for a local minimum.
 Step number   4 out of a maximum of   48 on scan point     1 out of    37
 All quantities printed in internal units (Hartrees-Bohrs-Radians)
 Mixed Optimization -- En-DIIS/RFO-DIIS
 Swapping is turned off.
 Update second derivatives using D2CorX and points    1    2    3    4
 DE= -4.65D-05 DEPred=-4.30D-05 R= 1.08D+00
 TightC=F SS=  1.41D+00  RLast= 4.20D-02 DXNew= 8.4853D-01 1.2597D-01
 Trust test= 1.08D+00 RLast= 4.20D-02 DXMaxT set to 5.05D-01
 ITU=  1  1  1  0
     Eigenvalues ---    0.00791   0.01396   0.01972   0.05350   0.05970
     Eigenvalues ---    0.06161   0.11241   0.11902   0.13282   0.13792
     Eigenvalues ---    0.16697   0.17772   0.21988   0.23681   0.31505
     Eigenvalues ---    0.33289   0.33642   0.34032   0.35717   0.45067
     Eigenvalues ---    0.52258   0.53813   0.634121000.000001000.00000
     Eigenvalues --- 1000.000001000.000001000.000001000.000001000.00000
     Eigenvalues --- 1000.000001000.000001000.000001000.000001000.00000
     Eigenvalues --- 1000.000001000.000001000.00000
 En-DIIS/RFO-DIIS IScMMF=        0 using points:     4    3
 RFO step:  Lambda=-4.63367554D-06.
 DidBck=F Rises=F RFO-DIIS coefs:    1.08712   -0.08712
 Iteration  1 RMS(Cart)=  0.00600865 RMS(Int)=  0.00006278
 Iteration  2 RMS(Cart)=  0.00005484 RMS(Int)=  0.00000049
 Iteration  3 RMS(Cart)=  0.00000000 RMS(Int)=  0.00000049
 Iteration  1 RMS(Cart)=  0.00000014 RMS(Int)=  0.00000014
 Variable       Old X    -DE/DX   Delta X   Delta X   Delta X     New X
                                 (Linear)    (Quad)   (Total)
    R1        2.68303  -0.00050  -0.00003  -0.00113  -0.00116   2.68187
    R2        2.88321   0.00033   0.00013   0.00032   0.00045   2.88366
    R3        2.12016  -0.00006  -0.00032  -0.00086  -0.00118   2.11898
    R4        2.12006  -0.00012  -0.00016  -0.00046  -0.00062   2.11944
    R5        1.82081  -0.00007  -0.00001  -0.00020  -0.00021   1.82060
    R6        2.66866  -0.00067   0.00052  -0.00086  -0.00034   2.66832
    R7        2.12054  -0.00017  -0.00017  -0.00073  -0.00090   2.11964
    R8        2.12207  -0.00027  -0.00026  -0.00147  -0.00173   2.12034
    R9        1.82667  -0.00008   0.00000  -0.00046  -0.00045   1.82622
    A1        1.85909  -0.00019   0.00029  -0.00017   0.00011   1.85920
    A2        1.92569   0.00002  -0.00022  -0.00137  -0.00158   1.92410
    A3        1.91624  -0.00004  -0.00007   0.00009   0.00002   1.91626
    A4        1.92530   0.00023   0.00003   0.00143   0.00146   1.92676
    A5        1.92513   0.00005   0.00010   0.00030   0.00040   1.92553
    A6        1.91192  -0.00007  -0.00012  -0.00029  -0.00040   1.91152
    A7        1.86835  -0.00056  -0.00002  -0.00308  -0.00310   1.86525
    A8        1.95020  -0.00036   0.00042  -0.00131  -0.00089   1.94931
    A9        1.91870   0.00017  -0.00024   0.00107   0.00083   1.91953
   A10        1.91715   0.00019  -0.00024   0.00020  -0.00004   1.91711
   A11        1.83676  -0.00002   0.00002  -0.00023  -0.00021   1.83655
   A12        1.91962   0.00008   0.00023  -0.00036  -0.00013   1.91949
   A13        1.92005  -0.00007  -0.00018   0.00063   0.00045   1.92050
   A14        1.86804  -0.00039   0.00035  -0.00257  -0.00221   1.86582
    D1        2.93202   0.00024   0.00110   0.01819   0.01930   2.95132
    D2        0.84221   0.00007   0.00102   0.01733   0.01836   0.86056
    D3       -1.26674   0.00017   0.00136   0.01850   0.01986  -1.24688
    D4       -1.03696  -0.00017  -0.00000   0.00000  -0.00000  -1.03696
    D5       -3.06959  -0.00004  -0.00013   0.00040   0.00027  -3.06932
    D6        1.09844  -0.00018   0.00041  -0.00121  -0.00080   1.09765
    D7        1.05310  -0.00013  -0.00008  -0.00095  -0.00103   1.05207
    D8       -0.97953   0.00000  -0.00020  -0.00055  -0.00076  -0.98029
    D9       -3.09468  -0.00014   0.00033  -0.00216  -0.00182  -3.09650
   D10       -3.11560  -0.00004  -0.00014  -0.00017  -0.00031  -3.11592
   D11        1.13495   0.00010  -0.00027   0.00022  -0.00004   1.13491
   D12       -0.98020  -0.00004   0.00027  -0.00138  -0.00111  -0.98131
   D13        0.93794   0.00016   0.00165   0.01585   0.01750   0.95545
   D14        3.01971   0.00016   0.00160   0.01630   0.01790   3.03761
   D15       -1.19605   0.00011   0.00152   0.01674   0.01825  -1.17779
         Item               Value     Threshold  Converged?
 Maximum Force            0.000668     0.000450     NO 
 RMS     Force            0.000226     0.000300     YES
 Maximum Displacement     0.022148     0.001800     NO 
 RMS     Displacement     0.006010     0.001200     NO 
 Predicted change in Energy=-1.130755D-05
 GradGradGradGradGradGradGradGradGradGradGradGradGradGradGradGradGradGrad

                          Input orientation:                          
 ---------------------------------------------------------------------
 Center     Atomic      Atomic             Coordinates (Angstroms)
 Number     Number       Type             X           Y           Z
 ---------------------------------------------------------------------
      1          6           0        1.044059    2.167244    1.629587
      2          8           0        1.667040    2.105187    2.903213
      3          6           0        1.342344    0.841430    0.935459
      4          8           0        2.730833    0.627470    0.793699
      5          1           0        1.460610    3.021935    1.035162
      6          1           0       -0.062452    2.301456    1.754159
      7          1           0        1.632720    2.993387    3.274832
      8          1           0        0.938363    0.857166   -0.110813
      9          1           0        0.881320   -0.002955    1.512897
     10          1           0        3.118463    0.704281    1.675604
 ---------------------------------------------------------------------
                    Distance matrix (angstroms):
                    1          2          3          4          5
     1  C    0.000000
     2  O    1.419183   0.000000
     3  C    1.525965   2.361051   0.000000
     4  O    2.432040   2.786637   1.412012   0.000000
     5  H    1.121317   2.091089   2.185985   2.721255   0.000000
     6  H    1.121560   2.085663   2.185268   3.395166   1.831874
     7  H    1.932839   0.963420   3.191849   3.599921   2.246455
     8  H    2.180932   3.342585   1.121665   2.020854   2.504440
     9  H    2.179418   2.644730   1.122035   2.082157   3.116691
    10  H    2.538804   2.361395   1.929047   0.966392   2.920644
                    6          7          8          9         10
     6  H    0.000000
     7  H    2.380089   0.000000
     8  H    2.562366   4.063023   0.000000
     9  H    2.501844   3.556273   1.838340   0.000000
    10  H    3.560247   3.163063   2.822675   2.351906   0.000000
 Stoichiometry    C2H6O2
 Framework group  C1[X(C2H6O2)]
 Deg. of freedom    24
 Full point group                 C1      NOp   1
 Largest Abelian subgroup         C1      NOp   1
 Largest concise Abelian subgroup C1      NOp   1
                         Standard orientation:                         
 ---------------------------------------------------------------------
 Center     Atomic      Atomic             Coordinates (Angstroms)
 Number     Number       Type             X           Y           Z
 ---------------------------------------------------------------------
      1          6           0        0.698620    0.600640   -0.253554
      2          8           0        1.319823   -0.588780    0.208471
      3          6           0       -0.735379    0.571925    0.267401
      4          8           0       -1.436915   -0.561769   -0.197747
      5          1           0        0.706630    0.632362   -1.374393
      6          1           0        1.242085    1.494630    0.150580
      7          1           0        2.161124   -0.663063   -0.255072
      8          1           0       -1.304711    1.453565   -0.128458
      9          1           0       -0.733394    0.587863    1.389321
     10          1           0       -0.914441   -1.336353    0.049142
 ---------------------------------------------------------------------
 Rotational constants (GHZ):     15.3196479      5.6163144      4.6241981
 Standard basis: VSTO-6G (5D, 7F)
 There are    22 symmetry adapted cartesian basis functions of A   symmetry.
 There are    22 symmetry adapted basis functions of A   symmetry.
    22 basis functions,   132 primitive gaussians,    22 cartesian basis functions
    13 alpha electrons       13 beta electrons
       nuclear repulsion energy       103.5115476488 Hartrees.
 Integral buffers will be    131072 words long.
 Regular integral format.
 Two-electron integral symmetry is turned off.
 Do NDO integrals.
 One-electron integrals computed using PRISM.
 NBasis=    22 RedAO= F EigKep=  0.00D+00  NBF=    22
 NBsUse=    22 1.00D-04 EigRej=  0.00D+00 NBFU=    22
 Initial guess from the checkpoint file:  "1-2-ethanediol-opt.chk"
 B after Tr=    -0.000000   -0.000000    0.000000
         Rot=    1.000000   -0.000604    0.000108    0.000265 Ang=  -0.08 deg.
 Overlap will be assumed to be unity.
 Keep J ints in memory in canonical form, NReq=887849.
 Requested convergence on RMS density matrix=1.00D-08 within 128 cycles.
 Requested convergence on MAX density matrix=1.00D-06.
 Requested convergence on             energy=1.00D-06.
 No special actions if energy rises.
 SCF Done:  E(RAM1) = -0.176114757609     A.U. after   10 cycles
            NFock=  9  Conv=0.28D-08     -V/T= 0.9895
 Calling FoFJK, ICntrl=      2127 FMM=F ISym2X=0 I1Cent= 0 IOpClX= 0 NMat=1 NMatS=1 NMatT=0.
 ***** Axes restored to original set *****
 -------------------------------------------------------------------
 Center     Atomic                   Forces (Hartrees/Bohr)
 Number     Number              X              Y              Z
 -------------------------------------------------------------------
      1        6           0.000081662    0.000214084   -0.000130705
      2        8           0.000237415   -0.000229019    0.000190507
      3        6           0.000208932   -0.000358099    0.000073381
      4        8          -0.000314942    0.000447798   -0.000195757
      5        1           0.000199798    0.000240171   -0.000281543
      6        1          -0.000177997    0.000062474   -0.000102373
      7        1          -0.000149763    0.000041900    0.000233168
      8        1          -0.000075924   -0.000071414   -0.000105346
      9        1          -0.000131056   -0.000256864    0.000191987
     10        1           0.000121876   -0.000091033    0.000126683
 -------------------------------------------------------------------
 Cartesian Forces:  Max     0.000447798 RMS     0.000201051

 GradGradGradGradGradGradGradGradGradGradGradGradGradGradGradGradGradGrad
 Berny optimization.
 Using GEDIIS/GDIIS optimizer.
 FormGI is forming the generalized inverse of G from B-inverse, IUseBI=4.
 Internal  Forces:  Max     0.000426880 RMS     0.000182282
 Search for a local minimum.
 Step number   5 out of a maximum of   48 on scan point     1 out of    37
 All quantities printed in internal units (Hartrees-Bohrs-Radians)
 Mixed Optimization -- En-DIIS/RFO-DIIS
 Swapping is turned off.
 Update second derivatives using D2CorX and points    1    2    3    4    5
 DE= -1.53D-05 DEPred=-1.13D-05 R= 1.35D+00
 TightC=F SS=  1.41D+00  RLast= 4.58D-02 DXNew= 8.4853D-01 1.3746D-01
 Trust test= 1.35D+00 RLast= 4.58D-02 DXMaxT set to 5.05D-01
 ITU=  1  1  1  1  0
     Eigenvalues ---    0.00325   0.01457   0.01975   0.05356   0.05965
     Eigenvalues ---    0.06132   0.11503   0.11958   0.13275   0.13787
     Eigenvalues ---    0.17718   0.19223   0.22050   0.23774   0.32384
     Eigenvalues ---    0.33399   0.33644   0.34455   0.41411   0.48611
     Eigenvalues ---    0.53420   0.54983   0.627541000.000001000.00000
     Eigenvalues --- 1000.000001000.000001000.000001000.000001000.00000
     Eigenvalues --- 1000.000001000.000001000.000001000.000001000.00000
     Eigenvalues --- 1000.000001000.000001000.00000
 En-DIIS/RFO-DIIS IScMMF=        0 using points:     5    4    3
 RFO step:  Lambda=-2.57099333D-06.
 DidBck=F Rises=F RFO-DIIS coefs:    1.49495   -0.41307   -0.08188
 Iteration  1 RMS(Cart)=  0.00852849 RMS(Int)=  0.00014158
 Iteration  2 RMS(Cart)=  0.00012746 RMS(Int)=  0.00000038
 Iteration  3 RMS(Cart)=  0.00000003 RMS(Int)=  0.00000038
 Iteration  1 RMS(Cart)=  0.00000005 RMS(Int)=  0.00000005
 Variable       Old X    -DE/DX   Delta X   Delta X   Delta X     New X
                                 (Linear)    (Quad)   (Total)
    R1        2.68187   0.00043  -0.00061   0.00136   0.00075   2.68262
    R2        2.88366   0.00021   0.00035   0.00051   0.00086   2.88452
    R3        2.11898   0.00041  -0.00089   0.00112   0.00023   2.11921
    R4        2.11944   0.00017  -0.00045   0.00071   0.00026   2.11970
    R5        1.82060   0.00013  -0.00011   0.00024   0.00012   1.82072
    R6        2.66832  -0.00024   0.00032   0.00001   0.00032   2.66864
    R7        2.11964   0.00012  -0.00061   0.00044  -0.00017   2.11947
    R8        2.12034   0.00035  -0.00110   0.00084  -0.00026   2.12008
    R9        1.82622   0.00016  -0.00022   0.00009  -0.00014   1.82608
    A1        1.85920  -0.00028   0.00033  -0.00096  -0.00064   1.85857
    A2        1.92410   0.00021  -0.00099   0.00000  -0.00099   1.92312
    A3        1.91626   0.00008  -0.00006   0.00204   0.00198   1.91825
    A4        1.92676   0.00004   0.00075  -0.00045   0.00029   1.92705
    A5        1.92553  -0.00003   0.00030  -0.00055  -0.00026   1.92528
    A6        1.91152  -0.00001  -0.00031  -0.00007  -0.00039   1.91113
    A7        1.86525   0.00020  -0.00155   0.00171   0.00015   1.86540
    A8        1.94931  -0.00039  -0.00005  -0.00200  -0.00205   1.94725
    A9        1.91953   0.00009   0.00019   0.00058   0.00076   1.92030
   A10        1.91711   0.00012  -0.00025  -0.00021  -0.00046   1.91665
   A11        1.83655   0.00003  -0.00008   0.00044   0.00035   1.83691
   A12        1.91949   0.00021   0.00016   0.00086   0.00102   1.92051
   A13        1.92050  -0.00006   0.00005   0.00039   0.00044   1.92094
   A14        1.86582   0.00014  -0.00076   0.00137   0.00060   1.86643
    D1        2.95132   0.00018   0.01059   0.02117   0.03176   2.98308
    D2        0.86056   0.00019   0.01005   0.02229   0.03233   0.89289
    D3       -1.24688   0.00002   0.01110   0.02107   0.03217  -1.21471
    D4       -1.03696  -0.00023  -0.00000   0.00000  -0.00000  -1.03696
    D5       -3.06932  -0.00008   0.00001   0.00031   0.00033  -3.06900
    D6        1.09765  -0.00014  -0.00001  -0.00041  -0.00041   1.09723
    D7        1.05207  -0.00012  -0.00058  -0.00082  -0.00140   1.05067
    D8       -0.98029   0.00003  -0.00057  -0.00051  -0.00108  -0.98136
    D9       -3.09650  -0.00003  -0.00059  -0.00123  -0.00182  -3.09832
   D10       -3.11592  -0.00014  -0.00029  -0.00158  -0.00186  -3.11778
   D11        1.13491   0.00001  -0.00027  -0.00126  -0.00154   1.13337
   D12       -0.98131  -0.00005  -0.00029  -0.00198  -0.00228  -0.98358
   D13        0.95545   0.00009   0.01022   0.01291   0.02313   0.97857
   D14        3.03761   0.00001   0.01037   0.01279   0.02316   3.06077
   D15       -1.17779   0.00006   0.01046   0.01393   0.02439  -1.15340
         Item               Value     Threshold  Converged?
 Maximum Force            0.000427     0.000450     YES
 RMS     Force            0.000174     0.000300     YES
 Maximum Displacement     0.031247     0.001800     NO 
 RMS     Displacement     0.008525     0.001200     NO 
 Predicted change in Energy=-9.605264D-06
 GradGradGradGradGradGradGradGradGradGradGradGradGradGradGradGradGradGrad

                          Input orientation:                          
 ---------------------------------------------------------------------
 Center     Atomic      Atomic             Coordinates (Angstroms)
 Number     Number       Type             X           Y           Z
 ---------------------------------------------------------------------
      1          6           0        1.046329    2.169595    1.628381
      2          8           0        1.675043    2.109828    2.899741
      3          6           0        1.342972    0.842207    0.935555
      4          8           0        2.731742    0.631624    0.789832
      5          1           0        1.460931    3.023612    1.031401
      6          1           0       -0.060049    2.303796    1.755350
      7          1           0        1.616185    2.991976    3.282694
      8          1           0        0.935322    0.854787   -0.109241
      9          1           0        0.885266   -0.000971    1.517110
     10          1           0        3.119561    0.690146    1.672977
 ---------------------------------------------------------------------
                    Distance matrix (angstroms):
                    1          2          3          4          5
     1  C    0.000000
     2  O    1.419581   0.000000
     3  C    1.526422   2.361178   0.000000
     4  O    2.430871   2.784495   1.412183   0.000000
     5  H    1.121438   2.090822   2.186693   2.719360   0.000000
     6  H    1.121697   2.087534   2.185583   3.394478   1.831834
     7  H    1.933338   0.963485   3.194560   3.609721   2.256861
     8  H    2.181828   3.343096   1.121577   2.021202   2.506218
     9  H    2.179376   2.644028   1.121896   2.082927   3.116954
    10  H    2.547362   2.367927   1.929555   0.966319   2.933894
                    6          7          8          9         10
     6  H    0.000000
     7  H    2.369838   0.000000
     8  H    2.562634   4.066494   0.000000
     9  H    2.502464   3.550952   1.838436   0.000000
    10  H    3.566591   3.185868   2.823882   2.343931   0.000000
 Stoichiometry    C2H6O2
 Framework group  C1[X(C2H6O2)]
 Deg. of freedom    24
 Full point group                 C1      NOp   1
 Largest Abelian subgroup         C1      NOp   1
 Largest concise Abelian subgroup C1      NOp   1
                         Standard orientation:                         
 ---------------------------------------------------------------------
 Center     Atomic      Atomic             Coordinates (Angstroms)
 Number     Number       Type             X           Y           Z
 ---------------------------------------------------------------------
      1          6           0        0.698702    0.600752   -0.253332
      2          8           0        1.318518   -0.591377    0.204780
      3          6           0       -0.735210    0.571900    0.269190
      4          8           0       -1.436176   -0.560551   -0.200344
      5          1           0        0.705918    0.634577   -1.374237
      6          1           0        1.242797    1.494109    0.151733
      7          1           0        2.172223   -0.650766   -0.237898
      8          1           0       -1.304758    1.454894   -0.123079
      9          1           0       -0.731512    0.583829    1.391016
     10          1           0       -0.924358   -1.337133    0.061832
 ---------------------------------------------------------------------
 Rotational constants (GHZ):     15.3131682      5.6180085      4.6247580
 Standard basis: VSTO-6G (5D, 7F)
 There are    22 symmetry adapted cartesian basis functions of A   symmetry.
 There are    22 symmetry adapted basis functions of A   symmetry.
    22 basis functions,   132 primitive gaussians,    22 cartesian basis functions
    13 alpha electrons       13 beta electrons
       nuclear repulsion energy       103.5036861602 Hartrees.
 Integral buffers will be    131072 words long.
 Regular integral format.
 Two-electron integral symmetry is turned off.
 Do NDO integrals.
 One-electron integrals computed using PRISM.
 NBasis=    22 RedAO= F EigKep=  0.00D+00  NBF=    22
 NBsUse=    22 1.00D-04 EigRej=  0.00D+00 NBFU=    22
 Initial guess from the checkpoint file:  "1-2-ethanediol-opt.chk"
 B after Tr=     0.000000    0.000000    0.000000
         Rot=    1.000000   -0.000832    0.000053    0.000179 Ang=  -0.10 deg.
 Overlap will be assumed to be unity.
 Keep J ints in memory in canonical form, NReq=887849.
 Requested convergence on RMS density matrix=1.00D-08 within 128 cycles.
 Requested convergence on MAX density matrix=1.00D-06.
 Requested convergence on             energy=1.00D-06.
 No special actions if energy rises.
 SCF Done:  E(RAM1) = -0.176125391264     A.U. after   10 cycles
            NFock=  9  Conv=0.52D-08     -V/T= 0.9895
 Calling FoFJK, ICntrl=      2127 FMM=F ISym2X=0 I1Cent= 0 IOpClX= 0 NMat=1 NMatS=1 NMatT=0.
 ***** Axes restored to original set *****
 -------------------------------------------------------------------
 Center     Atomic                   Forces (Hartrees/Bohr)
 Number     Number              X              Y              Z
 -------------------------------------------------------------------
      1        6           0.000145672    0.000055018    0.000043964
      2        8          -0.000129276   -0.000241344   -0.000159583
      3        6           0.000576652    0.000014730    0.000422413
      4        8          -0.000519937    0.000145634   -0.000401555
      5        1           0.000214358    0.000167230   -0.000202871
      6        1          -0.000019780    0.000026529   -0.000018381
      7        1          -0.000105380    0.000014815    0.000101742
      8        1          -0.000019834   -0.000003136   -0.000083521
      9        1          -0.000163619   -0.000318162    0.000155816
     10        1           0.000021145    0.000138685    0.000141977
 -------------------------------------------------------------------
 Cartesian Forces:  Max     0.000576652 RMS     0.000218193

 GradGradGradGradGradGradGradGradGradGradGradGradGradGradGradGradGradGrad
 Berny optimization.
 Using GEDIIS/GDIIS optimizer.
 FormGI is forming the generalized inverse of G from B-inverse, IUseBI=4.
 Internal  Forces:  Max     0.000506135 RMS     0.000164207
 Search for a local minimum.
 Step number   6 out of a maximum of   48 on scan point     1 out of    37
 All quantities printed in internal units (Hartrees-Bohrs-Radians)
 Mixed Optimization -- En-DIIS/RFO-DIIS
 Swapping is turned off.
 Update second derivatives using D2CorX and points    1    2    3    4    5
                                                      6
 DE= -1.06D-05 DEPred=-9.61D-06 R= 1.11D+00
 TightC=F SS=  1.41D+00  RLast= 6.92D-02 DXNew= 8.4853D-01 2.0757D-01
 Trust test= 1.11D+00 RLast= 6.92D-02 DXMaxT set to 5.05D-01
 ITU=  1  1  1  1  1  0
     Eigenvalues ---    0.00264   0.01656   0.01989   0.05385   0.06013
     Eigenvalues ---    0.06158   0.11462   0.11949   0.13331   0.13767
     Eigenvalues ---    0.17774   0.19467   0.22193   0.23676   0.32701
     Eigenvalues ---    0.33650   0.33769   0.34788   0.40100   0.48939
     Eigenvalues ---    0.53416   0.54998   0.622711000.000001000.00000
     Eigenvalues --- 1000.000001000.000001000.000001000.000001000.00000
     Eigenvalues --- 1000.000001000.000001000.000001000.000001000.00000
     Eigenvalues --- 1000.000001000.000001000.00000
 En-DIIS/RFO-DIIS IScMMF=        0 using points:     6    5    4    3
 RFO step:  Lambda=-1.38348600D-06.
 DidBck=F Rises=F RFO-DIIS coefs:    1.22045   -0.16604   -0.15985    0.10544
 Iteration  1 RMS(Cart)=  0.00329616 RMS(Int)=  0.00002597
 Iteration  2 RMS(Cart)=  0.00002512 RMS(Int)=  0.00000054
 Iteration  3 RMS(Cart)=  0.00000000 RMS(Int)=  0.00000054
 Iteration  1 RMS(Cart)=  0.00000015 RMS(Int)=  0.00000015
 Variable       Old X    -DE/DX   Delta X   Delta X   Delta X     New X
                                 (Linear)    (Quad)   (Total)
    R1        2.68262  -0.00015   0.00014  -0.00066  -0.00052   2.68210
    R2        2.88452  -0.00011   0.00005  -0.00012  -0.00007   2.88445
    R3        2.11921   0.00031   0.00037   0.00026   0.00063   2.11985
    R4        2.11970   0.00002   0.00021  -0.00027  -0.00006   2.11964
    R5        1.82072   0.00006   0.00003   0.00005   0.00008   1.82080
    R6        2.66864  -0.00051  -0.00057  -0.00004  -0.00061   2.66803
    R7        2.11947   0.00008   0.00012  -0.00005   0.00008   2.11955
    R8        2.12008   0.00039   0.00016   0.00067   0.00083   2.12091
    R9        1.82608   0.00015  -0.00006   0.00026   0.00020   1.82628
    A1        1.85857  -0.00027  -0.00048  -0.00075  -0.00123   1.85734
    A2        1.92312   0.00021  -0.00004  -0.00065  -0.00069   1.92242
    A3        1.91825  -0.00001   0.00052   0.00053   0.00106   1.91930
    A4        1.92705   0.00001   0.00011  -0.00045  -0.00034   1.92671
    A5        1.92528   0.00004  -0.00016   0.00080   0.00064   1.92592
    A6        1.91113   0.00002   0.00004   0.00049   0.00053   1.91166
    A7        1.86540   0.00005  -0.00011   0.00009  -0.00002   1.86538
    A8        1.94725  -0.00019  -0.00101   0.00025  -0.00076   1.94650
    A9        1.92030   0.00005   0.00050  -0.00010   0.00040   1.92069
   A10        1.91665   0.00008   0.00019  -0.00030  -0.00011   1.91654
   A11        1.83691  -0.00009   0.00004  -0.00004   0.00000   1.83691
   A12        1.92051   0.00018  -0.00007   0.00064   0.00058   1.92109
   A13        1.92094  -0.00004   0.00034  -0.00044  -0.00010   1.92083
   A14        1.86643  -0.00011  -0.00041   0.00009  -0.00033   1.86610
    D1        2.98308   0.00011   0.00672   0.00795   0.01466   2.99775
    D2        0.89289   0.00014   0.00689   0.00929   0.01618   0.90907
    D3       -1.21471  -0.00001   0.00653   0.00876   0.01529  -1.19942
    D4       -1.03696  -0.00030  -0.00000   0.00000  -0.00000  -1.03696
    D5       -3.06900  -0.00011   0.00024  -0.00003   0.00021  -3.06879
    D6        1.09723  -0.00014  -0.00063   0.00078   0.00015   1.09738
    D7        1.05067  -0.00020  -0.00027  -0.00148  -0.00175   1.04892
    D8       -0.98136  -0.00001  -0.00003  -0.00151  -0.00154  -0.98291
    D9       -3.09832  -0.00004  -0.00090  -0.00070  -0.00160  -3.09992
   D10       -3.11778  -0.00014  -0.00026  -0.00063  -0.00089  -3.11867
   D11        1.13337   0.00005  -0.00002  -0.00067  -0.00069   1.13269
   D12       -0.98358   0.00001  -0.00089   0.00014  -0.00075  -0.98433
   D13        0.97857  -0.00001   0.00405  -0.00174   0.00231   0.98088
   D14        3.06077  -0.00010   0.00414  -0.00176   0.00238   3.06316
   D15       -1.15340  -0.00010   0.00453  -0.00198   0.00256  -1.15084
         Item               Value     Threshold  Converged?
 Maximum Force            0.000506     0.000450     NO 
 RMS     Force            0.000146     0.000300     YES
 Maximum Displacement     0.013112     0.001800     NO 
 RMS     Displacement     0.003298     0.001200     NO 
 Predicted change in Energy=-2.297360D-06
 GradGradGradGradGradGradGradGradGradGradGradGradGradGradGradGradGradGrad

                          Input orientation:                          
 ---------------------------------------------------------------------
 Center     Atomic      Atomic             Coordinates (Angstroms)
 Number     Number       Type             X           Y           Z
 ---------------------------------------------------------------------
      1          6           0        1.047463    2.170341    1.627653
      2          8           0        1.678631    2.110376    2.897481
      3          6           0        1.342914    0.842178    0.935879
      4          8           0        2.731314    0.632313    0.788719
      5          1           0        1.463031    3.023533    1.029536
      6          1           0       -0.058604    2.305825    1.755689
      7          1           0        1.609246    2.989295    3.286161
      8          1           0        0.933946    0.853270   -0.108463
      9          1           0        0.885710   -0.000545    1.519337
     10          1           0        3.119649    0.690013    1.671808
 ---------------------------------------------------------------------
                    Distance matrix (angstroms):
                    1          2          3          4          5
     1  C    0.000000
     2  O    1.419307   0.000000
     3  C    1.526387   2.359855   0.000000
     4  O    2.429958   2.782030   1.411862   0.000000
     5  H    1.121774   2.090349   2.186666   2.717438   0.000000
     6  H    1.121666   2.088031   2.186002   3.394012   1.832424
     7  H    1.933116   0.963528   3.194507   3.612703   2.261617
     8  H    2.182123   3.342241   1.121619   2.020962   2.506992
     9  H    2.179597   2.642725   1.122337   2.083402   3.117411
    10  H    2.547013   2.365637   1.929127   0.966426   2.932953
                    6          7          8          9         10
     6  H    0.000000
[...]
           A10        109.93153 110.03051 110.21056 110.39414 110.56470
           A11        110.62313 110.73453 110.80762 110.84347 110.86778
           A12        104.65871 104.49970 104.42706 104.43500 104.51722
           A13        110.08016 109.96570 109.80318 109.66245 109.53413
           A14        106.92400 107.07317 107.18843 107.27858 107.32822
           D1        -179.37390 179.58211 178.36633 177.02877 175.62334
           D2          61.23490  60.07197  58.65606  57.07792  55.43947
           D3         -59.40702 -60.32175 -61.48335 -62.85624 -64.37557
           D4          90.58627 100.58619 110.58618 120.58621 130.58635
           D5         -32.47291 -22.65216 -12.72986  -2.71629   7.35160
           D6        -153.90468-144.03937-134.04627-123.96621-113.81766
           D7        -150.22439-140.20565-130.09332-119.88363-109.61718
           D8          86.71643  96.55600 106.59064 116.81387 127.14807
           D9         -34.71533 -24.83122 -14.72577  -4.43605   5.97881
           D10        -29.24088 -19.34112  -9.32345   0.78777  10.96877
           D11       -152.30005-142.57947-132.63949-122.51473-112.26597
           D12         86.26818  96.03332 106.04410 116.23535 126.56476
           D13        -63.22116 -65.31144 -66.74438 -67.61733 -67.86960
           D14         59.53137  57.58683  56.20256  55.28569  54.92298
           D15        178.06179 175.94723 174.36627 173.30576 172.85053
                          21        22        23        24        25
     Eigenvalues --    -0.17360  -0.17359  -0.17364  -0.17369  -0.17367
           R1           1.41797   1.41756   1.41711   1.41673   1.41645
           R2           1.52939   1.52889   1.52833   1.52782   1.52760
           R3           1.12149   1.12135   1.12139   1.12165   1.12206
           R4           1.12366   1.12381   1.12383   1.12366   1.12336
           R5           0.96391   0.96396   0.96404   0.96410   0.96416
           R6           1.41273   1.41257   1.41244   1.41236   1.41234
           R7           1.12270   1.12251   1.12216   1.12177   1.12137
           R8           1.12207   1.12195   1.12192   1.12203   1.12228
           R9           0.96477   0.96479   0.96478   0.96476   0.96471
           A1         106.75249 106.72178 106.71514 106.72089 106.73333
           A2         110.28715 110.49286 110.64417 110.70915 110.68311
           A3         109.86827 109.81703 109.83652 109.91489 110.01850
           A4         110.73536 110.71560 110.60515 110.42146 110.21016
           A5         110.49388 110.40687 110.33363 110.32690 110.39911
           A6         108.69680 108.68041 108.70005 108.74142 108.79031
           A7         106.76829 106.70415 106.64294 106.59277 106.56264
           A8         111.02003 110.89312 110.76288 110.64940 110.58670
           A9         110.03348 109.98783 109.98575 110.04541 110.14786
           A10        110.67216 110.71955 110.69597 110.62440 110.51526
           A11        110.89432 110.93498 110.98041 111.01584 111.02061
           A12        104.63867 104.77737 104.89931 104.99224 105.03607
           A13        109.46373 109.41862 109.41267 109.40961 109.42524
           A14        107.36416 107.37491 107.37587 107.35686 107.33784
           D1         174.40037 173.55330 173.29993 173.67515 174.57130
           D2          54.03786  53.11673  52.91504  53.47217  54.63106
           D3         -65.76208 -66.75979 -67.09401 -66.68028 -65.63285
           D4         140.58641 150.58646 160.58654 170.58663-179.41350
           D5          17.43916  27.50613  37.53880  47.53016  57.49632
           D6        -103.66914 -93.54646 -83.48958 -73.48706 -63.53664
           D7         -99.33896 -89.11990 -79.00353 -69.02565 -59.16898
           D8         137.51379 147.79977 157.94873 167.91788 177.74084
           D9          16.40549  26.74718  36.92034  46.90066  56.70788
           D10         21.15307  31.28138  41.30248  51.20873  61.03654
           D11       -101.99419 -91.79895 -81.74526 -71.84774 -62.05363
           D12        136.89751 147.14846 157.22635 167.13505 176.91340
           D13        -67.70451 -67.15531 -66.41465 -65.57890 -64.83748
           D14         54.94616  55.37677  56.05564  56.91308  57.74481
           D15        172.87302 173.34999 174.11478 175.04025 175.91834
                          26        27        28        29        30
     Eigenvalues --    -0.17355  -0.17335  -0.17308  -0.17279  -0.17252
           R1           1.41640   1.41653   1.41682   1.41709   1.41730
           R2           1.52766   1.52806   1.52860   1.52915   1.52952
           R3           1.12256   1.12302   1.12336   1.12353   1.12350
           R4           1.12297   1.12263   1.12241   1.12235   1.12247
           R5           0.96417   0.96417   0.96413   0.96408   0.96404
           R6           1.41237   1.41241   1.41247   1.41247   1.41245
           R7           1.12110   1.12092   1.12092   1.12101   1.12124
           R8           1.12267   1.12317   1.12370   1.12423   1.12457
           R9           0.96465   0.96458   0.96452   0.96449   0.96451
           A1         106.73312 106.72437 106.71109 106.72804 106.76957
           A2         110.58286 110.44459 110.30913 110.21903 110.18826
           A3         110.09609 110.10938 110.04152 109.90803 109.73571
           A4         110.02680 109.92591 109.93081 110.03833 110.20669
           A5         110.55242 110.73476 110.90040 110.97707 110.95054
           A6         108.84216 108.89235 108.93585 108.95653 108.97466
           A7         106.55677 106.57830 106.62164 106.67642 106.74260
           A8         110.60101 110.70711 110.89291 111.14343 111.42515
           A9         110.26890 110.36105 110.39994 110.36088 110.23323
           A10        110.40165 110.30376 110.25197 110.24248 110.27092
           A11        110.98428 110.90535 110.79118 110.65763 110.50725
           A12        105.03358 104.97859 104.89369 104.78933 104.70130
           A13        109.43338 109.45733 109.47566 109.50782 109.56675
           A14        107.31832 107.32153 107.33697 107.36997 107.40758
           D1         175.65118 176.57631 177.02190 176.75227 176.00038
           D2          55.98880  57.11783  57.64053  57.28156  56.31981
           D3         -64.32571 -63.17897 -62.58008 -62.82229 -63.67790
           D4        -169.41376-159.41381-149.41388-139.41377-129.41377
           D5          67.44899  77.41247  87.40215  97.42610 107.51262
           D6         -53.59936 -43.66214 -33.68690 -23.67141 -13.59372
           D7         -49.39273 -39.62002 -29.78758 -19.82613  -9.74510
           D8        -172.52998-162.79374-152.97155-142.98626-132.81872
           D9          66.42166  76.13165  85.93940  95.91622 106.07495
           D10         70.85735  80.74408  90.74072 100.84872 111.04686
           D11        -52.27990 -42.42964 -32.44325 -22.31141 -12.02675
           D12       -173.32826-163.50425-153.53230-143.40892-133.13308
           D13        -64.26659 -63.95561 -63.83387 -63.76674 -63.57311
           D14         58.45489  58.90270  59.12432  59.22295  59.34381
           D15        176.61811 177.02241 177.15927 177.16954 177.23541
                          31        32        33        34        35
     Eigenvalues --    -0.17233  -0.17221  -0.17215  -0.17209  -0.17199
           R1           1.41738   1.41728   1.41701   1.41662   1.41614
           R2           1.52955   1.52916   1.52831   1.52734   1.52634
           R3           1.12328   1.12308   1.12301   1.12306   1.12337
           R4           1.12274   1.12302   1.12324   1.12334   1.12329
           R5           0.96402   0.96402   0.96406   0.96417   0.96432
           R6           1.41240   1.41225   1.41198   1.41162   1.41129
           R7           1.12160   1.12198   1.12240   1.12282   1.12325
           R8           1.12468   1.12459   1.12437   1.12404   1.12370
           R9           0.96456   0.96461   0.96466   0.96471   0.96468
           A1         106.83608 106.95354 107.11647 107.28889 107.48621
           A2         110.21641 110.28449 110.33629 110.32478 110.21706
           A3         109.56942 109.45667 109.44805 109.55745 109.79347
           A4         110.38943 110.53584 110.61123 110.61250 110.54045
           A5         110.82228 110.59814 110.31329 110.03556 109.78972
           A6         108.99027 108.99447 108.99790 109.00515 109.00040
           A7         106.79190 106.82652 106.84532 106.81061 106.75324
           A8         111.71497 112.01998 112.35040 112.66705 112.99732
           A9         110.02193 109.75283 109.44983 109.12868 108.82572
           A10        110.31689 110.33655 110.33214 110.34069 110.37687
           A11        110.36137 110.23702 110.13654 110.06446 109.97490
           A12        104.63486 104.58795 104.54626 104.50505 104.47923
           A13        109.66467 109.79530 109.93148 110.05887 110.12561
           A14        107.44222 107.47594 107.50780 107.53906 107.57905
           D1         175.00537 173.98211 173.74464 174.55908 176.73468
           D2          55.04947  53.74036  53.28293  53.99687  56.20154
           D3         -64.88024 -66.16583 -66.65420 -66.01119 -63.88265
           D4        -119.41383-109.41383 -99.41370 -89.41377 -79.41372
           D5         117.64807 127.78820 137.90662 148.01310 158.12200
           D6          -3.47254   6.66722  16.81537  26.96522  37.16283
           D7           0.43075  10.66697  20.87286  30.96591  40.91492
           D8        -122.50735-112.13099-101.80682 -91.60722 -81.54936
           D9         116.37205 126.74803 137.10193 147.34489 157.49147
           D10        121.27943 131.47002 141.54219 151.46348 161.20122
           D11         -1.65867   8.67206  18.86250  28.89035  38.73694
           D12       -122.77928-112.44892-102.22875 -92.15753 -82.22223
           D13        -63.12299 -62.11838 -60.13524 -57.40723 -53.29334
           D14         59.62171  60.40473  62.15629  64.63910  68.52683
           D15        177.51925 178.36843-179.79267-177.21863-173.31072
                          36        37
     Eigenvalues --    -0.17185  -0.17613
           R1           1.41577   1.41940
           R2           1.52546   1.52643
           R3           1.12382   1.12216
           R4           1.12300   1.12148
           R5           0.96447   0.96357
           R6           1.41118   1.41163
           R7           1.12372   1.12174
           R8           1.12337   1.12263
           R9           0.96457   0.96654
           A1         107.63935 106.42391
           A2         110.00135 110.04727
           A3         110.12142 110.08858
           A4         110.44683 110.37072
           A5         109.63364 110.33792
           A6         108.98822 109.53361
           A7         106.69930 106.88561
           A8         113.33571 111.60323
           A9         108.57858 110.03431
           A10        110.48103 109.81643
           A11        109.77126 105.26092
           A12        104.52637 110.01564
           A13        110.09422 110.02479
           A14        107.64601 106.96417
           D1        -179.85606 173.95600
           D2          59.75653  54.36075
           D3         -60.38410 -66.46542
           D4         -69.41374 -59.41352
           D5         168.33318-175.88384
           D6          47.50572  62.86277
           D7          50.69222  59.97120
           D8         -71.56087 -56.49912
           D9         167.61168-177.75251
           D10        170.80420-178.82981
           D11         48.55112  64.69986
           D12        -72.27634 -56.55353
           D13        -46.48974  55.21946
           D14         75.09753 174.55837
           D15       -166.84993 -66.94230
                          Input orientation:                          
 ---------------------------------------------------------------------
 Center     Atomic      Atomic             Coordinates (Angstroms)
 Number     Number       Type             X           Y           Z
 ---------------------------------------------------------------------
      1          6           0        1.682923    2.082185    2.034718
      2          8           0        0.421919    2.593627    1.630998
      3          6           0        2.032333    0.968993    1.050494
      4          8           0        1.059811   -0.054174    1.056429
      5          1           0        1.616512    1.674476    3.078077
      6          1           0        2.457165    2.892661    1.997408
      7          1           0        0.150062    3.229646    2.301853
      8          1           0        2.988257    0.469531    1.358777
      9          1           0        2.136681    1.393951    0.016655
     10          1           0        0.207637    0.365705    0.878393
 ---------------------------------------------------------------------
                    Distance matrix (angstroms):
                    1          2          3          4          5
     1  C    0.000000
     2  O    1.419399   0.000000
     3  C    1.526428   2.360054   0.000000
     4  O    2.430915   2.783503   1.411632   0.000000
     5  H    1.122156   2.089480   2.186711   2.717574   0.000000
     6  H    1.121478   2.089474   2.185778   3.394389   1.832625
     7  H    1.933311   0.963573   3.196779   3.627974   2.274105
     8  H    2.182074   3.342452   1.121736   2.021036   2.507901
     9  H    2.179940   2.643055   1.122632   2.082750   3.117944
    10  H    2.541625   2.361349   1.929531   0.966538   2.921715
                    6          7          8          9         10
     6  H    0.000000
     7  H    2.351377   0.000000
     8  H    2.561536   4.069764   0.000000
     9  H    2.504441   3.540984   1.838757   0.000000
    10  H    3.563436   3.198704   2.823720   2.349701   0.000000
 Stoichiometry    C2H6O2
 Framework group  C1[X(C2H6O2)]
 Deg. of freedom    24
 Full point group                 C1      NOp   1
 Largest Abelian subgroup         C1      NOp   1
 Largest concise Abelian subgroup C1      NOp   1
                         Standard orientation:                         
 ---------------------------------------------------------------------
 Center     Atomic      Atomic             Coordinates (Angstroms)
 Number     Number       Type             X           Y           Z
 ---------------------------------------------------------------------
      1          6           0        0.698439   -0.599877    0.254723
      2          8           0        1.316763    0.593846   -0.200681
      3          6           0       -0.734430   -0.571299   -0.270682
      4          8           0       -1.437704    0.559051    0.198807
      5          1           0        0.702622   -0.631507    1.376426
      6          1           0        1.243379   -1.493665   -0.147641
      7          1           0        2.189576    0.629687    0.205995
      8          1           0       -1.304046   -1.455948    0.118193
      9          1           0       -0.728432   -0.581179   -1.393254
     10          1           0       -0.919627    1.336483   -0.048966
 ---------------------------------------------------------------------
 Rotational constants (GHZ):     15.3391889      5.6173177      4.6249824

 **********************************************************************

            Population analysis using the SCF density.

 **********************************************************************

 Orbital symmetries:
       Occupied  (A) (A) (A) (A) (A) (A) (A) (A) (A) (A) (A) (A)
                 (A)
       Virtual   (A) (A) (A) (A) (A) (A) (A) (A) (A)
 The electronic state is 1-A.
 Alpha  occ. eigenvalues --   -1.43960  -1.35476  -1.09897  -0.85801  -0.69946
 Alpha  occ. eigenvalues --   -0.65101  -0.60406  -0.57706  -0.53376  -0.50053
 Alpha  occ. eigenvalues --   -0.45669  -0.41482  -0.40323
 Alpha virt. eigenvalues --    0.11842   0.13218   0.14011   0.14182   0.15114
 Alpha virt. eigenvalues --    0.16594   0.17288   0.21822   0.23719
          Condensed to atoms (all electrons):
               1          2          3          4          5          6
     1  C    4.063402   0.000000   0.000000   0.000000   0.000000   0.000000
     2  O    0.000000   6.339298   0.000000   0.000000   0.000000   0.000000
     3  C    0.000000   0.000000   4.017312   0.000000   0.000000   0.000000
     4  O    0.000000   0.000000   0.000000   6.327406   0.000000   0.000000
     5  H    0.000000   0.000000   0.000000   0.000000   0.924810   0.000000
     6  H    0.000000   0.000000   0.000000   0.000000   0.000000   0.929637
     7  H    0.000000   0.000000   0.000000   0.000000   0.000000   0.000000
     8  H    0.000000   0.000000   0.000000   0.000000   0.000000   0.000000
     9  H    0.000000   0.000000   0.000000   0.000000   0.000000   0.000000
    10  H    0.000000   0.000000   0.000000   0.000000   0.000000   0.000000
               7          8          9         10
     1  C    0.000000   0.000000   0.000000   0.000000
     2  O    0.000000   0.000000   0.000000   0.000000
     3  C    0.000000   0.000000   0.000000   0.000000
     4  O    0.000000   0.000000   0.000000   0.000000
     5  H    0.000000   0.000000   0.000000   0.000000
     6  H    0.000000   0.000000   0.000000   0.000000
     7  H    0.793778   0.000000   0.000000   0.000000
     8  H    0.000000   0.893890   0.000000   0.000000
     9  H    0.000000   0.000000   0.925024   0.000000
    10  H    0.000000   0.000000   0.000000   0.785444
 Mulliken charges:
               1
     1  C   -0.063402
     2  O   -0.339298
     3  C   -0.017312
     4  O   -0.327406
     5  H    0.075190
     6  H    0.070363
     7  H    0.206222
     8  H    0.106110
     9  H    0.074976
    10  H    0.214556
 Sum of Mulliken charges =  -0.00000
 Mulliken charges with hydrogens summed into heavy atoms:
               1
     1  C    0.082151
     2  O   -0.133076
     3  C    0.163774
     4  O   -0.112849
 Charge=             -0.0000 electrons
 Dipole moment (field-independent basis, Debye):
    X=              1.9516    Y=             -1.2125    Z=              0.2451  Tot=              2.3106
 N-N= 1.035092171465D+02 E-N=-1.713813073410D+02  KE=-1.680545496708D+01
 1\1\GINC-GTX1080DELTA\Scan\RAM1\ZDO\C2H6O2\MVEROT\18-Apr-2022\0\\#n AM
 1 Opt=modredundant\\Optimisation de geometrie\\0,1\C,1.6829227894,2.08
 21848436,2.0347175381\O,0.4219189377,2.5936271801,1.6309982122\C,2.032
 3329569,0.9689926571,1.050493605\O,1.0598107582,-0.0541740943,1.056428
 531\H,1.6165123446,1.6744759666,3.0780765419\H,2.4571649783,2.89266058
 17,1.9974080121\H,0.1500615193,3.2296455533,2.301853185\H,2.9882572974
 ,0.4695308877,1.3587766412\H,2.1366812449,1.3939513125,0.0166545141\H,
 0.2076371735,0.3657051118,0.8783932194\\Version=AM64L-G09RevD.01\State
 =1-A\HF=-0.1761344,-0.17579,-0.1751015,-0.1742043,-0.1732933,-0.172551
 7,-0.1720744,-0.1718648,-0.1718826,-0.1743141,-0.1751965,-0.1758496,-0
 .1761505,-0.1761041,-0.1758003,-0.1753496,-0.1748482,-0.1743722,-0.173
 9822,-0.1737207,-0.1735994,-0.1735924,-0.173644,-0.1736874,-0.1736669,
 -0.1735526,-0.1733461,-0.1730756,-0.1727856,-0.1725243,-0.1723292,-0.1
 722117,-0.1721489,-0.1720918,-0.1719938,-0.1718508,-0.1761344\RMSD=3.5
 81e-09,9.271e-09,1.934e-09,3.238e-09,6.730e-09,3.623e-09,2.355e-09,3.8
 97e-09,2.368e-09,2.974e-09,1.507e-09,7.547e-09,4.613e-09,5.228e-09,7.3
 28e-09,6.937e-09,6.302e-09,6.949e-09,7.129e-09,7.152e-09,6.060e-09,5.0
 13e-09,4.492e-09,3.985e-09,4.042e-09,4.667e-09,4.099e-09,3.269e-09,6.5
 71e-09,9.540e-09,6.561e-09,6.845e-09,1.495e-09,9.920e-09,5.738e-09,3.4
 49e-09,6.765e-09\PG=C01 [X(C2H6O2)]\\@


 THERE IS NO CURE FOR BIRTH AND DEATH SAVE TO ENJOY THE INTERVAL.

                               -- GEORGE SANTAYANA
 Job cpu time:       0 days  0 hours  1 minutes 31.4 seconds.
 File lengths (MBytes):  RWF=     72 Int=      0 D2E=      0 Chk=      4 Scr=      2
 Normal termination of Gaussian 09 at Mon Apr 18 00:02:42 2022.
