 Entering Gaussian System, Link 0=g09
 Input=/scratch/mverot/anthraquinone-opt-zindo/anthraquinone-opt-zindo.com
 Output=/scratch/mverot/anthraquinone-opt-zindo/anthraquinone-opt-zindo.log
 Initial command:
 /opt/g09/l1.exe "/scratch/mverot/anthraquinone-opt-zindo/Gau-2758826.inp" -scrdir="/scratch/mverot/anthraquinone-opt-zindo/"
 Entering Link 1 = /opt/g09/l1.exe PID=   2758829.
  
 Copyright (c) 1988,1990,1992,1993,1995,1998,2003,2009,2013,
            Gaussian, Inc.  All Rights Reserved.
  
 This is part of the Gaussian(R) 09 program.  It is based on
 the Gaussian(R) 03 system (copyright 2003, Gaussian, Inc.),
 the Gaussian(R) 98 system (copyright 1998, Gaussian, Inc.),
 the Gaussian(R) 94 system (copyright 1995, Gaussian, Inc.),
 the Gaussian 92(TM) system (copyright 1992, Gaussian, Inc.),
 the Gaussian 90(TM) system (copyright 1990, Gaussian, Inc.),
 the Gaussian 88(TM) system (copyright 1988, Gaussian, Inc.),
 the Gaussian 86(TM) system (copyright 1986, Carnegie Mellon
 University), and the Gaussian 82(TM) system (copyright 1983,
 Carnegie Mellon University). Gaussian is a federally registered
 trademark of Gaussian, Inc.
  
 This software contains proprietary and confidential information,
 including trade secrets, belonging to Gaussian, Inc.
  
 This software is provided under written license and may be
 used, copied, transmitted, or stored only in accord with that
 written license.
  
 The following legend is applicable only to US Government
 contracts under FAR:
  
                    RESTRICTED RIGHTS LEGEND
  
 Use, reproduction and disclosure by the US Government is
 subject to restrictions as set forth in subparagraphs (a)
 and (c) of the Commercial Computer Software - Restricted
 Rights clause in FAR 52.227-19.
  
 Gaussian, Inc.
 340 Quinnipiac St., Bldg. 40, Wallingford CT 06492
  
  
 ---------------------------------------------------------------
 Warning -- This program may not be used in any manner that
 competes with the business of Gaussian, Inc. or will provide
 assistance to any competitor of Gaussian, Inc.  The licensee
 of this program is prohibited from giving any competitor of
 Gaussian, Inc. access to this program.  By using this program,
 the user acknowledges that Gaussian, Inc. is engaged in the
 business of creating and licensing software in the field of
 computational chemistry and represents and warrants to the
 licensee that it is not a competitor of Gaussian, Inc. and that
 it will not use this program in any manner prohibited above.
 ---------------------------------------------------------------
  

 Cite this work as:
 Gaussian 09, Revision D.01,
 M. J. Frisch, G. W. Trucks, H. B. Schlegel, G. E. Scuseria, 
 M. A. Robb, J. R. Cheeseman, G. Scalmani, V. Barone, B. Mennucci, 
 G. A. Petersson, H. Nakatsuji, M. Caricato, X. Li, H. P. Hratchian, 
 A. F. Izmaylov, J. Bloino, G. Zheng, J. L. Sonnenberg, M. Hada, 
 M. Ehara, K. Toyota, R. Fukuda, J. Hasegawa, M. Ishida, T. Nakajima, 
 Y. Honda, O. Kitao, H. Nakai, T. Vreven, J. A. Montgomery, Jr., 
 J. E. Peralta, F. Ogliaro, M. Bearpark, J. J. Heyd, E. Brothers, 
 K. N. Kudin, V. N. Staroverov, T. Keith, R. Kobayashi, J. Normand, 
 K. Raghavachari, A. Rendell, J. C. Burant, S. S. Iyengar, J. Tomasi, 
 M. Cossi, N. Rega, J. M. Millam, M. Klene, J. E. Knox, J. B. Cross, 
 V. Bakken, C. Adamo, J. Jaramillo, R. Gomperts, R. E. Stratmann, 
 O. Yazyev, A. J. Austin, R. Cammi, C. Pomelli, J. W. Ochterski, 
 R. L. Martin, K. Morokuma, V. G. Zakrzewski, G. A. Voth, 
 P. Salvador, J. J. Dannenberg, S. Dapprich, A. D. Daniels, 
 O. Farkas, J. B. Foresman, J. V. Ortiz, J. Cioslowski, 
 and D. J. Fox, Gaussian, Inc., Wallingford CT, 2013.
 
 ******************************************
 Gaussian 09:  AM64L-G09RevD.01 24-Apr-2013
                11-Apr-2022 
 ******************************************
 %chk=anthraquinone-opt-zindo
 ------------------------------------
 #n ZINDO(NSTATE=10) pop=full gfinput
 ------------------------------------
 1/38=1/1;
 2/12=2,17=6,18=5,40=1/2;
 3/5=2,16=1,24=10,25=1,41=400000/1,2,8,3;
 4/5=3,35=1/1;
 5/5=2,35=1,38=5/2;
 8/6=1,108=10/1;
 9/41=10,42=1,49=10/14;
 6/7=3/1;
 99/5=1,9=1/99;
 ----------
 UV-spectra
 ----------
 Symbolic Z-matrix:
 Charge =  0 Multiplicity = 1
 C                    -0.67068  -1.26162   0.10404 
 C                    -2.07423  -0.81366  -0.01648 
 C                     0.37326  -0.21509   0.09336 
 O                    -0.38179  -2.46239   0.2104 
 C                    -1.35767   1.59345  -0.1468 
 C                     0.04588   1.14548  -0.02637 
 O                    -1.64656   2.7942   -0.25327 
 C                    -2.4016    0.54691  -0.13621 
 C                    -3.0938   -1.77281  -0.01051 
 C                     1.06546   2.10462  -0.03243 
 C                    -3.74376   0.92845  -0.24827 
 C                     1.71542  -0.59664   0.20533 
 C                    -4.42893  -1.38387  -0.12265 
 C                    -4.75373  -0.03402  -0.24146 
 C                     2.72539   0.36582   0.19844 
 C                     2.4006    1.71568   0.07963 
 H                    -2.82586  -2.83851   0.08395 
 H                     0.79752   3.17032  -0.12689 
 H                    -3.98997   1.99947  -0.34175 
 H                     1.96162  -1.66766   0.29882 
 H                    -5.22308  -2.14578  -0.11694 
 H                    -5.80588   0.27634  -0.3301 
 H                     3.77755   0.05546   0.28701 
 H                     3.19475   2.47758   0.07385 
 
                          Input orientation:                          
 ---------------------------------------------------------------------
 Center     Atomic      Atomic             Coordinates (Angstroms)
 Number     Number       Type             X           Y           Z
 ---------------------------------------------------------------------
      1          6           0       -0.670681   -1.261624    0.104045
      2          6           0       -2.074231   -0.813661   -0.016481
      3          6           0        0.373258   -0.215092    0.093363
      4          8           0       -0.381790   -2.462388    0.210397
      5          6           0       -1.357673    1.593450   -0.146803
      6          6           0        0.045884    1.145478   -0.026369
      7          8           0       -1.646558    2.794204   -0.253272
      8          6           0       -2.401605    0.546908   -0.136213
      9          6           0       -3.093799   -1.772808   -0.010507
     10          6           0        1.065458    2.104617   -0.032430
     11          6           0       -3.743762    0.928451   -0.248267
     12          6           0        1.715420   -0.596642    0.205331
     13          6           0       -4.428934   -1.383874   -0.122649
     14          6           0       -4.753729   -0.034023   -0.241460
     15          6           0        2.725392    0.365824    0.198438
     16          6           0        2.400598    1.715675    0.079626
     17          1           0       -2.825865   -2.838508    0.083953
     18          1           0        0.797525    3.170318   -0.126889
     19          1           0       -3.989965    1.999467   -0.341748
     20          1           0        1.961621   -1.667659    0.298815
     21          1           0       -5.223081   -2.145781   -0.116944
     22          1           0       -5.805882    0.276337   -0.330097
     23          1           0        3.777548    0.055457    0.287008
     24          1           0        3.194750    2.477576    0.073854
 ---------------------------------------------------------------------
                    Distance matrix (angstroms):
                    1          2          3          4          5
     1  C    0.000000
     2  C    1.478225   0.000000
     3  C    1.478225   2.522013   0.000000
     4  O    1.239598   2.373632   2.373632   0.000000
     5  C    2.947258   2.514880   2.514881   4.186855   0.000000
     6  C    2.514878   2.886730   1.404514   3.640831   1.478227
     7  O    4.186855   3.640833   3.640835   5.426452   1.239597
     8  C    2.514877   1.404513   2.886730   3.640831   1.478227
     9  C    2.479099   1.399827   3.802335   2.807011   3.790039
    10  C    3.790036   4.286519   2.424049   4.796980   2.479100
    11  C    3.790037   2.424049   4.286520   4.796980   2.479101
    12  C    2.479100   3.802335   1.399828   2.807013   3.790040
    13  C    3.767068   2.425086   4.947096   4.201605   4.277579
    14  C    4.277577   2.799672   5.141098   5.021452   3.767071
    15  C    3.767069   4.947096   2.425086   4.201607   4.277579
    16  C    4.277576   5.141097   2.799672   5.021453   3.767070
    17  H    2.670541   2.162186   4.137244   2.476077   4.674515
    18  H    4.674512   4.912358   3.418993   5.764713   2.670541
    19  H    4.674515   3.418995   4.912363   5.764715   2.670546
    20  H    2.670546   4.137249   2.162189   2.476083   4.674518
    21  H    4.642727   3.420511   5.923748   4.862663   5.378115
    22  H    5.378112   3.900214   6.213098   6.100288   4.642730
    23  H    4.642727   5.923748   3.420510   4.862664   5.378114
    24  H    5.378111   6.213096   3.900213   6.100289   4.642728
                    6          7          8          9         10
     6  C    0.000000
     7  O    2.373635   0.000000
     8  C    2.522013   2.373634   0.000000
     9  C    4.286519   4.796982   2.424049   0.000000
    10  C    1.399827   2.807015   3.802335   5.686327   0.000000
    11  C    3.802336   2.807014   1.399828   2.788508   4.955658
    12  C    2.424050   4.796984   4.286520   4.955657   2.788509
    13  C    5.141098   5.021456   2.799673   1.395146   6.508921
    14  C    4.947097   4.201610   2.425087   2.414970   6.203258
    15  C    2.799672   5.021457   5.141097   6.203256   2.414971
    16  C    2.425086   4.201609   4.947096   6.508920   1.395146
    17  H    4.912357   5.764715   3.418993   1.102919   6.292092
    18  H    2.162186   2.476081   4.137245   6.292093   1.102919
    19  H    4.137250   2.476084   2.162189   3.891386   5.065968
    20  H    3.418996   5.764719   4.912362   5.065966   3.891387
    21  H    6.213097   6.100292   3.900214   2.164320   7.590701
    22  H    5.923750   4.862667   3.420512   3.414165   7.116636
    23  H    3.900214   6.100293   6.213097   7.116634   3.414166
    24  H    3.420510   4.862667   5.923749   7.590700   2.164320
                   11         12         13         14         15
    11  C    0.000000
    12  C    5.686329   0.000000
    13  C    2.414971   6.203257   0.000000
    14  C    1.395147   6.508921   1.393451   0.000000
    15  C    6.508921   1.395146   7.372172   7.502709   0.000000
    16  C    6.203257   2.414971   7.502708   7.372174   1.393452
    17  H    3.891386   5.065962   2.174506   3.418727   6.410718
    18  H    5.065964   3.891387   6.932284   6.410722   3.418728
    19  H    1.102919   6.292098   3.418727   2.174506   6.932288
    20  H    6.292097   1.102919   6.410723   6.932287   2.174505
    21  H    3.414166   7.116635   1.100547   2.166868   8.341813
    22  H    2.164321   7.590702   2.166869   1.100547   8.548099
    23  H    7.590702   2.164319   8.341813   8.548098   1.100547
    24  H    7.116636   3.414165   8.548098   8.341815   2.166868
                   16         17         18         19         20
    16  C    0.000000
    17  H    6.932281   0.000000
    18  H    2.174506   7.019929   0.000000
    19  H    6.410725   4.994232   4.933267   0.000000
    20  H    3.418727   4.933263   4.994233   7.019937   0.000000
    21  H    8.548097   2.503373   8.031731   4.330611   7.212586
    22  H    8.341815   4.330612   7.212586   2.503370   8.031734
    23  H    2.166870   7.212581   4.330613   8.031736   2.503369
    24  H    1.100547   8.031728   2.503373   7.212590   4.330610
                   21         22         23         24
    21  H    0.000000
    22  H    2.500350   0.000000
    23  H    9.274694   9.605818   0.000000
    24  H    9.605817   9.274697   2.500350   0.000000
 Stoichiometry    C14H8O2
 Framework group  C1[X(C14H8O2)]
 Deg. of freedom    66
 Full point group                 C1      NOp   1
 Largest Abelian subgroup         C1      NOp   1
 Largest concise Abelian subgroup C1      NOp   1
                         Standard orientation:                         
 ---------------------------------------------------------------------
 Center     Atomic      Atomic             Coordinates (Angstroms)
 Number     Number       Type             X           Y           Z
 ---------------------------------------------------------------------
      1          6           0       -0.000000   -1.473627    0.000247
      2          6           0        1.261006   -0.702256    0.000028
      3          6           0       -1.261007   -0.702257    0.000027
      4          8           0        0.000000   -2.713225   -0.000331
      5          6           0       -0.000000    1.473631   -0.000403
      6          6           0       -1.261007    0.702257   -0.000091
      7          8           0        0.000001    2.713228    0.000293
      8          6           0        1.261007    0.702257   -0.000090
      9          6           0        2.477828   -1.394254    0.000106
     10          6           0       -2.477829    1.394254   -0.000082
     11          6           0        2.477829    1.394254   -0.000083
     12          6           0       -2.477829   -1.394255    0.000106
     13          6           0        3.686086   -0.696727    0.000103
     14          6           0        3.686087    0.696724    0.000008
     15          6           0       -3.686086   -0.696726    0.000102
     16          6           0       -3.686086    0.696725    0.000008
     17          1           0        2.466629   -2.497116    0.000243
     18          1           0       -2.466631    2.497116   -0.000220
     19          1           0        2.466636    2.497116   -0.000224
     20          1           0       -2.466634   -2.497117    0.000244
     21          1           0        4.637347   -1.250177    0.000193
     22          1           0        4.637349    1.250172   -0.000014
     23          1           0       -4.637347   -1.250176    0.000190
     24          1           0       -4.637348    1.250174   -0.000015
 ---------------------------------------------------------------------
 Rotational constants (GHZ):      1.1002427      0.4454888      0.3170964
 Standard basis: VSTO-6G (5D, 7F)
 AO basis set in the form of general basis input (Overlap normalization):
      1 0
 S   6 1.00       0.000000000000
      0.7310560386D+02 -0.4151277819D-02
      0.1340682447D+02 -0.2067024148D-01
      0.3767606913D+01 -0.5150303337D-01
      0.5387761534D+00  0.3346271174D+00
      0.2445297546D+00  0.5621061301D+00
      0.1166148582D+00  0.1712994697D+00
 P   6 1.00       0.000000000000
      0.1549594249D+02  0.7924233646D-02
      0.4041026682D+01  0.5144104825D-01
      0.1445917850D+01  0.1898400060D+00
      0.6044212998D+00  0.4049863191D+00
      0.2763825918D+00  0.4012362861D+00
      0.1306639377D+00  0.1051855189D+00
 ****
      2 0
 S   6 1.00       0.000000000000
      0.7310560386D+02 -0.4151277819D-02
      0.1340682447D+02 -0.2067024148D-01
      0.3767606913D+01 -0.5150303337D-01
      0.5387761534D+00  0.3346271174D+00
      0.2445297546D+00  0.5621061301D+00
      0.1166148582D+00  0.1712994697D+00
 P   6 1.00       0.000000000000
      0.1549594249D+02  0.7924233646D-02
      0.4041026682D+01  0.5144104825D-01
      0.1445917850D+01  0.1898400060D+00
      0.6044212998D+00  0.4049863191D+00
      0.2763825918D+00  0.4012362861D+00
      0.1306639377D+00  0.1051855189D+00
 ****
      3 0
 S   6 1.00       0.000000000000
      0.7310560386D+02 -0.4151277819D-02
      0.1340682447D+02 -0.2067024148D-01
      0.3767606913D+01 -0.5150303337D-01
      0.5387761534D+00  0.3346271174D+00
      0.2445297546D+00  0.5621061301D+00
      0.1166148582D+00  0.1712994697D+00
 P   6 1.00       0.000000000000
      0.1549594249D+02  0.7924233646D-02
      0.4041026682D+01  0.5144104825D-01
      0.1445917850D+01  0.1898400060D+00
      0.6044212998D+00  0.4049863191D+00
      0.2763825918D+00  0.4012362861D+00
      0.1306639377D+00  0.1051855189D+00
 ****
      4 0
 S   6 1.00       0.000000000000
      0.1432869836D+03 -0.4151277819D-02
      0.2627737596D+02 -0.2067024148D-01
      0.7384509550D+01 -0.5150303337D-01
      0.1056001261D+01  0.3346271174D+00
      0.4792783190D+00  0.5621061301D+00
      0.2285651220D+00  0.1712994697D+00
 P   6 1.00       0.000000000000
      0.3037204728D+02  0.7924233646D-02
      0.7920412296D+01  0.5144104825D-01
      0.2833998986D+01  0.1898400060D+00
      0.1184665748D+01  0.4049863191D+00
      0.5417098800D+00  0.4012362861D+00
      0.2561013179D+00  0.1051855189D+00
 ****
      5 0
 S   6 1.00       0.000000000000
      0.7310560386D+02 -0.4151277819D-02
      0.1340682447D+02 -0.2067024148D-01
      0.3767606913D+01 -0.5150303337D-01
      0.5387761534D+00  0.3346271174D+00
      0.2445297546D+00  0.5621061301D+00
      0.1166148582D+00  0.1712994697D+00
 P   6 1.00       0.000000000000
      0.1549594249D+02  0.7924233646D-02
      0.4041026682D+01  0.5144104825D-01
      0.1445917850D+01  0.1898400060D+00
      0.6044212998D+00  0.4049863191D+00
      0.2763825918D+00  0.4012362861D+00
      0.1306639377D+00  0.1051855189D+00
 ****
      6 0
 S   6 1.00       0.000000000000
      0.7310560386D+02 -0.4151277819D-02
      0.1340682447D+02 -0.2067024148D-01
      0.3767606913D+01 -0.5150303337D-01
      0.5387761534D+00  0.3346271174D+00
      0.2445297546D+00  0.5621061301D+00
      0.1166148582D+00  0.1712994697D+00
 P   6 1.00       0.000000000000
      0.1549594249D+02  0.7924233646D-02
      0.4041026682D+01  0.5144104825D-01
      0.1445917850D+01  0.1898400060D+00
      0.6044212998D+00  0.4049863191D+00
      0.2763825918D+00  0.4012362861D+00
      0.1306639377D+00  0.1051855189D+00
 ****
      7 0
 S   6 1.00       0.000000000000
      0.1432869836D+03 -0.4151277819D-02
      0.2627737596D+02 -0.2067024148D-01
      0.7384509550D+01 -0.5150303337D-01
      0.1056001261D+01  0.3346271174D+00
      0.4792783190D+00  0.5621061301D+00
      0.2285651220D+00  0.1712994697D+00
 P   6 1.00       0.000000000000
      0.3037204728D+02  0.7924233646D-02
      0.7920412296D+01  0.5144104825D-01
      0.2833998986D+01  0.1898400060D+00
      0.1184665748D+01  0.4049863191D+00
      0.5417098800D+00  0.4012362861D+00
      0.2561013179D+00  0.1051855189D+00
 ****
      8 0
 S   6 1.00       0.000000000000
      0.7310560386D+02 -0.4151277819D-02
      0.1340682447D+02 -0.2067024148D-01
      0.3767606913D+01 -0.5150303337D-01
      0.5387761534D+00  0.3346271174D+00
      0.2445297546D+00  0.5621061301D+00
      0.1166148582D+00  0.1712994697D+00
 P   6 1.00       0.000000000000
      0.1549594249D+02  0.7924233646D-02
      0.4041026682D+01  0.5144104825D-01
      0.1445917850D+01  0.1898400060D+00
      0.6044212998D+00  0.4049863191D+00
      0.2763825918D+00  0.4012362861D+00
      0.1306639377D+00  0.1051855189D+00
 ****
      9 0
 S   6 1.00       0.000000000000
      0.7310560386D+02 -0.4151277819D-02
      0.1340682447D+02 -0.2067024148D-01
      0.3767606913D+01 -0.5150303337D-01
      0.5387761534D+00  0.3346271174D+00
      0.2445297546D+00  0.5621061301D+00
      0.1166148582D+00  0.1712994697D+00
 P   6 1.00       0.000000000000
      0.1549594249D+02  0.7924233646D-02
      0.4041026682D+01  0.5144104825D-01
      0.1445917850D+01  0.1898400060D+00
      0.6044212998D+00  0.4049863191D+00
      0.2763825918D+00  0.4012362861D+00
      0.1306639377D+00  0.1051855189D+00
 ****
     10 0
 S   6 1.00       0.000000000000
      0.7310560386D+02 -0.4151277819D-02
      0.1340682447D+02 -0.2067024148D-01
      0.3767606913D+01 -0.5150303337D-01
      0.5387761534D+00  0.3346271174D+00
      0.2445297546D+00  0.5621061301D+00
      0.1166148582D+00  0.1712994697D+00
 P   6 1.00       0.000000000000
      0.1549594249D+02  0.7924233646D-02
      0.4041026682D+01  0.5144104825D-01
      0.1445917850D+01  0.1898400060D+00
      0.6044212998D+00  0.4049863191D+00
      0.2763825918D+00  0.4012362861D+00
      0.1306639377D+00  0.1051855189D+00
 ****
     11 0
 S   6 1.00       0.000000000000
      0.7310560386D+02 -0.4151277819D-02
      0.1340682447D+02 -0.2067024148D-01
      0.3767606913D+01 -0.5150303337D-01
      0.5387761534D+00  0.3346271174D+00
      0.2445297546D+00  0.5621061301D+00
      0.1166148582D+00  0.1712994697D+00
 P   6 1.00       0.000000000000
      0.1549594249D+02  0.7924233646D-02
      0.4041026682D+01  0.5144104825D-01
      0.1445917850D+01  0.1898400060D+00
      0.6044212998D+00  0.4049863191D+00
      0.2763825918D+00  0.4012362861D+00
      0.1306639377D+00  0.1051855189D+00
 ****
     12 0
 S   6 1.00       0.000000000000
      0.7310560386D+02 -0.4151277819D-02
      0.1340682447D+02 -0.2067024148D-01
      0.3767606913D+01 -0.5150303337D-01
      0.5387761534D+00  0.3346271174D+00
      0.2445297546D+00  0.5621061301D+00
      0.1166148582D+00  0.1712994697D+00
 P   6 1.00       0.000000000000
      0.1549594249D+02  0.7924233646D-02
      0.4041026682D+01  0.5144104825D-01
      0.1445917850D+01  0.1898400060D+00
      0.6044212998D+00  0.4049863191D+00
      0.2763825918D+00  0.4012362861D+00
      0.1306639377D+00  0.1051855189D+00
 ****
     13 0
 S   6 1.00       0.000000000000
      0.7310560386D+02 -0.4151277819D-02
      0.1340682447D+02 -0.2067024148D-01
      0.3767606913D+01 -0.5150303337D-01
      0.5387761534D+00  0.3346271174D+00
      0.2445297546D+00  0.5621061301D+00
      0.1166148582D+00  0.1712994697D+00
 P   6 1.00       0.000000000000
      0.1549594249D+02  0.7924233646D-02
      0.4041026682D+01  0.5144104825D-01
      0.1445917850D+01  0.1898400060D+00
      0.6044212998D+00  0.4049863191D+00
      0.2763825918D+00  0.4012362861D+00
      0.1306639377D+00  0.1051855189D+00
 ****
     14 0
 S   6 1.00       0.000000000000
      0.7310560386D+02 -0.4151277819D-02
      0.1340682447D+02 -0.2067024148D-01
      0.3767606913D+01 -0.5150303337D-01
      0.5387761534D+00  0.3346271174D+00
      0.2445297546D+00  0.5621061301D+00
      0.1166148582D+00  0.1712994697D+00
 P   6 1.00       0.000000000000
      0.1549594249D+02  0.7924233646D-02
      0.4041026682D+01  0.5144104825D-01
      0.1445917850D+01  0.1898400060D+00
      0.6044212998D+00  0.4049863191D+00
      0.2763825918D+00  0.4012362861D+00
      0.1306639377D+00  0.1051855189D+00
 ****
     15 0
 S   6 1.00       0.000000000000
      0.7310560386D+02 -0.4151277819D-02
      0.1340682447D+02 -0.2067024148D-01
      0.3767606913D+01 -0.5150303337D-01
      0.5387761534D+00  0.3346271174D+00
      0.2445297546D+00  0.5621061301D+00
      0.1166148582D+00  0.1712994697D+00
 P   6 1.00       0.000000000000
      0.1549594249D+02  0.7924233646D-02
      0.4041026682D+01  0.5144104825D-01
      0.1445917850D+01  0.1898400060D+00
      0.6044212998D+00  0.4049863191D+00
      0.2763825918D+00  0.4012362861D+00
      0.1306639377D+00  0.1051855189D+00
 ****
     16 0
 S   6 1.00       0.000000000000
      0.7310560386D+02 -0.4151277819D-02
      0.1340682447D+02 -0.2067024148D-01
      0.3767606913D+01 -0.5150303337D-01
      0.5387761534D+00  0.3346271174D+00
      0.2445297546D+00  0.5621061301D+00
      0.1166148582D+00  0.1712994697D+00
 P   6 1.00       0.000000000000
      0.1549594249D+02  0.7924233646D-02
      0.4041026682D+01  0.5144104825D-01
      0.1445917850D+01  0.1898400060D+00
      0.6044212998D+00  0.4049863191D+00
      0.2763825918D+00  0.4012362861D+00
      0.1306639377D+00  0.1051855189D+00
 ****
     17 0
 S   6 1.00       0.000000000000
      0.3326836535D+02  0.9163596281D-02
      0.6099718369D+01  0.4936149294D-01
      0.1706481387D+01  0.1685383049D+00
      0.5862224134D+00  0.3705627997D+00
      0.2276473177D+00  0.4164915298D+00
      0.9375773694D-01  0.1303340841D+00
 ****
     18 0
 S   6 1.00       0.000000000000
      0.3326836535D+02  0.9163596281D-02
      0.6099718369D+01  0.4936149294D-01
      0.1706481387D+01  0.1685383049D+00
      0.5862224134D+00  0.3705627997D+00
      0.2276473177D+00  0.4164915298D+00
      0.9375773694D-01  0.1303340841D+00
 ****
     19 0
 S   6 1.00       0.000000000000
      0.3326836535D+02  0.9163596281D-02
      0.6099718369D+01  0.4936149294D-01
      0.1706481387D+01  0.1685383049D+00
      0.5862224134D+00  0.3705627997D+00
      0.2276473177D+00  0.4164915298D+00
      0.9375773694D-01  0.1303340841D+00
 ****
     20 0
 S   6 1.00       0.000000000000
      0.3326836535D+02  0.9163596281D-02
      0.6099718369D+01  0.4936149294D-01
      0.1706481387D+01  0.1685383049D+00
      0.5862224134D+00  0.3705627997D+00
      0.2276473177D+00  0.4164915298D+00
      0.9375773694D-01  0.1303340841D+00
 ****
     21 0
 S   6 1.00       0.000000000000
      0.3326836535D+02  0.9163596281D-02
      0.6099718369D+01  0.4936149294D-01
      0.1706481387D+01  0.1685383049D+00
      0.5862224134D+00  0.3705627997D+00
      0.2276473177D+00  0.4164915298D+00
      0.9375773694D-01  0.1303340841D+00
 ****
     22 0
 S   6 1.00       0.000000000000
      0.3326836535D+02  0.9163596281D-02
      0.6099718369D+01  0.4936149294D-01
      0.1706481387D+01  0.1685383049D+00
      0.5862224134D+00  0.3705627997D+00
      0.2276473177D+00  0.4164915298D+00
      0.9375773694D-01  0.1303340841D+00
 ****
     23 0
 S   6 1.00       0.000000000000
      0.3326836535D+02  0.9163596281D-02
      0.6099718369D+01  0.4936149294D-01
      0.1706481387D+01  0.1685383049D+00
      0.5862224134D+00  0.3705627997D+00
      0.2276473177D+00  0.4164915298D+00
      0.9375773694D-01  0.1303340841D+00
 ****
     24 0
 S   6 1.00       0.000000000000
      0.3326836535D+02  0.9163596281D-02
      0.6099718369D+01  0.4936149294D-01
      0.1706481387D+01  0.1685383049D+00
      0.5862224134D+00  0.3705627997D+00
      0.2276473177D+00  0.4164915298D+00
      0.9375773694D-01  0.1303340841D+00
 ****

 There are    72 symmetry adapted cartesian basis functions of A   symmetry.
 There are    72 symmetry adapted basis functions of A   symmetry.
    72 basis functions,   432 primitive gaussians,    72 cartesian basis functions
    38 alpha electrons       38 beta electrons
       nuclear repulsion energy       477.5238923662 Hartrees.
 Integral buffers will be    131072 words long.
 Regular integral format.
 Two-electron integral symmetry is turned off.
 Do NDO integrals.
 One-electron integrals computed using PRISM.
 Generate ZINDO/S integrals.
 NDO Nuclear repulsion=   361.703529275156 Hartrees.
 NBasis=    72 RedAO= F EigKep=  0.00D+00  NBF=    72
 NBsUse=    72 1.00D-04 EigRej=  0.00D+00 NBFU=    72
 DipDrv:  will hold  3 matrices at once.
 Simple Huckel Guess.
 Overlap will be assumed to be unity.
 Requested convergence on RMS density matrix=1.00D-08 within 128 cycles.
 Requested convergence on MAX density matrix=1.00D-06.
 Requested convergence on             energy=1.00D-06.
 No special actions if energy rises.
 SCF Done:  E(RZINDO/S) =  -107.821404023     A.U. after   13 cycles
            NFock= 13  Conv=0.29D-08     -V/T= 0.8774
 Range of M.O.s used for correlation:     1    72
 NBasis=    72 NAE=    38 NBE=    38 NFC=     0 NFV=     0
 NROrb=     72 NOA=    38 NOB=    38 NVA=    34 NVB=    34
 Orbital symmetries:
       Occupied  (A) (A) (A) (A) (A) (A) (A) (A) (A) (A) (A) (A)
                 (A) (A) (A) (A) (A) (A) (A) (A) (A) (A) (A) (A)
                 (A) (A) (A) (A) (A) (A) (A) (A) (A) (A) (A) (A)
                 (A) (A)
       Virtual   (A) (A) (A) (A) (A) (A) (A) (A) (A) (A) (A) (A)
                 (A) (A) (A) (A) (A) (A) (A) (A) (A) (A) (A) (A)
                 (A) (A) (A) (A) (A) (A) (A) (A) (A) (A)
    40 initial guesses have been made.
 Convergence on wavefunction:    0.001000000000000
 Iteration     1 Dimension    40 NMult     0 NNew     40
 CISAX will form    40 AO SS matrices at one time.
 New state      1 was old state      6
 New state      2 was old state      5
 New state      3 was old state      1
 New state      4 was old state      2
 New state      5 was old state      3
 New state      6 was old state      4
 New state      8 was old state     10
 New state      9 was old state      8
 New state     10 was old state      9
 Iteration     2 Dimension    80 NMult    40 NNew     40
 New state      1 was old state      2
 New state      2 was old state      1
 Iteration     3 Dimension    90 NMult    80 NNew     10
 Iteration     4 Dimension   100 NMult    90 NNew     10
 Iteration     5 Dimension   110 NMult   100 NNew     10
 Iteration     6 Dimension   111 NMult   110 NNew      1
 ***********************************************************************
 Excited states from <AA,BB:AA,BB> singles matrix:
 ***********************************************************************
 
 Ground to excited state transition densities written to RWF  633
 Ground to excited state transition electric dipole moments (Au):
       state          X           Y           Z        Dip. S.      Osc.
         1         0.0003      0.0000      0.0000      0.0000      0.0000
         2         0.0007     -0.0000     -0.0000      0.0000      0.0000
         3        -0.0001      0.0000      0.0000      0.0000      0.0000
         4        -1.6123      0.0000      0.0000      2.5996      0.2561
         5         0.0001     -0.0000     -0.0000      0.0000      0.0000
         6        -0.0000     -1.8914     -0.0004      3.5775      0.4003
         7         2.8610     -0.0000     -0.0000      8.1851      1.0254
         8        -0.0001      0.0001      0.0000      0.0000      0.0000
         9        -0.0001      0.0000      0.0000      0.0000      0.0000
        10        -0.0000     -1.5960      0.0001      2.5471      0.3426
 Ground to excited state transition velocity dipole moments (Au):
       state          X           Y           Z        Dip. S.      Osc.
         1        -0.0001     -0.0000     -0.0000      0.0000      0.0000
         2         0.0000      0.0000      0.0000      0.0000      0.0000
         3         0.0000     -0.0000     -0.0000      0.0000      0.0000
         4         0.1366     -0.0000     -0.0000      0.0187      0.0842
         5        -0.0000      0.0000      0.0000      0.0000      0.0000
         6         0.0000      0.0907      0.0000      0.0082      0.0327
         7        -0.3344      0.0000      0.0000      0.1119      0.3968
         8         0.0000     -0.0000     -0.0000      0.0000      0.0000
         9         0.0000     -0.0000     -0.0000      0.0000      0.0000
        10         0.0000      0.1244     -0.0000      0.0155      0.0511
 Ground to excited state transition magnetic dipole moments (Au):
       state          X           Y           Z
         1         0.0000      0.9930      0.0003
         2        -0.0000     -0.0000     -0.0001
         3        -0.0000      0.0006      1.3563
         4         0.0000      0.0000     -0.0000
         5        -0.0000      0.0000     -0.0000
         6         0.0000      0.0000      0.0000
         7         0.0000     -0.0000      0.0000
         8        -0.0001     -0.0000      0.0000
         9         0.0000      0.0007      1.1051
        10        -0.0000      0.0000     -0.0000
 Ground to excited state transition velocity quadrupole moments (Au):
       state          XX          YY          ZZ          XY          XZ          YZ
         1        -0.0000     -0.0000     -0.0000     -0.0002     -0.0211      0.0000
         2        -0.0000      0.0000     -0.0000      0.0001      0.0000      0.0000
         3         0.0001     -0.0000     -0.0000      0.1820     -0.0000      0.0000
         4         0.0001     -0.0000      0.0000     -0.0000     -0.0000     -0.0000
         5         0.5836     -0.0789      0.0209     -0.0000     -0.0000     -0.0000
         6        -0.0000     -0.0000     -0.0000      0.0000     -0.0000     -0.0000
         7        -0.0001      0.0000     -0.0000      0.0000     -0.0000      0.0000
         8        -1.4880      0.3585     -0.0463      0.0000      0.0000      0.0002
         9        -0.0000      0.0000     -0.0000      0.7273      0.0002     -0.0000
        10        -0.0000      0.0000     -0.0000     -0.0000     -0.0000     -0.0000
 <0|del|b> * <b|rxdel|0> + <0|del|b> * <b|delr+rdel|0>
 Rotatory Strengths (R) in cgs (10**-40 erg-esu-cm/Gauss)
       state          XX          YY          ZZ    R(velocity)    E-M Angle
         1        -0.0010     -0.0000     -0.0009     -0.0006       90.00
         2        -0.0000     -0.0000     -0.0000     -0.0000       90.00
         3        -0.0001     -0.0001     -0.0000     -0.0001       90.00
         4        -0.0000     -0.0000      0.0001      0.0000       90.00
         5         0.0000      0.0000     -0.0000      0.0000       90.00
         6         0.0001      0.0000      0.0001      0.0001       90.00
         7         0.0000     -0.0000     -0.0000     -0.0000       90.00
         8        -0.0000      0.0000     -0.0000     -0.0000       90.00
         9        -0.0000     -0.0000     -0.0000     -0.0000       90.00
        10         0.0001     -0.0000      0.0001      0.0000       90.00
 1/2[<0|r|b>*<b|rxdel|0> + (<0|rxdel|b>*<b|r|0>)*]
 Rotatory Strengths (R) in cgs (10**-40 erg-esu-cm/Gauss)
       state          XX          YY          ZZ     R(length)
         1        -0.0000     -0.0015     -0.0000     -0.0005
         2         0.0000     -0.0000     -0.0000      0.0000
         3        -0.0000     -0.0000     -0.0002     -0.0001
         4         0.0000     -0.0000      0.0000      0.0000
         5         0.0000      0.0000     -0.0000      0.0000
         6         0.0000      0.0006      0.0000      0.0002
         7        -0.0000     -0.0000      0.0000     -0.0000
         8        -0.0000      0.0000     -0.0000     -0.0000
         9         0.0000     -0.0000     -0.0002     -0.0001
        10        -0.0000      0.0004      0.0000      0.0001
  1/2[<0|del|b>*<b|r|0> + (<0|r|b>*<b|del|0>)*] (Au)
       state          X           Y           Z        Dip. S.   Osc.(frdel)
         1        -0.0000     -0.0000     -0.0000      0.0000      0.0000
         2         0.0000     -0.0000     -0.0000     -0.0000     -0.0000
         3        -0.0000     -0.0000     -0.0000      0.0000      0.0000
         4        -0.2203     -0.0000     -0.0000      0.2203      0.1469
         5        -0.0000     -0.0000     -0.0000      0.0000      0.0000
         6        -0.0000     -0.1716     -0.0000      0.1716      0.1144
         7        -0.9568     -0.0000     -0.0000      0.9568      0.6379
         8        -0.0000     -0.0000     -0.0000      0.0000      0.0000
         9        -0.0000     -0.0000     -0.0000      0.0000      0.0000
        10        -0.0000     -0.1985     -0.0000      0.1985      0.1323

 Excitation energies and oscillator strengths:
 
 Excited State   1:      Singlet-A      2.6231 eV  472.66 nm  f=0.0000  <S**2>=0.000
      33 -> 40        -0.28202
      33 -> 43         0.22233
      34 -> 39         0.57590
      34 -> 44        -0.15959
 This state for optimization and/or second-order correction.
 Total Energy, E(CIS) =  -107.725006471    
 Copying the excited state density for this state as the 1-particle RhoCI density.
 
 Excited State   2:      Singlet-A      2.6799 eV  462.65 nm  f=0.0000  <S**2>=0.000
      33 -> 39         0.56420
      33 -> 44        -0.16747
      34 -> 40        -0.29678
      34 -> 43         0.22686
 
 Excited State   3:      Singlet-A      3.8670 eV  320.62 nm  f=0.0000  <S**2>=0.000
      35 -> 41         0.10375
      37 -> 40        -0.10101
      38 -> 39         0.68002
 
 Excited State   4:      Singlet-A      4.0207 eV  308.37 nm  f=0.2561  <S**2>=0.000
      35 -> 42        -0.14670
      36 -> 41         0.20071
      37 -> 39         0.62251
      38 -> 40         0.19671
 
 Excited State   5:      Singlet-A      4.1210 eV  300.86 nm  f=0.0000  <S**2>=0.000
      35 -> 40         0.15799
      36 -> 39         0.61224
      37 -> 41         0.20866
      38 -> 42        -0.20569
 
 Excited State   6:      Singlet-A      4.5668 eV  271.49 nm  f=0.4003  <S**2>=0.000
      35 -> 39         0.63574
      36 -> 40        -0.21277
      37 -> 42         0.15393
 
 Excited State   7:      Singlet-A      5.1137 eV  242.46 nm  f=1.0254  <S**2>=0.000
      35 -> 42        -0.25992
      36 -> 41         0.16142
      37 -> 39        -0.29287
      37 -> 44         0.13933
      38 -> 40         0.53733
 
 Excited State   8:      Singlet-A      5.1875 eV  239.01 nm  f=0.0000  <S**2>=0.000
      35 -> 40         0.44140
      36 -> 39        -0.31358
      36 -> 44         0.17967
      37 -> 41         0.25381
      38 -> 42        -0.31244
 
 Excited State   9:      Singlet-A      5.4183 eV  228.82 nm  f=0.0000  <S**2>=0.000
      35 -> 41        -0.17916
      36 -> 42        -0.33064
      37 -> 40         0.55768
      38 -> 39         0.12992
      38 -> 44        -0.10631
 
 Excited State  10:      Singlet-A      5.4897 eV  225.85 nm  f=0.3426  <S**2>=0.000
      35 -> 39         0.27749
      36 -> 40         0.48849
      37 -> 42        -0.29496
      38 -> 41        -0.27038
 SavETr:  write IOETrn=   770 NScale= 10 NData=  16 NLR=1 NState=   10 LETran=     190.

 **********************************************************************

            Population analysis using the SCF density.

 **********************************************************************

 Orbital symmetries:
       Occupied  (A) (A) (A) (A) (A) (A) (A) (A) (A) (A) (A) (A)
                 (A) (A) (A) (A) (A) (A) (A) (A) (A) (A) (A) (A)
                 (A) (A) (A) (A) (A) (A) (A) (A) (A) (A) (A) (A)
                 (A) (A)
       Virtual   (A) (A) (A) (A) (A) (A) (A) (A) (A) (A) (A) (A)
                 (A) (A) (A) (A) (A) (A) (A) (A) (A) (A) (A) (A)
                 (A) (A) (A) (A) (A) (A) (A) (A) (A) (A)
 The electronic state is 1-A.
 Alpha  occ. eigenvalues --   -1.71746  -1.61918  -1.59381  -1.52997  -1.36545
 Alpha  occ. eigenvalues --   -1.25832  -1.21184  -1.19840  -1.04988  -0.99729
 Alpha  occ. eigenvalues --   -0.99363  -0.93342  -0.89229  -0.86177  -0.75897
 Alpha  occ. eigenvalues --   -0.69725  -0.66347  -0.66068  -0.64989  -0.59445
 Alpha  occ. eigenvalues --   -0.59313  -0.58480  -0.57710  -0.55822  -0.55374
 Alpha  occ. eigenvalues --   -0.51105  -0.50941  -0.49626  -0.47985  -0.46364
 Alpha  occ. eigenvalues --   -0.46353  -0.45716  -0.37510  -0.36637  -0.35489
 Alpha  occ. eigenvalues --   -0.35111  -0.34917  -0.34691
 Alpha virt. eigenvalues --   -0.06297  -0.01488   0.00425   0.01024   0.05027
 Alpha virt. eigenvalues --    0.05195   0.06317   0.09050   0.09231   0.09736
 Alpha virt. eigenvalues --    0.10829   0.11082   0.11663   0.12912   0.13198
 Alpha virt. eigenvalues --    0.18077   0.18082   0.18246   0.19828   0.22886
 Alpha virt. eigenvalues --    0.25177   0.29262   0.29396   0.29901   0.32758
 Alpha virt. eigenvalues --    0.37227   0.37523   0.38421   0.41952   0.43288
 Alpha virt. eigenvalues --    0.44939   0.45761   0.48113   0.49784
     Molecular Orbital Coefficients:
                           1         2         3         4         5
                           O         O         O         O         O
     Eigenvalues --    -1.71746  -1.61918  -1.59381  -1.52997  -1.36545
   1 1   C  1S          0.31246   0.00000  -0.36344   0.24970   0.10356
   2        2PX         0.00000   0.08754   0.00000   0.00000  -0.00000
   3        2PY        -0.00112  -0.00000   0.17794  -0.16586   0.30604
   4        2PZ        -0.00007   0.00000   0.00011  -0.00009   0.00003
   5 2   C  1S          0.30818   0.24297  -0.12493  -0.04991   0.22271
   6        2PX        -0.01330   0.10715   0.03433  -0.12030  -0.15884
   7        2PY         0.03045   0.04424   0.10023  -0.08085   0.11348
   8        2PZ        -0.00000   0.00000   0.00000  -0.00000   0.00000
   9 3   C  1S          0.30818  -0.24297  -0.12493  -0.04991   0.22271
  10        2PX         0.01330   0.10715  -0.03433   0.12030   0.15884
  11        2PY         0.03045  -0.04424   0.10023  -0.08085   0.11348
  12        2PZ        -0.00000  -0.00000   0.00000  -0.00000   0.00000
  13 4   O  1S          0.23027   0.00000  -0.46913   0.38738  -0.28711
  14        2PX         0.00000   0.02024   0.00000  -0.00000   0.00000
  15        2PY         0.09383   0.00000  -0.17640   0.14010  -0.07297
  16        2PZ         0.00003  -0.00000  -0.00007   0.00006  -0.00006
  17 5   C  1S          0.31246  -0.00000   0.36344   0.24971   0.10356
  18        2PX        -0.00000   0.08754   0.00000   0.00000  -0.00000
  19        2PY         0.00112  -0.00000   0.17794   0.16586  -0.30604
  20        2PZ         0.00009  -0.00000   0.00014   0.00011  -0.00003
  21 6   C  1S          0.30818  -0.24297   0.12493  -0.04991   0.22271
  22        2PX         0.01330   0.10715   0.03433   0.12030   0.15884
  23        2PY        -0.03045   0.04424   0.10023   0.08085  -0.11348
  24        2PZ         0.00000  -0.00001   0.00000  -0.00000  -0.00001
  25 7   O  1S          0.23027  -0.00000   0.46913   0.38738  -0.28711
  26        2PX        -0.00000   0.02024  -0.00000  -0.00000   0.00000
  27        2PY        -0.09383   0.00000  -0.17640  -0.14010   0.07297
  28        2PZ        -0.00004  -0.00000  -0.00009  -0.00007   0.00007
  29 8   C  1S          0.30818   0.24297   0.12493  -0.04991   0.22271
  30        2PX        -0.01330   0.10715  -0.03433  -0.12030  -0.15884
  31        2PY        -0.03045  -0.04424   0.10023   0.08085  -0.11348
  32        2PZ         0.00000   0.00000   0.00000  -0.00000  -0.00001
  33 9   C  1S          0.19341   0.26369  -0.09530  -0.14460  -0.09528
  34        2PX        -0.03849  -0.00138   0.05136  -0.05740  -0.07491
  35        2PY         0.06599   0.10923   0.00936  -0.09557  -0.01007
  36        2PZ        -0.00000  -0.00001   0.00000   0.00000  -0.00000
  37 10  C  1S          0.19341  -0.26369   0.09530  -0.14460  -0.09528
  38        2PX         0.03849  -0.00138   0.05136   0.05740   0.07491
  39        2PY        -0.06599   0.10923   0.00936   0.09557   0.01007
  40        2PZ         0.00000  -0.00001  -0.00000  -0.00001  -0.00001
  41 11  C  1S          0.19341   0.26369   0.09530  -0.14460  -0.09528
  42        2PX        -0.03849  -0.00138  -0.05136  -0.05740  -0.07491
  43        2PY        -0.06599  -0.10923   0.00936   0.09557   0.01007
  44        2PZ         0.00000   0.00001  -0.00000  -0.00001  -0.00001
  45 12  C  1S          0.19341  -0.26369  -0.09530  -0.14460  -0.09528
  46        2PX         0.03849  -0.00138  -0.05136   0.05740   0.07491
  47        2PY         0.06599  -0.10923   0.00936  -0.09557  -0.01007
  48        2PZ        -0.00000   0.00001   0.00000   0.00000   0.00000
  49 13  C  1S          0.14573   0.26420  -0.01825  -0.22712  -0.20383
  50        2PX        -0.06169  -0.09625   0.01211   0.06668   0.01947
  51        2PY         0.02923   0.05617   0.01221  -0.05408  -0.03672
  52        2PZ        -0.00000  -0.00001  -0.00000   0.00001   0.00000
  53 14  C  1S          0.14573   0.26420   0.01825  -0.22712  -0.20383
  54        2PX        -0.06169  -0.09625  -0.01211   0.06668   0.01947
  55        2PY        -0.02923  -0.05617   0.01221   0.05408   0.03672
  56        2PZ        -0.00000  -0.00000  -0.00000  -0.00000  -0.00000
  57 15  C  1S          0.14573  -0.26420  -0.01825  -0.22711  -0.20383
  58        2PX         0.06169  -0.09625  -0.01211  -0.06668  -0.01947
  59        2PY         0.02923  -0.05617   0.01221  -0.05408  -0.03672
  60        2PZ        -0.00000   0.00001  -0.00000   0.00001   0.00000
  61 16  C  1S          0.14573  -0.26420   0.01825  -0.22711  -0.20383
  62        2PX         0.06169  -0.09625   0.01211  -0.06668  -0.01947
  63        2PY        -0.02923   0.05617   0.01221   0.05408   0.03672
  64        2PZ        -0.00000   0.00000  -0.00000  -0.00000  -0.00000
  65 17  H  1S          0.06160   0.07025  -0.05667  -0.01421  -0.04494
  66 18  H  1S          0.06160  -0.07025   0.05667  -0.01421  -0.04494
  67 19  H  1S          0.06160   0.07025   0.05667  -0.01421  -0.04494
  68 20  H  1S          0.06160  -0.07025  -0.05667  -0.01421  -0.04494
  69 21  H  1S          0.03540   0.06978  -0.00648  -0.06507  -0.07834
  70 22  H  1S          0.03540   0.06978   0.00648  -0.06507  -0.07834
  71 23  H  1S          0.03540  -0.06978  -0.00648  -0.06507  -0.07834
  72 24  H  1S          0.03540  -0.06978   0.00648  -0.06507  -0.07834
                           6         7         8         9        10
                           O         O         O         O         O
     Eigenvalues --    -1.25832  -1.21184  -1.19840  -1.04988  -0.99729
   1 1   C  1S         -0.00000   0.00000  -0.00128   0.14549  -0.23881
   2        2PX         0.17863  -0.18912   0.00000  -0.00000   0.00001
   3        2PY        -0.00000  -0.00000  -0.13372   0.10935  -0.23383
   4        2PZ         0.00000  -0.00000  -0.00005  -0.00003  -0.00004
   5 2   C  1S          0.18667  -0.27067  -0.13478  -0.05427  -0.20361
   6        2PX         0.06178  -0.00981  -0.06946  -0.23393   0.08152
   7        2PY        -0.13787  -0.02370   0.08828   0.02151   0.13572
   8        2PZ         0.00002  -0.00000  -0.00003  -0.00000  -0.00005
   9 3   C  1S         -0.18667   0.27067  -0.13479  -0.05427  -0.20362
  10        2PX         0.06178  -0.00981   0.06946   0.23393  -0.08152
  11        2PY         0.13787   0.02370   0.08828   0.02151   0.13572
  12        2PZ        -0.00002   0.00000  -0.00003  -0.00000  -0.00005
  13 4   O  1S          0.00000   0.00000   0.21842  -0.00855   0.27713
  14        2PX         0.07488  -0.05905   0.00000  -0.00000   0.00000
  15        2PY         0.00000   0.00000   0.04196   0.01221  -0.02972
  16        2PZ         0.00000  -0.00000   0.00002  -0.00002   0.00001
  17 5   C  1S         -0.00000   0.00000   0.00128   0.14549   0.23881
  18        2PX        -0.17863  -0.18912   0.00000   0.00000  -0.00001
  19        2PY        -0.00000  -0.00000  -0.13372  -0.10935  -0.23384
  20        2PZ         0.00000  -0.00000  -0.00005   0.00003  -0.00004
  21 6   C  1S          0.18667   0.27067   0.13478  -0.05427   0.20362
  22        2PX        -0.06178  -0.00981  -0.06946   0.23393   0.08152
  23        2PY         0.13787  -0.02370   0.08828  -0.02152   0.13572
  24        2PZ        -0.00002  -0.00001  -0.00002  -0.00001  -0.00006
  25 7   O  1S         -0.00000  -0.00000  -0.21842  -0.00854  -0.27713
  26        2PX        -0.07488  -0.05905   0.00000   0.00000  -0.00000
  27        2PY         0.00000   0.00000   0.04196  -0.01221  -0.02972
  28        2PZ         0.00000   0.00000   0.00003   0.00002   0.00002
  29 8   C  1S         -0.18667  -0.27067   0.13479  -0.05427   0.20361
  30        2PX        -0.06178  -0.00981   0.06946  -0.23393  -0.08152
  31        2PY        -0.13787   0.02370   0.08828  -0.02151   0.13572
  32        2PZ         0.00002   0.00001  -0.00002  -0.00001  -0.00006
  33 9   C  1S          0.32780  -0.04070  -0.31964  -0.16474   0.04302
  34        2PX        -0.03043   0.17755  -0.03006   0.11133   0.18072
  35        2PY        -0.00493   0.00559  -0.00395  -0.03719  -0.01186
  36        2PZ         0.00001   0.00000  -0.00001   0.00001  -0.00000
  37 10  C  1S          0.32780   0.04070   0.31964  -0.16474  -0.04302
  38        2PX         0.03043   0.17755  -0.03006  -0.11133   0.18074
  39        2PY         0.00493   0.00559  -0.00395   0.03719  -0.01186
  40        2PZ        -0.00001  -0.00001  -0.00001   0.00000  -0.00002
  41 11  C  1S         -0.32780  -0.04070   0.31965  -0.16474  -0.04302
  42        2PX         0.03043   0.17755   0.03005   0.11133  -0.18072
  43        2PY        -0.00493  -0.00559  -0.00395   0.03719  -0.01186
  44        2PZ         0.00001   0.00001  -0.00001   0.00000  -0.00002
  45 12  C  1S         -0.32780   0.04070  -0.31964  -0.16474   0.04302
  46        2PX        -0.03043   0.17755   0.03005  -0.11133  -0.18074
  47        2PY         0.00493  -0.00559  -0.00395  -0.03719  -0.01186
  48        2PZ        -0.00001  -0.00000  -0.00001   0.00001  -0.00000
  49 13  C  1S          0.14579   0.30155  -0.18173   0.24063   0.16517
  50        2PX        -0.06224   0.05818   0.06567   0.17959  -0.00861
  51        2PY        -0.10182   0.07566   0.12699   0.08882  -0.11458
  52        2PZ         0.00001  -0.00000  -0.00001   0.00000   0.00000
  53 14  C  1S         -0.14579   0.30155   0.18173   0.24063  -0.16517
  54        2PX         0.06224   0.05818  -0.06567   0.17959   0.00861
  55        2PY        -0.10182  -0.07566   0.12699  -0.08883  -0.11458
  56        2PZ         0.00001   0.00001  -0.00001   0.00001   0.00001
  57 15  C  1S         -0.14579  -0.30155  -0.18173   0.24063   0.16518
  58        2PX        -0.06224   0.05818  -0.06567  -0.17959   0.00861
  59        2PY         0.10182  -0.07566   0.12699   0.08883  -0.11458
  60        2PZ        -0.00001   0.00000  -0.00001   0.00000   0.00000
  61 16  C  1S          0.14579  -0.30155   0.18173   0.24064  -0.16518
  62        2PX         0.06224   0.05818   0.06567  -0.17959  -0.00861
  63        2PY         0.10182   0.07566   0.12699  -0.08882  -0.11458
  64        2PZ        -0.00001  -0.00001  -0.00001   0.00001   0.00001
  65 17  H  1S          0.15828  -0.02427  -0.14409  -0.05972   0.03308
  66 18  H  1S          0.15828   0.02427   0.14409  -0.05972  -0.03308
  67 19  H  1S         -0.15828  -0.02427   0.14409  -0.05972  -0.03308
  68 20  H  1S         -0.15828   0.02427  -0.14409  -0.05972   0.03308
  69 21  H  1S          0.06798   0.15036  -0.09067   0.18074   0.11200
  70 22  H  1S         -0.06798   0.15037   0.09067   0.18074  -0.11200
  71 23  H  1S         -0.06798  -0.15037  -0.09067   0.18074   0.11201
  72 24  H  1S          0.06798  -0.15036   0.09067   0.18074  -0.11201
                          11        12        13        14        15
                           O         O         O         O         O
     Eigenvalues --    -0.99363  -0.93342  -0.89229  -0.86177  -0.75897
   1 1   C  1S          0.00001  -0.00000   0.08646   0.00000   0.26045
   2        2PX         0.25113   0.12098  -0.00000   0.26731  -0.00000
   3        2PY         0.00001  -0.00000   0.09059   0.00000   0.11084
   4        2PZ         0.00000  -0.00000   0.00004   0.00000   0.00000
   5 2   C  1S          0.17572  -0.09434  -0.05548   0.15012   0.00035
   6        2PX        -0.02331  -0.05043  -0.08497  -0.16319  -0.21350
   7        2PY        -0.13293  -0.23015  -0.17381  -0.01950   0.00520
   8        2PZ         0.00002   0.00002   0.00003   0.00001   0.00004
   9 3   C  1S         -0.17571   0.09434  -0.05548  -0.15012   0.00035
  10        2PX        -0.02330  -0.05043   0.08497  -0.16319   0.21350
  11        2PY         0.13292   0.23015  -0.17382   0.01950   0.00520
  12        2PZ        -0.00002  -0.00002   0.00003  -0.00000   0.00004
  13 4   O  1S         -0.00001   0.00000  -0.17298  -0.00000  -0.12179
  14        2PX         0.10846   0.11409  -0.00000   0.10937  -0.00000
  15        2PY         0.00000  -0.00000   0.02989   0.00000   0.10157
  16        2PZ         0.00000  -0.00000   0.00001   0.00000   0.00003
  17 5   C  1S         -0.00001   0.00000   0.08646  -0.00000  -0.26045
  18        2PX        -0.25112   0.12098   0.00000   0.26732   0.00000
  19        2PY         0.00001  -0.00000  -0.09059  -0.00000   0.11084
  20        2PZ        -0.00000  -0.00000  -0.00004   0.00000   0.00001
  21 6   C  1S          0.17571   0.09434  -0.05548  -0.15012  -0.00035
  22        2PX         0.02330  -0.05043   0.08497  -0.16319  -0.21350
  23        2PY         0.13292  -0.23015   0.17381  -0.01950   0.00520
  24        2PZ        -0.00003   0.00003  -0.00003   0.00003   0.00006
  25 7   O  1S          0.00001  -0.00000  -0.17298  -0.00000   0.12179
  26        2PX        -0.10846   0.11409   0.00000   0.10937   0.00000
  27        2PY         0.00000  -0.00000  -0.02989  -0.00000   0.10157
  28        2PZ        -0.00000  -0.00000  -0.00000   0.00000   0.00003
  29 8   C  1S         -0.17572  -0.09434  -0.05548   0.15012  -0.00035
  30        2PX         0.02331  -0.05043  -0.08497  -0.16319   0.21350
  31        2PY        -0.13293   0.23015   0.17381   0.01950   0.00520
  32        2PZ         0.00003  -0.00003  -0.00003  -0.00003   0.00006
  33 9   C  1S         -0.06055   0.19411   0.18882  -0.15337  -0.15271
  34        2PX        -0.24319   0.00937   0.03625  -0.10439   0.15432
  35        2PY        -0.00664  -0.21879  -0.22499  -0.06047   0.04842
  36        2PZ        -0.00000   0.00002   0.00003   0.00000   0.00002
  37 10  C  1S         -0.06055  -0.19411   0.18882   0.15337   0.15271
  38        2PX         0.24318   0.00937  -0.03625  -0.10440   0.15432
  39        2PY         0.00664  -0.21879   0.22499  -0.06047   0.04842
  40        2PZ        -0.00001   0.00002  -0.00002   0.00001   0.00000
  41 11  C  1S          0.06055   0.19411   0.18882  -0.15337   0.15271
  42        2PX         0.24319   0.00937   0.03625  -0.10439  -0.15432
  43        2PY        -0.00664   0.21879   0.22499   0.06047   0.04842
  44        2PZ         0.00001  -0.00002  -0.00003  -0.00001   0.00000
  45 12  C  1S          0.06055  -0.19411   0.18882   0.15337  -0.15271
  46        2PX        -0.24318   0.00937  -0.03625  -0.10439  -0.15432
  47        2PY         0.00664   0.21879  -0.22499   0.06046   0.04842
  48        2PZ         0.00000  -0.00002   0.00003  -0.00000   0.00002
  49 13  C  1S         -0.22793  -0.01179  -0.01688   0.10088   0.17731
  50        2PX         0.01237   0.04063   0.04602   0.26603   0.10062
  51        2PY         0.15680  -0.16152  -0.19234   0.09911  -0.10739
  52        2PZ        -0.00001   0.00001   0.00002   0.00000   0.00002
  53 14  C  1S          0.22793  -0.01179  -0.01688   0.10088  -0.17731
  54        2PX        -0.01237   0.04063   0.04602   0.26603  -0.10062
  55        2PY         0.15680   0.16152   0.19234  -0.09911  -0.10739
  56        2PZ        -0.00001  -0.00001  -0.00001   0.00001   0.00001
  57 15  C  1S          0.22793   0.01179  -0.01688  -0.10088   0.17731
  58        2PX         0.01237   0.04063  -0.04602   0.26603  -0.10062
  59        2PY        -0.15680   0.16152  -0.19234  -0.09911  -0.10739
  60        2PZ         0.00001  -0.00001   0.00002  -0.00000   0.00002
  61 16  C  1S         -0.22793   0.01179  -0.01688  -0.10088  -0.17731
  62        2PX        -0.01237   0.04063  -0.04602   0.26603   0.10062
  63        2PY        -0.15680  -0.16152   0.19234   0.09911  -0.10739
  64        2PZ         0.00001   0.00001  -0.00001  -0.00001   0.00001
  65 17  H  1S         -0.02131   0.23231   0.23069  -0.03499  -0.11195
  66 18  H  1S         -0.02130  -0.23231   0.23069   0.03499   0.11195
  67 19  H  1S          0.02131   0.23231   0.23069  -0.03499   0.11195
  68 20  H  1S          0.02130  -0.23231   0.23069   0.03499  -0.11195
  69 21  H  1S         -0.15331   0.06541   0.07773   0.16931   0.19144
  70 22  H  1S          0.15332   0.06541   0.07773   0.16931  -0.19144
  71 23  H  1S          0.15331  -0.06541   0.07773  -0.16931   0.19144
  72 24  H  1S         -0.15331  -0.06541   0.07773  -0.16931  -0.19144
                          16        17        18        19        20
                           O         O         O         O         O
     Eigenvalues --    -0.69725  -0.66347  -0.66068  -0.64989  -0.59445
   1 1   C  1S         -0.12124   0.00000   0.20792   0.00000  -0.00000
   2        2PX         0.00000   0.09694  -0.00000   0.24638   0.10550
   3        2PY         0.08076   0.00000   0.00364  -0.00000   0.00001
   4        2PZ        -0.00004  -0.00000  -0.00002   0.00000   0.00000
   5 2   C  1S         -0.01776  -0.09924  -0.11069   0.10159  -0.09224
   6        2PX        -0.10046   0.06204  -0.12300  -0.12827  -0.15329
   7        2PY         0.22557  -0.28937  -0.08811  -0.06567   0.03664
   8        2PZ        -0.00003   0.00003   0.00001   0.00004   0.00002
   9 3   C  1S         -0.01776   0.09923  -0.11069  -0.10159   0.09225
  10        2PX         0.10047   0.06205   0.12300  -0.12827  -0.15330
  11        2PY         0.22558   0.28937  -0.08812   0.06566  -0.03665
  12        2PZ        -0.00003  -0.00003   0.00001  -0.00004  -0.00002
  13 4   O  1S          0.27830  -0.00000  -0.16486  -0.00000   0.00001
  14        2PX        -0.00000   0.13563  -0.00000   0.11610   0.19588
  15        2PY        -0.25555   0.00000   0.20464   0.00000  -0.00001
  16        2PZ        -0.00013  -0.00000   0.00007   0.00000  -0.00000
  17 5   C  1S         -0.12124   0.00000   0.20792   0.00000   0.00000
  18        2PX         0.00000   0.09695  -0.00000  -0.24637  -0.10550
  19        2PY        -0.08076   0.00000  -0.00364   0.00000   0.00000
  20        2PZ         0.00003  -0.00000   0.00002  -0.00000   0.00000
  21 6   C  1S         -0.01776   0.09923  -0.11069   0.10159  -0.09225
  22        2PX         0.10047   0.06205   0.12300   0.12827   0.15331
  23        2PY        -0.22557  -0.28937   0.08812   0.06566  -0.03665
  24        2PZ         0.00003   0.00002  -0.00002  -0.00005  -0.00003
  25 7   O  1S          0.27830  -0.00000  -0.16486  -0.00000  -0.00001
  26        2PX         0.00000   0.13563  -0.00000  -0.11610  -0.19588
  27        2PY         0.25555  -0.00000  -0.20464  -0.00000  -0.00001
  28        2PZ         0.00015  -0.00000  -0.00010  -0.00000   0.00000
  29 8   C  1S         -0.01776  -0.09924  -0.11069  -0.10159   0.09223
  30        2PX        -0.10047   0.06204  -0.12301   0.12827   0.15329
  31        2PY        -0.22557   0.28938   0.08811  -0.06566   0.03664
  32        2PZ         0.00003  -0.00002  -0.00002   0.00005   0.00003
  33 9   C  1S          0.02362   0.00310   0.01280  -0.16841  -0.04601
  34        2PX         0.22611  -0.13745   0.19929  -0.00537   0.02103
  35        2PY        -0.02563   0.07003   0.08952   0.11508  -0.31032
  36        2PZ         0.00000  -0.00001   0.00000   0.00000   0.00005
  37 10  C  1S          0.02362  -0.00310   0.01280  -0.16841  -0.04601
  38        2PX        -0.22611  -0.13746  -0.19928   0.00537  -0.02104
  39        2PY         0.02563   0.07003  -0.08952  -0.11508   0.31035
  40        2PZ         0.00001  -0.00000   0.00001  -0.00001  -0.00005
  41 11  C  1S          0.02362   0.00310   0.01280   0.16841   0.04601
  42        2PX         0.22611  -0.13746   0.19929   0.00537  -0.02103
  43        2PY         0.02563  -0.07004  -0.08952   0.11508  -0.31032
  44        2PZ         0.00001   0.00000   0.00001   0.00001   0.00005
  45 12  C  1S          0.02362  -0.00310   0.01280   0.16841   0.04601
  46        2PX        -0.22611  -0.13746  -0.19928  -0.00537   0.02104
  47        2PY        -0.02563  -0.07003   0.08952  -0.11508   0.31035
  48        2PZ         0.00000   0.00001   0.00000  -0.00000  -0.00005
  49 13  C  1S         -0.00996   0.02557   0.03093   0.15558  -0.03648
  50        2PX        -0.11735  -0.06814  -0.26739   0.16827   0.14786
  51        2PY        -0.19781   0.29122   0.02937  -0.08093   0.01612
  52        2PZ         0.00001  -0.00002  -0.00001   0.00002   0.00003
  53 14  C  1S         -0.00996   0.02558   0.03093  -0.15558   0.03648
  54        2PX        -0.11735  -0.06814  -0.26739  -0.16827  -0.14786
  55        2PY         0.19782  -0.29121  -0.02937  -0.08094   0.01612
  56        2PZ        -0.00002   0.00002  -0.00001   0.00001   0.00002
  57 15  C  1S         -0.00996  -0.02557   0.03093  -0.15558   0.03648
  58        2PX         0.11735  -0.06813   0.26739   0.16827   0.14786
  59        2PY        -0.19782  -0.29122   0.02938   0.08093  -0.01612
  60        2PZ         0.00001   0.00002  -0.00001  -0.00002  -0.00003
  61 16  C  1S         -0.00996  -0.02557   0.03093   0.15558  -0.03648
  62        2PX         0.11735  -0.06813   0.26739  -0.16827  -0.14786
  63        2PY         0.19782   0.29121  -0.02938   0.08094  -0.01612
  64        2PZ        -0.00002  -0.00002  -0.00001  -0.00001  -0.00002
  65 17  H  1S          0.03654  -0.04501  -0.06613  -0.16958   0.24871
  66 18  H  1S          0.03653   0.04501  -0.06613  -0.16958   0.24874
  67 19  H  1S          0.03654  -0.04501  -0.06612   0.16958  -0.24871
  68 20  H  1S          0.03654   0.04501  -0.06613   0.16958  -0.24874
  69 21  H  1S         -0.00652  -0.15078  -0.18200   0.22882   0.08784
  70 22  H  1S         -0.00652  -0.15077  -0.18200  -0.22883  -0.08784
  71 23  H  1S         -0.00652   0.15077  -0.18200  -0.22883  -0.08784
  72 24  H  1S         -0.00652   0.15077  -0.18200   0.22883   0.08784
                          21        22        23        24        25
                           O         O         O         O         O
     Eigenvalues --    -0.59313  -0.58480  -0.57710  -0.55822  -0.55374
   1 1   C  1S         -0.09304  -0.00001   0.01676   0.01968   0.00000
   2        2PX        -0.00000   0.00000   0.00000  -0.00000   0.27583
   3        2PY         0.10329   0.00109  -0.29519  -0.22951  -0.00000
   4        2PZ        -0.00018   0.33530   0.00121  -0.00009  -0.00000
   5 2   C  1S          0.12475   0.00009  -0.01763   0.04462   0.01147
   6        2PX         0.10639  -0.00040   0.13127   0.05880  -0.25841
   7        2PY        -0.05898   0.00001   0.00343   0.14139   0.00514
   8        2PZ        -0.00017   0.32169   0.00116  -0.00005  -0.00000
   9 3   C  1S          0.12474   0.00009  -0.01763   0.04462  -0.01147
  10        2PX        -0.10638   0.00040  -0.13127  -0.05879  -0.25841
  11        2PY        -0.05897   0.00001   0.00344   0.14139  -0.00513
  12        2PZ        -0.00017   0.32169   0.00116  -0.00005   0.00000
  13 4   O  1S          0.18805   0.00108  -0.24477  -0.16909  -0.00000
  14        2PX        -0.00001   0.00000  -0.00000  -0.00000   0.18397
  15        2PY        -0.25239  -0.00201   0.45452   0.34673   0.00000
  16        2PZ        -0.00030   0.26067   0.00127   0.00017  -0.00000
  17 5   C  1S          0.09303  -0.00003  -0.01676   0.01968  -0.00000
  18        2PX         0.00001   0.00000   0.00000  -0.00000   0.27583
  19        2PY         0.10329   0.00108  -0.29519   0.22951   0.00000
  20        2PZ        -0.00018   0.33530   0.00121   0.00009  -0.00000
  21 6   C  1S         -0.12474  -0.00009   0.01763   0.04462  -0.01147
  22        2PX         0.10638  -0.00037   0.13127  -0.05879  -0.25841
  23        2PY        -0.05898   0.00001   0.00344  -0.14139   0.00513
  24        2PZ        -0.00018   0.32169   0.00115   0.00006   0.00005
  25 7   O  1S         -0.18805  -0.00108   0.24478  -0.16908  -0.00000
  26        2PX         0.00001   0.00000   0.00000  -0.00000   0.18397
  27        2PY        -0.25239  -0.00205   0.45452  -0.34672  -0.00000
  28        2PZ        -0.00033   0.26067   0.00133  -0.00022  -0.00000
  29 8   C  1S         -0.12475  -0.00009   0.01763   0.04462   0.01147
  30        2PX        -0.10639   0.00037  -0.13127   0.05879  -0.25841
  31        2PY        -0.05898   0.00001   0.00344  -0.14138  -0.00514
  32        2PZ        -0.00018   0.32169   0.00115   0.00006  -0.00005
  33 9   C  1S         -0.01984  -0.00010   0.02633  -0.03176  -0.04981
  34        2PX        -0.05751   0.00002  -0.00732   0.05332   0.24911
  35        2PY         0.29025  -0.00041   0.16194   0.08694   0.03533
  36        2PZ        -0.00014   0.19247   0.00070  -0.00002  -0.00000
  37 10  C  1S          0.01984   0.00010  -0.02633  -0.03176   0.04981
  38        2PX        -0.05751   0.00003  -0.00732  -0.05333   0.24911
  39        2PY         0.29022  -0.00041   0.16194  -0.08693   0.03533
  40        2PZ        -0.00014   0.19247   0.00071   0.00003   0.00000
  41 11  C  1S          0.01984   0.00010  -0.02633  -0.03176  -0.04981
  42        2PX         0.05751  -0.00003   0.00732   0.05332   0.24911
  43        2PY         0.29025  -0.00041   0.16194  -0.08693  -0.03533
  44        2PZ        -0.00014   0.19247   0.00070   0.00003  -0.00001
  45 12  C  1S         -0.01984  -0.00010   0.02633  -0.03176   0.04981
  46        2PX         0.05751  -0.00002   0.00732  -0.05333   0.24911
  47        2PY         0.29022  -0.00041   0.16194   0.08694  -0.03533
  48        2PZ        -0.00014   0.19247   0.00070  -0.00002  -0.00000
  49 13  C  1S          0.07495  -0.00005   0.02226  -0.02172   0.05515
  50        2PX        -0.03811   0.00024  -0.08681   0.05141  -0.20401
  51        2PY        -0.03362   0.00003  -0.01055  -0.27490  -0.03614
  52        2PZ        -0.00008   0.13886   0.00053   0.00002  -0.00002
  53 14  C  1S         -0.07495   0.00005  -0.02226  -0.02172   0.05515
  54        2PX         0.03811  -0.00025   0.08681   0.05141  -0.20401
  55        2PY        -0.03362   0.00003  -0.01055   0.27490   0.03614
  56        2PZ        -0.00008   0.13886   0.00053  -0.00001  -0.00002
  57 15  C  1S          0.07494  -0.00005   0.02226  -0.02172  -0.05515
  58        2PX         0.03810  -0.00024   0.08681  -0.05140  -0.20401
  59        2PY        -0.03362   0.00003  -0.01055  -0.27490   0.03614
  60        2PZ        -0.00008   0.13886   0.00053   0.00002   0.00001
  61 16  C  1S         -0.07494   0.00005  -0.02226  -0.02172  -0.05515
  62        2PX        -0.03810   0.00025  -0.08681  -0.05140  -0.20401
  63        2PY        -0.03362   0.00003  -0.01055   0.27490  -0.03614
  64        2PZ        -0.00008   0.13886   0.00053  -0.00001   0.00002
  65 17  H  1S         -0.25271   0.00035  -0.13331  -0.09662  -0.05231
  66 18  H  1S          0.25269  -0.00035   0.13331  -0.09662   0.05231
  67 19  H  1S          0.25271  -0.00035   0.13331  -0.09661  -0.05231
  68 20  H  1S         -0.25269   0.00035  -0.13331  -0.09662   0.05231
  69 21  H  1S          0.02128   0.00015  -0.05097   0.15557  -0.11668
  70 22  H  1S         -0.02128  -0.00016   0.05096   0.15557  -0.11668
  71 23  H  1S          0.02129   0.00015  -0.05097   0.15556   0.11668
  72 24  H  1S         -0.02128  -0.00016   0.05097   0.15557   0.11668
                          26        27        28        29        30
                           O         O         O         O         O
     Eigenvalues --    -0.51105  -0.50941  -0.49626  -0.47985  -0.46364
   1 1   C  1S          0.11159   0.00000  -0.00019   0.00000  -0.00002
   2        2PX        -0.00000   0.00005  -0.00000  -0.06784  -0.19761
   3        2PY         0.10247   0.00000   0.00006   0.00000  -0.00005
   4        2PZ        -0.00010   0.00000  -0.41582   0.00000   0.00000
   5 2   C  1S         -0.04721  -0.00000   0.00002   0.01066   0.03184
   6        2PX        -0.13541  -0.00003  -0.00000  -0.06676   0.18734
   7        2PY         0.03243   0.00003  -0.00004   0.20135  -0.00636
   8        2PZ        -0.00004   0.27962  -0.13470  -0.00002  -0.00000
   9 3   C  1S         -0.04721   0.00000   0.00002  -0.01066  -0.03184
  10        2PX         0.13541  -0.00003   0.00000  -0.06676   0.18736
  11        2PY         0.03243  -0.00003  -0.00004  -0.20135   0.00650
  12        2PZ        -0.00004  -0.27962  -0.13470   0.00002   0.00000
  13 4   O  1S          0.03034   0.00000  -0.00002  -0.00000  -0.00002
  14        2PX        -0.00000  -0.00010  -0.00000  -0.05743  -0.30295
  15        2PY        -0.06360  -0.00000   0.00032  -0.00000   0.00006
  16        2PZ        -0.00017   0.00000  -0.52099   0.00000   0.00000
  17 5   C  1S         -0.11159  -0.00000  -0.00021  -0.00000  -0.00002
  18        2PX         0.00000  -0.00003   0.00000  -0.06784   0.19761
  19        2PY         0.10247  -0.00000  -0.00008   0.00000   0.00005
  20        2PZ        -0.00001  -0.00000   0.41582   0.00000  -0.00000
  21 6   C  1S          0.04721  -0.00001   0.00001  -0.01066   0.03184
  22        2PX        -0.13541  -0.00001   0.00005  -0.06676  -0.18734
  23        2PY         0.03243  -0.00003   0.00003   0.20135   0.00636
  24        2PZ        -0.00000  -0.27962   0.13470  -0.00002   0.00002
  25 7   O  1S         -0.03034   0.00000  -0.00001  -0.00000  -0.00002
  26        2PX         0.00000   0.00014   0.00000  -0.05743   0.30296
  27        2PY        -0.06360   0.00000  -0.00039  -0.00000  -0.00006
  28        2PZ        -0.00008  -0.00000   0.52100   0.00000  -0.00000
  29 8   C  1S          0.04721   0.00001   0.00001   0.01066  -0.03184
  30        2PX         0.13541  -0.00001  -0.00005  -0.06676  -0.18736
  31        2PY         0.03243   0.00003   0.00003  -0.20135  -0.00651
  32        2PZ        -0.00001   0.27962   0.13470   0.00002  -0.00002
  33 9   C  1S          0.04992   0.00000   0.00002   0.00218   0.01160
  34        2PX         0.24562   0.00004  -0.00004   0.02710  -0.23518
  35        2PY         0.05199   0.00004  -0.00004  -0.23668  -0.04813
  36        2PZ        -0.00004   0.28812  -0.09276   0.00004   0.00002
  37 10  C  1S         -0.04992   0.00001   0.00002  -0.00218   0.01160
  38        2PX         0.24562  -0.00004  -0.00001   0.02710   0.23518
  39        2PY         0.05200  -0.00003   0.00003  -0.23668   0.04813
  40        2PZ        -0.00004  -0.28812   0.09276   0.00002  -0.00004
  41 11  C  1S         -0.04992  -0.00001   0.00003   0.00218  -0.01161
  42        2PX        -0.24562  -0.00004   0.00001   0.02710   0.23520
  43        2PY         0.05199   0.00003   0.00003   0.23668  -0.04801
  44        2PZ        -0.00004   0.28812   0.09276  -0.00003   0.00004
  45 12  C  1S          0.04992  -0.00000   0.00002  -0.00218  -0.01161
  46        2PX        -0.24562   0.00004   0.00004   0.02710  -0.23520
  47        2PY         0.05199  -0.00004  -0.00004   0.23668   0.04801
  48        2PZ        -0.00004  -0.28812  -0.09276  -0.00004  -0.00002
  49 13  C  1S         -0.01854  -0.00000   0.00000   0.00867  -0.02091
  50        2PX        -0.29325  -0.00007   0.00003  -0.01191   0.23391
  51        2PY        -0.00451   0.00001   0.00005   0.26996   0.02248
  52        2PZ        -0.00006   0.29799  -0.03286  -0.00001   0.00005
  53 14  C  1S          0.01854   0.00001   0.00000   0.00867   0.02091
  54        2PX         0.29325   0.00003  -0.00003  -0.01191  -0.23391
  55        2PY        -0.00451   0.00003  -0.00004  -0.26996   0.02237
  56        2PZ        -0.00003   0.29799   0.03286   0.00002   0.00003
  57 15  C  1S         -0.01854   0.00000   0.00000  -0.00867   0.02091
  58        2PX         0.29325  -0.00007  -0.00003  -0.01191   0.23391
  59        2PY        -0.00451  -0.00001   0.00005  -0.26996  -0.02237
  60        2PZ        -0.00006  -0.29799  -0.03286   0.00001  -0.00005
  61 16  C  1S          0.01854  -0.00001   0.00000  -0.00867  -0.02091
  62        2PX        -0.29325   0.00003   0.00003  -0.01191  -0.23391
  63        2PY        -0.00451  -0.00003  -0.00004   0.26996  -0.02248
  64        2PZ        -0.00003  -0.29799   0.03286  -0.00002  -0.00003
  65 17  H  1S         -0.02615  -0.00001   0.00003   0.22552   0.04371
  66 18  H  1S          0.02615   0.00000   0.00002  -0.22552   0.04371
  67 19  H  1S          0.02615  -0.00000   0.00002   0.22552  -0.04360
  68 20  H  1S         -0.02615   0.00001   0.00003  -0.22552  -0.04360
  69 21  H  1S         -0.24870  -0.00004   0.00000  -0.14223   0.18194
  70 22  H  1S          0.24870   0.00004  -0.00005  -0.14222  -0.18199
  71 23  H  1S         -0.24871   0.00004  -0.00000   0.14222  -0.18199
  72 24  H  1S          0.24870  -0.00004  -0.00005   0.14223   0.18194
                          31        32        33        34        35
                           O         O         O         O         O
     Eigenvalues --    -0.46353  -0.45716  -0.37510  -0.36637  -0.35489
   1 1   C  1S         -0.06933   0.00009   0.00000   0.00000   0.00002
   2        2PX         0.00005   0.00000  -0.15451  -0.21026   0.00000
   3        2PY        -0.18643  -0.00005  -0.00000   0.00000   0.00004
   4        2PZ        -0.00006   0.24400  -0.00000  -0.00000   0.01413
   5 2   C  1S          0.00996   0.00000  -0.04128  -0.08515   0.00005
   6        2PX        -0.02844  -0.00000   0.10019   0.18801  -0.00005
   7        2PY         0.26584   0.00004   0.13292   0.02007  -0.00002
   8        2PZ        -0.00005  -0.04208  -0.00018  -0.00036  -0.29637
   9 3   C  1S          0.00998   0.00000   0.04128   0.08515   0.00005
  10        2PX         0.02834   0.00000   0.10019   0.18801   0.00005
  11        2PY         0.26584   0.00004  -0.13292  -0.02007  -0.00002
  12        2PZ        -0.00005  -0.04208   0.00018   0.00036  -0.29637
  13 4   O  1S         -0.08205  -0.00001  -0.00000   0.00000   0.00000
  14        2PX         0.00009   0.00000   0.64199   0.57578  -0.00000
  15        2PY         0.22856  -0.00023   0.00000   0.00000  -0.00026
  16        2PZ         0.00020   0.41228   0.00000  -0.00000   0.38157
  17 5   C  1S         -0.06933  -0.00013  -0.00000   0.00000  -0.00002
  18        2PX        -0.00005  -0.00000  -0.15452   0.21025   0.00000
  19        2PY         0.18643  -0.00000   0.00000  -0.00000   0.00005
  20        2PZ         0.00000   0.24400   0.00000   0.00000   0.01413
  21 6   C  1S          0.00996   0.00000   0.04128  -0.08514  -0.00005
  22        2PX         0.02844   0.00001   0.10020  -0.18801  -0.00007
  23        2PY        -0.26584  -0.00003   0.13293  -0.02006  -0.00004
  24        2PZ         0.00007  -0.04208  -0.00024   0.00044  -0.29638
  25 7   O  1S         -0.08205  -0.00002   0.00000   0.00000  -0.00000
  26        2PX        -0.00009  -0.00000   0.64201  -0.57576  -0.00000
  27        2PY        -0.22856  -0.00034  -0.00000   0.00000  -0.00031
  28        2PZ        -0.00035   0.41228   0.00000  -0.00000   0.38158
  29 8   C  1S          0.00998   0.00000  -0.04128   0.08514  -0.00005
  30        2PX        -0.02834  -0.00001   0.10020  -0.18801   0.00007
  31        2PY        -0.26583  -0.00003  -0.13293   0.02006  -0.00004
  32        2PZ         0.00007  -0.04208   0.00024  -0.00044  -0.29638
  33 9   C  1S         -0.00955  -0.00000  -0.01681   0.02223  -0.00001
  34        2PX         0.03288   0.00001  -0.01972  -0.09856   0.00003
  35        2PY        -0.20488  -0.00004   0.00666   0.06721  -0.00000
  36        2PZ         0.00003  -0.20155  -0.00030   0.00009   0.00922
  37 10  C  1S         -0.00955  -0.00000   0.01680   0.02223   0.00001
  38        2PX        -0.03288  -0.00002  -0.01972   0.09856   0.00002
  39        2PY         0.20488   0.00001   0.00666  -0.06721   0.00000
  40        2PZ         0.00002  -0.20155  -0.00029  -0.00000   0.00920
  41 11  C  1S         -0.00954   0.00000  -0.01680  -0.02223   0.00001
  42        2PX         0.03275   0.00002  -0.01972   0.09856  -0.00002
  43        2PY         0.20491   0.00001  -0.00666   0.06721   0.00000
  44        2PZ         0.00002  -0.20155   0.00029   0.00000   0.00920
  45 12  C  1S         -0.00954  -0.00000   0.01681  -0.02223  -0.00001
  46        2PX        -0.03275  -0.00001  -0.01972  -0.09856  -0.00003
  47        2PY        -0.20491  -0.00004  -0.00666  -0.06721  -0.00000
  48        2PZ         0.00003  -0.20155   0.00030  -0.00009   0.00922
  49 13  C  1S          0.00210   0.00000  -0.01222   0.00406   0.00000
  50        2PX         0.00106   0.00002   0.01888   0.03692  -0.00003
  51        2PY         0.19591  -0.00000  -0.01495   0.00317   0.00002
  52        2PZ         0.00002  -0.30472  -0.00017   0.00050   0.29863
  53 14  C  1S          0.00209  -0.00000  -0.01222  -0.00406  -0.00000
  54        2PX         0.00119   0.00000   0.01888  -0.03692   0.00001
  55        2PY        -0.19592  -0.00004   0.01495   0.00317   0.00002
  56        2PZ         0.00005  -0.30472   0.00010   0.00045   0.29862
  57 15  C  1S          0.00209   0.00000   0.01222  -0.00406   0.00000
  58        2PX        -0.00119  -0.00002   0.01888   0.03692   0.00003
  59        2PY         0.19592   0.00000   0.01495  -0.00317   0.00002
  60        2PZ         0.00002  -0.30472   0.00017  -0.00050   0.29863
  61 16  C  1S          0.00210  -0.00000   0.01222   0.00406  -0.00000
  62        2PX        -0.00106  -0.00000   0.01888  -0.03692  -0.00001
  63        2PY        -0.19591  -0.00004  -0.01495  -0.00317   0.00002
  64        2PZ         0.00005  -0.30472  -0.00010  -0.00045   0.29862
  65 17  H  1S          0.19521   0.00002   0.01811  -0.03954   0.00000
  66 18  H  1S          0.19521   0.00003  -0.01811  -0.03954   0.00000
  67 19  H  1S          0.19523   0.00003   0.01811   0.03954   0.00000
  68 20  H  1S          0.19523   0.00002  -0.01811   0.03954   0.00000
  69 21  H  1S         -0.09756  -0.00001   0.02820   0.03823  -0.00001
  70 22  H  1S         -0.09746  -0.00002   0.02820  -0.03823   0.00001
  71 23  H  1S         -0.09746  -0.00001  -0.02820  -0.03823  -0.00001
  72 24  H  1S         -0.09756  -0.00002  -0.02820   0.03823   0.00001
                          36        37        38        39        40
                           O         O         O         V         V
     Eigenvalues --    -0.35111  -0.34917  -0.34691  -0.06297  -0.01488
   1 1   C  1S          0.00001  -0.00000   0.00000   0.00020  -0.00022
   2        2PX        -0.00000   0.00008   0.00024  -0.00000  -0.00000
   3        2PY         0.00004  -0.00000  -0.00000  -0.00010   0.00005
   4        2PZ         0.00338   0.00000   0.00000   0.36762  -0.31662
   5 2   C  1S          0.00000   0.00003   0.00013  -0.00005   0.00016
   6        2PX        -0.00002  -0.00007  -0.00024   0.00007  -0.00008
   7        2PY        -0.00007  -0.00012  -0.00005   0.00014  -0.00001
   8        2PZ        -0.19955  -0.21369  -0.36192   0.24399  -0.05480
   9 3   C  1S          0.00000  -0.00003  -0.00013  -0.00005   0.00016
  10        2PX         0.00002  -0.00007  -0.00024  -0.00007   0.00008
  11        2PY        -0.00007   0.00012   0.00005   0.00014  -0.00001
  12        2PZ        -0.19958   0.21367   0.36192   0.24399  -0.05480
  13 4   O  1S         -0.00000   0.00000  -0.00000  -0.00001   0.00002
  14        2PX         0.00000  -0.00041  -0.00062   0.00000  -0.00000
  15        2PY        -0.00017   0.00000   0.00000   0.00013  -0.00005
  16        2PZ         0.25822   0.00001  -0.00000  -0.34291   0.22756
  17 5   C  1S          0.00001  -0.00000   0.00000   0.00026   0.00028
  18        2PX         0.00000   0.00013  -0.00027   0.00000   0.00000
  19        2PY        -0.00004  -0.00000   0.00000   0.00011   0.00005
  20        2PZ        -0.00338  -0.00000   0.00000  -0.36762  -0.31662
  21 6   C  1S          0.00001  -0.00006   0.00014  -0.00007  -0.00017
  22        2PX         0.00003  -0.00013   0.00029  -0.00011  -0.00011
  23        2PY         0.00007  -0.00013   0.00007  -0.00015  -0.00003
  24        2PZ         0.19956  -0.21369   0.36191  -0.24399  -0.05480
  25 7   O  1S         -0.00000  -0.00000  -0.00000  -0.00002  -0.00002
  26        2PX        -0.00000  -0.00055   0.00072  -0.00000  -0.00000
  27        2PY         0.00020   0.00000  -0.00000  -0.00015  -0.00005
  28        2PZ        -0.25820  -0.00001  -0.00000   0.34291   0.22756
  29 8   C  1S          0.00001   0.00006  -0.00014  -0.00007  -0.00017
  30        2PX        -0.00003  -0.00013   0.00029   0.00011   0.00011
  31        2PY         0.00007   0.00013  -0.00007  -0.00015  -0.00003
  32        2PZ         0.19954   0.21371  -0.36190  -0.24399  -0.05480
  33 9   C  1S          0.00002   0.00003  -0.00004  -0.00002  -0.00006
  34        2PX         0.00001   0.00002   0.00013   0.00001   0.00003
  35        2PY        -0.00002  -0.00004  -0.00008  -0.00004   0.00002
  36        2PZ        -0.37671  -0.40499  -0.00553  -0.14073   0.36002
[...]
  64        2PZ         0.00000   0.00000   0.00000   0.00000   0.00000
  65 17  H  1S          0.00000   0.00000   0.00000   0.00000   0.00000
  66 18  H  1S          0.00000   0.00000   0.00000   0.00000   0.00000
  67 19  H  1S          0.00000   0.00000   0.00000   0.00000   0.00000
  68 20  H  1S          0.00000   0.00000   0.00000   0.00000   0.00000
  69 21  H  1S          0.00000   0.00000   0.00000   0.00000   0.00000
  70 22  H  1S          0.00000   0.00000   0.00000   0.00000   0.00000
  71 23  H  1S          0.00000   0.00000   0.00000   0.00000   0.00000
  72 24  H  1S          0.00000   0.00000   0.00000   0.00000   0.00000
                          61        62        63        64        65
  61 16  C  1S          1.09358
  62        2PX         0.00000   0.96534
  63        2PY         0.00000   0.00000   0.98487
  64        2PZ         0.00000   0.00000   0.00000   0.97085
  65 17  H  1S          0.00000   0.00000   0.00000   0.00000   0.94426
  66 18  H  1S          0.00000   0.00000   0.00000   0.00000   0.00000
  67 19  H  1S          0.00000   0.00000   0.00000   0.00000   0.00000
  68 20  H  1S          0.00000   0.00000   0.00000   0.00000   0.00000
  69 21  H  1S          0.00000   0.00000   0.00000   0.00000   0.00000
  70 22  H  1S          0.00000   0.00000   0.00000   0.00000   0.00000
  71 23  H  1S          0.00000   0.00000   0.00000   0.00000   0.00000
  72 24  H  1S          0.00000   0.00000   0.00000   0.00000   0.00000
                          66        67        68        69        70
  66 18  H  1S          0.94426
  67 19  H  1S          0.00000   0.94426
  68 20  H  1S          0.00000   0.00000   0.94426
  69 21  H  1S          0.00000   0.00000   0.00000   0.96027
  70 22  H  1S          0.00000   0.00000   0.00000   0.00000   0.96027
  71 23  H  1S          0.00000   0.00000   0.00000   0.00000   0.00000
  72 24  H  1S          0.00000   0.00000   0.00000   0.00000   0.00000
                          71        72
  71 23  H  1S          0.96027
  72 24  H  1S          0.00000   0.96027
     Gross orbital populations:
                           1
   1 1   C  1S          1.08164
   2        2PX         0.98708
   3        2PY         0.92023
   4        2PZ         0.69016
   5 2   C  1S          1.05885
   6        2PX         0.95411
   7        2PY         0.96353
   8        2PZ         1.01180
   9 3   C  1S          1.05885
  10        2PX         0.95411
  11        2PY         0.96353
  12        2PZ         1.01180
  13 4   O  1S          1.82219
  14        2PX         1.97819
  15        2PY         1.26571
  16        2PZ         1.44327
  17 5   C  1S          1.08164
  18        2PX         0.98708
  19        2PY         0.92023
  20        2PZ         0.69016
  21 6   C  1S          1.05885
  22        2PX         0.95411
  23        2PY         0.96353
  24        2PZ         1.01179
  25 7   O  1S          1.82219
  26        2PX         1.97819
  27        2PY         1.26571
  28        2PZ         1.44326
  29 8   C  1S          1.05885
  30        2PX         0.95411
  31        2PY         0.96353
  32        2PZ         1.01179
  33 9   C  1S          1.09882
  34        2PX         0.98542
  35        2PY         0.96341
  36        2PZ         0.95064
  37 10  C  1S          1.09882
  38        2PX         0.98542
  39        2PY         0.96341
  40        2PZ         0.95064
  41 11  C  1S          1.09882
  42        2PX         0.98542
  43        2PY         0.96341
  44        2PZ         0.95064
  45 12  C  1S          1.09882
  46        2PX         0.98542
  47        2PY         0.96341
  48        2PZ         0.95064
  49 13  C  1S          1.09358
  50        2PX         0.96534
  51        2PY         0.98487
  52        2PZ         0.97085
  53 14  C  1S          1.09358
  54        2PX         0.96534
  55        2PY         0.98487
  56        2PZ         0.97085
  57 15  C  1S          1.09358
  58        2PX         0.96534
  59        2PY         0.98487
  60        2PZ         0.97085
  61 16  C  1S          1.09358
  62        2PX         0.96534
  63        2PY         0.98487
  64        2PZ         0.97085
  65 17  H  1S          0.94426
  66 18  H  1S          0.94426
  67 19  H  1S          0.94426
  68 20  H  1S          0.94426
  69 21  H  1S          0.96027
  70 22  H  1S          0.96027
  71 23  H  1S          0.96027
  72 24  H  1S          0.96027
          Condensed to atoms (all electrons):
               1          2          3          4          5          6
     1  C    3.679108   0.000000   0.000000   0.000000   0.000000   0.000000
     2  C    0.000000   3.988291   0.000000   0.000000   0.000000   0.000000
     3  C    0.000000   0.000000   3.988291   0.000000   0.000000   0.000000
     4  O    0.000000   0.000000   0.000000   6.509360   0.000000   0.000000
     5  C    0.000000   0.000000   0.000000   0.000000   3.679108   0.000000
     6  C    0.000000   0.000000   0.000000   0.000000   0.000000   3.988291
     7  O    0.000000   0.000000   0.000000   0.000000   0.000000   0.000000
     8  C    0.000000   0.000000   0.000000   0.000000   0.000000   0.000000
     9  C    0.000000   0.000000   0.000000   0.000000   0.000000   0.000000
    10  C    0.000000   0.000000   0.000000   0.000000   0.000000   0.000000
    11  C    0.000000   0.000000   0.000000   0.000000   0.000000   0.000000
    12  C    0.000000   0.000000   0.000000   0.000000   0.000000   0.000000
    13  C    0.000000   0.000000   0.000000   0.000000   0.000000   0.000000
    14  C    0.000000   0.000000   0.000000   0.000000   0.000000   0.000000
    15  C    0.000000   0.000000   0.000000   0.000000   0.000000   0.000000
    16  C    0.000000   0.000000   0.000000   0.000000   0.000000   0.000000
    17  H    0.000000   0.000000   0.000000   0.000000   0.000000   0.000000
    18  H    0.000000   0.000000   0.000000   0.000000   0.000000   0.000000
    19  H    0.000000   0.000000   0.000000   0.000000   0.000000   0.000000
    20  H    0.000000   0.000000   0.000000   0.000000   0.000000   0.000000
    21  H    0.000000   0.000000   0.000000   0.000000   0.000000   0.000000
    22  H    0.000000   0.000000   0.000000   0.000000   0.000000   0.000000
    23  H    0.000000   0.000000   0.000000   0.000000   0.000000   0.000000
    24  H    0.000000   0.000000   0.000000   0.000000   0.000000   0.000000
               7          8          9         10         11         12
     1  C    0.000000   0.000000   0.000000   0.000000   0.000000   0.000000
     2  C    0.000000   0.000000   0.000000   0.000000   0.000000   0.000000
     3  C    0.000000   0.000000   0.000000   0.000000   0.000000   0.000000
     4  O    0.000000   0.000000   0.000000   0.000000   0.000000   0.000000
     5  C    0.000000   0.000000   0.000000   0.000000   0.000000   0.000000
     6  C    0.000000   0.000000   0.000000   0.000000   0.000000   0.000000
     7  O    6.509359   0.000000   0.000000   0.000000   0.000000   0.000000
     8  C    0.000000   3.988291   0.000000   0.000000   0.000000   0.000000
     9  C    0.000000   0.000000   3.998299   0.000000   0.000000   0.000000
    10  C    0.000000   0.000000   0.000000   3.998299   0.000000   0.000000
    11  C    0.000000   0.000000   0.000000   0.000000   3.998299   0.000000
    12  C    0.000000   0.000000   0.000000   0.000000   0.000000   3.998299
    13  C    0.000000   0.000000   0.000000   0.000000   0.000000   0.000000
    14  C    0.000000   0.000000   0.000000   0.000000   0.000000   0.000000
    15  C    0.000000   0.000000   0.000000   0.000000   0.000000   0.000000
    16  C    0.000000   0.000000   0.000000   0.000000   0.000000   0.000000
    17  H    0.000000   0.000000   0.000000   0.000000   0.000000   0.000000
    18  H    0.000000   0.000000   0.000000   0.000000   0.000000   0.000000
    19  H    0.000000   0.000000   0.000000   0.000000   0.000000   0.000000
    20  H    0.000000   0.000000   0.000000   0.000000   0.000000   0.000000
    21  H    0.000000   0.000000   0.000000   0.000000   0.000000   0.000000
    22  H    0.000000   0.000000   0.000000   0.000000   0.000000   0.000000
    23  H    0.000000   0.000000   0.000000   0.000000   0.000000   0.000000
    24  H    0.000000   0.000000   0.000000   0.000000   0.000000   0.000000
              13         14         15         16         17         18
     1  C    0.000000   0.000000   0.000000   0.000000   0.000000   0.000000
     2  C    0.000000   0.000000   0.000000   0.000000   0.000000   0.000000
     3  C    0.000000   0.000000   0.000000   0.000000   0.000000   0.000000
     4  O    0.000000   0.000000   0.000000   0.000000   0.000000   0.000000
     5  C    0.000000   0.000000   0.000000   0.000000   0.000000   0.000000
     6  C    0.000000   0.000000   0.000000   0.000000   0.000000   0.000000
     7  O    0.000000   0.000000   0.000000   0.000000   0.000000   0.000000
     8  C    0.000000   0.000000   0.000000   0.000000   0.000000   0.000000
     9  C    0.000000   0.000000   0.000000   0.000000   0.000000   0.000000
    10  C    0.000000   0.000000   0.000000   0.000000   0.000000   0.000000
    11  C    0.000000   0.000000   0.000000   0.000000   0.000000   0.000000
    12  C    0.000000   0.000000   0.000000   0.000000   0.000000   0.000000
    13  C    4.014644   0.000000   0.000000   0.000000   0.000000   0.000000
    14  C    0.000000   4.014645   0.000000   0.000000   0.000000   0.000000
    15  C    0.000000   0.000000   4.014645   0.000000   0.000000   0.000000
    16  C    0.000000   0.000000   0.000000   4.014644   0.000000   0.000000
    17  H    0.000000   0.000000   0.000000   0.000000   0.944256   0.000000
    18  H    0.000000   0.000000   0.000000   0.000000   0.000000   0.944256
    19  H    0.000000   0.000000   0.000000   0.000000   0.000000   0.000000
    20  H    0.000000   0.000000   0.000000   0.000000   0.000000   0.000000
    21  H    0.000000   0.000000   0.000000   0.000000   0.000000   0.000000
    22  H    0.000000   0.000000   0.000000   0.000000   0.000000   0.000000
    23  H    0.000000   0.000000   0.000000   0.000000   0.000000   0.000000
    24  H    0.000000   0.000000   0.000000   0.000000   0.000000   0.000000
              19         20         21         22         23         24
     1  C    0.000000   0.000000   0.000000   0.000000   0.000000   0.000000
     2  C    0.000000   0.000000   0.000000   0.000000   0.000000   0.000000
     3  C    0.000000   0.000000   0.000000   0.000000   0.000000   0.000000
     4  O    0.000000   0.000000   0.000000   0.000000   0.000000   0.000000
     5  C    0.000000   0.000000   0.000000   0.000000   0.000000   0.000000
     6  C    0.000000   0.000000   0.000000   0.000000   0.000000   0.000000
     7  O    0.000000   0.000000   0.000000   0.000000   0.000000   0.000000
     8  C    0.000000   0.000000   0.000000   0.000000   0.000000   0.000000
     9  C    0.000000   0.000000   0.000000   0.000000   0.000000   0.000000
    10  C    0.000000   0.000000   0.000000   0.000000   0.000000   0.000000
    11  C    0.000000   0.000000   0.000000   0.000000   0.000000   0.000000
    12  C    0.000000   0.000000   0.000000   0.000000   0.000000   0.000000
    13  C    0.000000   0.000000   0.000000   0.000000   0.000000   0.000000
    14  C    0.000000   0.000000   0.000000   0.000000   0.000000   0.000000
    15  C    0.000000   0.000000   0.000000   0.000000   0.000000   0.000000
    16  C    0.000000   0.000000   0.000000   0.000000   0.000000   0.000000
    17  H    0.000000   0.000000   0.000000   0.000000   0.000000   0.000000
    18  H    0.000000   0.000000   0.000000   0.000000   0.000000   0.000000
    19  H    0.944256   0.000000   0.000000   0.000000   0.000000   0.000000
    20  H    0.000000   0.944256   0.000000   0.000000   0.000000   0.000000
    21  H    0.000000   0.000000   0.960275   0.000000   0.000000   0.000000
    22  H    0.000000   0.000000   0.000000   0.960275   0.000000   0.000000
    23  H    0.000000   0.000000   0.000000   0.000000   0.960275   0.000000
    24  H    0.000000   0.000000   0.000000   0.000000   0.000000   0.960275
 Mulliken charges:
               1
     1  C    0.320892
     2  C    0.011709
     3  C    0.011709
     4  O   -0.509360
     5  C    0.320892
     6  C    0.011709
     7  O   -0.509359
     8  C    0.011709
     9  C    0.001701
    10  C    0.001701
    11  C    0.001701
    12  C    0.001701
    13  C   -0.014644
    14  C   -0.014645
    15  C   -0.014645
    16  C   -0.014644
    17  H    0.055744
    18  H    0.055744
    19  H    0.055744
    20  H    0.055744
    21  H    0.039725
    22  H    0.039725
    23  H    0.039725
    24  H    0.039725
 Sum of Mulliken charges =   0.00000
 Mulliken charges with hydrogens summed into heavy atoms:
               1
     1  C    0.320892
     2  C    0.011709
     3  C    0.011709
     4  O   -0.509360
     5  C    0.320892
     6  C    0.011709
     7  O   -0.509359
     8  C    0.011709
     9  C    0.057445
    10  C    0.057444
    11  C    0.057444
    12  C    0.057445
    13  C    0.025081
    14  C    0.025081
    15  C    0.025081
    16  C    0.025081
 Charge=              0.0000 electrons
 Dipole moment (field-independent basis, Debye):
    X=             -0.0000    Y=              0.0000    Z=             -0.0001  Tot=              0.0001
 N-N= 3.617035292752D+02 E-N= 0.000000000000D+00  KE=-8.797721957206D+02
 Orbital energies and kinetic energies (alpha):
                                 1                 2
   1         O                -1.717462        -12.964015
   2         O                -1.619179        -12.326629
   3         O                -1.593807        -12.917686
   4         O                -1.529968        -12.429081
   5         O                -1.365448        -12.537269
   6         O                -1.258317        -11.999773
   7         O                -1.211837        -11.795503
   8         O                -1.198402        -11.759998
   9         O                -1.049884        -11.466172
  10         O                -0.997286        -12.041926
  11         O                -0.993625        -11.608519
  12         O                -0.933424        -11.583157
  13         O                -0.892291        -11.404335
  14         O                -0.861766        -11.410208
  15         O                -0.758968        -11.294951
  16         O                -0.697247        -11.710682
  17         O                -0.663467        -11.369604
  18         O                -0.660682        -11.149058
  19         O                -0.649895        -10.832850
  20         O                -0.594449        -11.080606
  21         O                -0.593126        -11.244813
  22         O                -0.584800        -12.004527
  23         O                -0.577096        -11.709449
  24         O                -0.558218        -11.164491
  25         O                -0.553737        -11.491687
  26         O                -0.511047        -10.554012
  27         O                -0.509414        -11.311068
  28         O                -0.496263        -11.944332
  29         O                -0.479850        -10.767399
  30         O                -0.463643        -11.044459
  31         O                -0.463527        -11.265881
  32         O                -0.457163        -11.221375
  33         O                -0.375099        -11.686714
  34         O                -0.366370        -11.683875
  35         O                -0.354888        -11.382687
  36         O                -0.351106        -11.236465
  37         O                -0.349173        -11.173827
  38         O                -0.346911        -11.317018
  39         V                -0.062969        -11.526922
  40         V                -0.014877        -11.102243
  41         V                 0.004247        -11.166134
  42         V                 0.010235        -10.977900
  43         V                 0.050274        -11.651591
  44         V                 0.051946        -10.836668
  45         V                 0.063170        -11.451005
  46         V                 0.090495        -10.804310
  47         V                 0.092306        -10.906048
  48         V                 0.097361        -11.427431
  49         V                 0.108291        -10.189280
  50         V                 0.110816        -11.432021
  51         V                 0.116628        -10.630382
  52         V                 0.129123        -10.525348
  53         V                 0.131984        -10.706914
  54         V                 0.180770         -9.443386
  55         V                 0.180824        -10.388234
  56         V                 0.182465         -9.522153
  57         V                 0.198283        -10.312600
  58         V                 0.228864        -11.239993
  59         V                 0.251774        -11.255639
  60         V                 0.292615        -10.552889
  61         V                 0.293956         -9.815855
  62         V                 0.299006         -9.780478
  63         V                 0.327576        -10.260061
  64         V                 0.372267        -10.621085
  65         V                 0.375233        -10.437782
  66         V                 0.384212        -10.835847
  67         V                 0.419519        -11.389818
  68         V                 0.432884        -10.255588
  69         V                 0.449393        -10.476053
  70         V                 0.457614        -11.199699
  71         V                 0.481133        -10.933064
  72         V                 0.497842        -11.308396
 Total kinetic energy from orbitals=-8.797721957206D+02
 1\1\GINC-GTX1080DELTA\SP\RZINDO\STO-3G\C14H8O2\MVEROT\11-Apr-2022\0\\#
 n ZINDO(NSTATE=10) pop=full gfinput\\UV-spectra\\0,1\C,0,-0.6706806475
 ,-1.2616237589,0.1040448098\C,0,-2.0742308038,-0.8136611566,-0.0164814
 736\C,0,0.3732578097,-0.2150921128,0.0933629023\O,0,-0.38178967,-2.462
 3875153,0.2103966317\C,0,-1.3576732133,1.5934498106,-0.1468030926\C,0,
 0.0458836823,1.14547758,-0.0263690077\O,0,-1.6465581441,2.7942042752,-
 0.2532720791\C,0,-2.4016047902,0.5469076491,-0.1362131838\C,0,-3.09379
 87696,-1.7728076513,-0.0105073248\C,0,1.0654575523,2.1046166578,-0.032
 4296717\C,0,-3.7437623819,0.928450661,-0.2482668187\C,0,1.7154202027,-
 0.5966422249,0.2053310536\C,0,-4.4289339548,-1.3838742809,-0.122649409
 8\C,0,-4.753729328,-0.0340233208,-0.2414603815\C,0,2.7253922682,0.3658
 235427,0.1984383616\C,0,2.400598164,1.715675436,0.0796264725\H,0,-2.82
 58648351,-2.8385084445,0.0839532296\H,0,0.7975247499,3.1703180659,-0.1
 268888973\H,0,-3.989965466,1.9994666835,-0.3417480767\H,0,1.9616214623
 ,-1.6676586595,0.2988150695\H,0,-5.2230806149,-2.1457813719,-0.1169438
 422\H,0,-5.8058815145,0.2763370212,-0.3300972949\H,0,3.7775481476,0.05
 54569298,0.2870083676\H,0,3.1947500945,2.4775761845,0.0738536562\\Vers
 ion=AM64L-G09RevD.01\State=1-A\HF=-107.821404\RMSD=2.930e-09\PG=C01 [X
 (C14H8O2)]\\@


 THE ENLIGHTENED ONE, BECAUSE HE SAW MANKIND DROWNING  
 IN THE GREAT SEA OF BIRTH, DEATH, AND SORROW, LONGED TO SAVE 
 THEM, FOR THIS HE WAS MOVED TO PITY.                         
 BECAUSE HE SAW MEN OF THE WORLD STRAYING IN FALSE PATHS, AND 
 NONE TO GUIDE THEM, FOR THIS HE WAS MOVED TO PITY.           
                     ..................                       
 BECAUSE HE SAW THE MEN OF THE WORLD PLOUGHING THEIR FIELDS,  
 SOWING THE SEED, TRAFFICKING, HUCKSTERING, BUYING, SELLING,  
 AND AT THE END WINNOWING NOTHING BUT BITTERNESS,             
 FOR THIS HE WAS MOVED TO PITY......                   
                   BUDAH'S PITY - UPSAKA SILA SUTRA           
 Job cpu time:       0 days  0 hours  0 minutes  1.1 seconds.
 File lengths (MBytes):  RWF=    127 Int=      0 D2E=      0 Chk=      5 Scr=      2
 Normal termination of Gaussian 09 at Mon Apr 11 21:42:08 2022.
