 Entering Gaussian System, Link 0=g09
 Input=/scratch/mverot/cyclopentane-opt/cyclopentane-opt.com
 Output=/scratch/mverot/cyclopentane-opt/cyclopentane-opt.log
 Initial command:
 /opt/g09/l1.exe "/scratch/mverot/cyclopentane-opt/Gau-758679.inp" -scrdir="/scratch/mverot/cyclopentane-opt/"
 Entering Link 1 = /opt/g09/l1.exe PID=    758681.
  
 Copyright (c) 1988,1990,1992,1993,1995,1998,2003,2009,2013,
            Gaussian, Inc.  All Rights Reserved.
  
 This is part of the Gaussian(R) 09 program.  It is based on
 the Gaussian(R) 03 system (copyright 2003, Gaussian, Inc.),
 the Gaussian(R) 98 system (copyright 1998, Gaussian, Inc.),
 the Gaussian(R) 94 system (copyright 1995, Gaussian, Inc.),
 the Gaussian 92(TM) system (copyright 1992, Gaussian, Inc.),
 the Gaussian 90(TM) system (copyright 1990, Gaussian, Inc.),
 the Gaussian 88(TM) system (copyright 1988, Gaussian, Inc.),
 the Gaussian 86(TM) system (copyright 1986, Carnegie Mellon
 University), and the Gaussian 82(TM) system (copyright 1983,
 Carnegie Mellon University). Gaussian is a federally registered
 trademark of Gaussian, Inc.
  
 This software contains proprietary and confidential information,
 including trade secrets, belonging to Gaussian, Inc.
  
 This software is provided under written license and may be
 used, copied, transmitted, or stored only in accord with that
 written license.
  
 The following legend is applicable only to US Government
 contracts under FAR:
  
                    RESTRICTED RIGHTS LEGEND
  
 Use, reproduction and disclosure by the US Government is
 subject to restrictions as set forth in subparagraphs (a)
 and (c) of the Commercial Computer Software - Restricted
 Rights clause in FAR 52.227-19.
  
 Gaussian, Inc.
 340 Quinnipiac St., Bldg. 40, Wallingford CT 06492
  
  
 ---------------------------------------------------------------
 Warning -- This program may not be used in any manner that
 competes with the business of Gaussian, Inc. or will provide
 assistance to any competitor of Gaussian, Inc.  The licensee
 of this program is prohibited from giving any competitor of
 Gaussian, Inc. access to this program.  By using this program,
 the user acknowledges that Gaussian, Inc. is engaged in the
 business of creating and licensing software in the field of
 computational chemistry and represents and warrants to the
 licensee that it is not a competitor of Gaussian, Inc. and that
 it will not use this program in any manner prohibited above.
 ---------------------------------------------------------------
  

 Cite this work as:
 Gaussian 09, Revision D.01,
 M. J. Frisch, G. W. Trucks, H. B. Schlegel, G. E. Scuseria, 
 M. A. Robb, J. R. Cheeseman, G. Scalmani, V. Barone, B. Mennucci, 
 G. A. Petersson, H. Nakatsuji, M. Caricato, X. Li, H. P. Hratchian, 
 A. F. Izmaylov, J. Bloino, G. Zheng, J. L. Sonnenberg, M. Hada, 
 M. Ehara, K. Toyota, R. Fukuda, J. Hasegawa, M. Ishida, T. Nakajima, 
 Y. Honda, O. Kitao, H. Nakai, T. Vreven, J. A. Montgomery, Jr., 
 J. E. Peralta, F. Ogliaro, M. Bearpark, J. J. Heyd, E. Brothers, 
 K. N. Kudin, V. N. Staroverov, T. Keith, R. Kobayashi, J. Normand, 
 K. Raghavachari, A. Rendell, J. C. Burant, S. S. Iyengar, J. Tomasi, 
 M. Cossi, N. Rega, J. M. Millam, M. Klene, J. E. Knox, J. B. Cross, 
 V. Bakken, C. Adamo, J. Jaramillo, R. Gomperts, R. E. Stratmann, 
 O. Yazyev, A. J. Austin, R. Cammi, C. Pomelli, J. W. Ochterski, 
 R. L. Martin, K. Morokuma, V. G. Zakrzewski, G. A. Voth, 
 P. Salvador, J. J. Dannenberg, S. Dapprich, A. D. Daniels, 
 O. Farkas, J. B. Foresman, J. V. Ortiz, J. Cioslowski, 
 and D. J. Fox, Gaussian, Inc., Wallingford CT, 2013.
 
 ******************************************
 Gaussian 09:  AM64L-G09RevD.01 24-Apr-2013
                16-Apr-2022 
 ******************************************
 %chk=cyclopentane-opt
 --------------------
 # hf/6-31G* opt freq
 --------------------
 1/18=20,19=15,38=1/1,3;
 2/9=110,12=2,17=6,18=5,40=1/2;
 3/5=1,6=6,7=1,11=9,16=1,25=1,30=1,71=1/1,2,3;
 4//1;
 5/5=2,38=5/2;
 6/7=2,8=2,9=2,10=2,28=1/1;
 7//1,2,3,16;
 1/18=20,19=15/3(2);
 2/9=110/2;
 99//99;
 2/9=110/2;
 3/5=1,6=6,7=1,11=9,16=1,25=1,30=1,71=1/1,2,3;
 4/5=5,16=3,69=1/1;
 5/5=2,38=5/2;
 7//1,2,3,16;
 1/18=20,19=15/3(-5);
 2/9=110/2;
 6/7=2,8=2,9=2,10=2,19=2,28=1/1;
 99/9=1/99;
 -------------------------
 Optimisation de geometrie
 -------------------------
 Symbolic Z-matrix:
 Charge =  0 Multiplicity = 1
 C                     1.1922    2.9959    1.0423 
 C                     2.7255    3.0298    0.9305 
 C                     0.8462    1.4882    1.1293 
 C                     3.1656    1.9157    1.8944 
 C                     2.1313    0.7863    1.6682 
 H                     0.8846    3.5068    1.9643 
 H                     0.6862    3.5001    0.2116 
 H                     3.0338    2.7826   -0.0951 
 H                     3.1552    4.0081    1.1743 
 H                    -0.0237    1.3088    1.7701 
 H                     0.5891    1.0986    0.1376 
 H                     4.1977    1.5851    1.733 
 H                     3.1026    2.2836    2.9273 
 H                     1.9419    0.2184    2.5853 
 H                     2.5091    0.0701    0.9292 
 

 GradGradGradGradGradGradGradGradGradGradGradGradGradGradGradGradGradGrad
 Berny optimization.
 Initialization pass.
                           ----------------------------
                           !    Initial Parameters    !
                           ! (Angstroms and Degrees)  !
 --------------------------                            --------------------------
 ! Name  Definition              Value          Derivative Info.                !
 --------------------------------------------------------------------------------
 ! R1    R(1,2)                  1.5377         estimate D2E/DX2                !
 ! R2    R(1,3)                  1.5493         estimate D2E/DX2                !
 ! R3    R(1,6)                  1.0981         estimate D2E/DX2                !
 ! R4    R(1,7)                  1.0956         estimate D2E/DX2                !
 ! R5    R(2,4)                  1.5375         estimate D2E/DX2                !
 ! R6    R(2,8)                  1.0991         estimate D2E/DX2                !
 ! R7    R(2,9)                  1.096          estimate D2E/DX2                !
 ! R8    R(3,5)                  1.5603         estimate D2E/DX2                !
 ! R9    R(3,10)                 1.0952         estimate D2E/DX2                !
 ! R10   R(3,11)                 1.0961         estimate D2E/DX2                !
 ! R11   R(4,5)                  1.5481         estimate D2E/DX2                !
 ! R12   R(4,12)                 1.0957         estimate D2E/DX2                !
 ! R13   R(4,13)                 1.0983         estimate D2E/DX2                !
 ! R14   R(5,14)                 1.0952         estimate D2E/DX2                !
 ! R15   R(5,15)                 1.0963         estimate D2E/DX2                !
 ! A1    A(2,1,3)              104.3717         estimate D2E/DX2                !
 ! A2    A(2,1,6)              109.2756         estimate D2E/DX2                !
 ! A3    A(2,1,7)              113.2813         estimate D2E/DX2                !
 ! A4    A(3,1,6)              110.0637         estimate D2E/DX2                !
 ! A5    A(3,1,7)              112.7851         estimate D2E/DX2                !
 ! A6    A(6,1,7)              107.0466         estimate D2E/DX2                !
 ! A7    A(1,2,4)              102.9357         estimate D2E/DX2                !
 ! A8    A(1,2,8)              110.0339         estimate D2E/DX2                !
 ! A9    A(1,2,9)              113.2313         estimate D2E/DX2                !
 ! A10   A(4,2,8)              109.9823         estimate D2E/DX2                !
 ! A11   A(4,2,9)              113.2735         estimate D2E/DX2                !
 ! A12   A(8,2,9)              107.3593         estimate D2E/DX2                !
 ! A13   A(1,3,5)              105.856          estimate D2E/DX2                !
 ! A14   A(1,3,10)             111.6927         estimate D2E/DX2                !
 ! A15   A(1,3,11)             110.3332         estimate D2E/DX2                !
 ! A16   A(5,3,10)             112.2351         estimate D2E/DX2                !
 ! A17   A(5,3,11)             110.2299         estimate D2E/DX2                !
 ! A18   A(10,3,11)            106.5493         estimate D2E/DX2                !
 ! A19   A(2,4,5)              104.2287         estimate D2E/DX2                !
 ! A20   A(2,4,12)             113.3224         estimate D2E/DX2                !
 ! A21   A(2,4,13)             109.2961         estimate D2E/DX2                !
 ! A22   A(5,4,12)             112.811          estimate D2E/DX2                !
 ! A23   A(5,4,13)             110.0893         estimate D2E/DX2                !
 ! A24   A(12,4,13)            107.0759         estimate D2E/DX2                !
 ! A25   A(3,5,4)              105.8166         estimate D2E/DX2                !
 ! A26   A(3,5,14)             112.3364         estimate D2E/DX2                !
 ! A27   A(3,5,15)             110.176          estimate D2E/DX2                !
 ! A28   A(4,5,14)             111.8075         estimate D2E/DX2                !
 ! A29   A(4,5,15)             110.1741         estimate D2E/DX2                !
 ! A30   A(14,5,15)            106.578          estimate D2E/DX2                !
 ! D1    D(3,1,2,4)            -39.1682         estimate D2E/DX2                !
 ! D2    D(3,1,2,8)             78.0231         estimate D2E/DX2                !
 ! D3    D(3,1,2,9)           -161.8364         estimate D2E/DX2                !
 ! D4    D(6,1,2,4)             78.5283         estimate D2E/DX2                !
 ! D5    D(6,1,2,8)           -164.2804         estimate D2E/DX2                !
 ! D6    D(6,1,2,9)            -44.1399         estimate D2E/DX2                !
 ! D7    D(7,1,2,4)           -162.2254         estimate D2E/DX2                !
 ! D8    D(7,1,2,8)            -45.0341         estimate D2E/DX2                !
 ! D9    D(7,1,2,9)             75.1064         estimate D2E/DX2                !
 ! D10   D(2,1,3,5)             23.5819         estimate D2E/DX2                !
 ! D11   D(2,1,3,10)           146.017          estimate D2E/DX2                !
 ! D12   D(2,1,3,11)           -95.667          estimate D2E/DX2                !
 ! D13   D(6,1,3,5)            -93.5716         estimate D2E/DX2                !
 ! D14   D(6,1,3,10)            28.8634         estimate D2E/DX2                !
 ! D15   D(6,1,3,11)           147.1795         estimate D2E/DX2                !
 ! D16   D(7,1,3,5)            146.9613         estimate D2E/DX2                !
 ! D17   D(7,1,3,10)           -90.6036         estimate D2E/DX2                !
 ! D18   D(7,1,3,11)            27.7124         estimate D2E/DX2                !
 ! D19   D(1,2,4,5)             39.7181         estimate D2E/DX2                !
 ! D20   D(1,2,4,12)           162.7341         estimate D2E/DX2                !
 ! D21   D(1,2,4,13)           -77.942          estimate D2E/DX2                !
 ! D22   D(8,2,4,5)            -77.5098         estimate D2E/DX2                !
 ! D23   D(8,2,4,12)            45.5062         estimate D2E/DX2                !
 ! D24   D(8,2,4,13)           164.83           estimate D2E/DX2                !
 ! D25   D(9,2,4,5)            162.358          estimate D2E/DX2                !
 ! D26   D(9,2,4,12)           -74.626          estimate D2E/DX2                !
 ! D27   D(9,2,4,13)            44.6979         estimate D2E/DX2                !
 ! D28   D(1,3,5,4)              0.8744         estimate D2E/DX2                !
 ! D29   D(1,3,5,14)           123.1385         estimate D2E/DX2                !
 ! D30   D(1,3,5,15)          -118.2018         estimate D2E/DX2                !
 ! D31   D(10,3,5,4)          -121.2141         estimate D2E/DX2                !
 ! D32   D(10,3,5,14)            1.05           estimate D2E/DX2                !
 ! D33   D(10,3,5,15)          119.7097         estimate D2E/DX2                !
 ! D34   D(11,3,5,4)           120.1913         estimate D2E/DX2                !
 ! D35   D(11,3,5,14)         -117.5446         estimate D2E/DX2                !
 ! D36   D(11,3,5,15)            1.1152         estimate D2E/DX2                !
 ! D37   D(2,4,5,3)            -25.0022         estimate D2E/DX2                !
 ! D38   D(2,4,5,14)          -147.6039         estimate D2E/DX2                !
 ! D39   D(2,4,5,15)            94.0752         estimate D2E/DX2                !
 ! D40   D(12,4,5,3)          -148.3513         estimate D2E/DX2                !
 ! D41   D(12,4,5,14)           89.0471         estimate D2E/DX2                !
 ! D42   D(12,4,5,15)          -29.2738         estimate D2E/DX2                !
 ! D43   D(13,4,5,3)            92.1099         estimate D2E/DX2                !
 ! D44   D(13,4,5,14)          -30.4917         estimate D2E/DX2                !
 ! D45   D(13,4,5,15)         -148.8126         estimate D2E/DX2                !
 --------------------------------------------------------------------------------
 Trust Radius=3.00D-01 FncErr=1.00D-07 GrdErr=1.00D-07
 Number of steps in this run=    100 maximum allowed number of steps=    100.
 GradGradGradGradGradGradGradGradGradGradGradGradGradGradGradGradGradGrad

                          Input orientation:                          
 ---------------------------------------------------------------------
 Center     Atomic      Atomic             Coordinates (Angstroms)
 Number     Number       Type             X           Y           Z
 ---------------------------------------------------------------------
      1          6           0        1.192200    2.995900    1.042300
      2          6           0        2.725500    3.029800    0.930500
      3          6           0        0.846200    1.488200    1.129300
      4          6           0        3.165600    1.915700    1.894400
      5          6           0        2.131300    0.786300    1.668200
      6          1           0        0.884600    3.506800    1.964300
      7          1           0        0.686200    3.500100    0.211600
      8          1           0        3.033800    2.782600   -0.095100
      9          1           0        3.155200    4.008100    1.174300
     10          1           0       -0.023700    1.308800    1.770100
     11          1           0        0.589100    1.098600    0.137600
     12          1           0        4.197700    1.585100    1.733000
     13          1           0        3.102600    2.283600    2.927300
     14          1           0        1.941900    0.218400    2.585300
     15          1           0        2.509100    0.070100    0.929200
 ---------------------------------------------------------------------
                    Distance matrix (angstroms):
                    1          2          3          4          5
     1  C    0.000000
     2  C    1.537744   0.000000
     3  C    1.549337   2.438815   0.000000
     4  C    2.405663   1.537534   2.479466   0.000000
     5  C    2.481127   2.435276   1.560307   1.548059   0.000000
     6  H    1.098053   2.164529   2.184822   2.781986   3.007167
     7  H    1.095589   2.212859   2.217096   3.389626   3.402162
     8  H    2.175009   1.099096   2.821386   2.174166   2.812285
     9  H    2.212542   1.095971   3.418099   2.212869   3.416475
    10  H    2.203273   3.350354   1.095233   3.248909   2.219778
    11  H    2.186769   2.987043   1.096065   3.223717   2.195142
    12  H    3.391232   2.213264   3.406816   1.095708   2.216369
    13  H    2.776729   2.164770   2.992792   1.098272   2.184185
    14  H    3.264568   3.355050   2.221010   2.203545   1.095196
    15  H    3.210502   2.967601   2.194603   2.183768   1.096265
                    6          7          8          9         10
     6  H    0.000000
     7  H    1.763906   0.000000
     8  H    3.063438   2.473883   0.000000
     9  H    2.455815   2.698299   1.768605   0.000000
    10  H    2.386195   2.781129   3.872901   4.212672   0.000000
    11  H    3.037035   2.404601   2.977678   4.015570   1.756350
    12  H    3.837064   4.279312   2.476009   2.696272   4.230595
    13  H    2.709818   3.833261   3.064088   2.459609   3.473197
    14  H    3.509572   4.240376   3.866770   4.221948   2.391047
    15  H    3.939713   3.950040   2.946550   3.998170   2.942204
                   11         12         13         14         15
    11  H    0.000000
    12  H    3.975422   0.000000
    13  H    3.937554   1.764511   0.000000
    14  H    2.931903   2.771808   2.393583   0.000000
    15  H    2.317508   2.406801   3.040432   1.756808   0.000000
 Stoichiometry    C5H10
 Framework group  C1[X(C5H10)]
 Deg. of freedom    39
 Full point group                 C1      NOp   1
 Largest Abelian subgroup         C1      NOp   1
 Largest concise Abelian subgroup C1      NOp   1
                         Standard orientation:                         
 ---------------------------------------------------------------------
 Center     Atomic      Atomic             Coordinates (Angstroms)
 Number     Number       Type             X           Y           Z
 ---------------------------------------------------------------------
      1          6           0       -1.138730   -0.574218   -0.199094
      2          6           0        0.164498   -1.245931    0.264648
      3          6           0       -0.908886    0.934917    0.065722
      4          6           0        1.246350   -0.260292   -0.206649
      5          6           0        0.638478    1.135250    0.075207
      6          1           0       -1.275295   -0.751521   -1.274098
      7          1           0       -2.029777   -0.962783    0.306247
      8          1           0        0.178790   -1.323321    1.360923
      9          1           0        0.295921   -2.257422   -0.136308
     10          1           0       -1.402840    1.557937   -0.687530
     11          1           0       -1.333992    1.220626    1.034749
     12          1           0        2.213595   -0.409700    0.285988
     13          1           0        1.410224   -0.389604   -1.284900
     14          1           0        0.966538    1.877919   -0.659826
     15          1           0        0.966578    1.499517    1.055746
 ---------------------------------------------------------------------
 Rotational constants (GHZ):      6.4567654      6.4563597      3.7244690
 Standard basis: 6-31G(d) (6D, 7F)
 There are    95 symmetry adapted cartesian basis functions of A   symmetry.
 There are    95 symmetry adapted basis functions of A   symmetry.
    95 basis functions,   180 primitive gaussians,    95 cartesian basis functions
    20 alpha electrons       20 beta electrons
       nuclear repulsion energy       186.9172795433 Hartrees.
 NAtoms=   15 NActive=   15 NUniq=   15 SFac= 1.00D+00 NAtFMM=   60 NAOKFM=F Big=F
 Integral buffers will be    131072 words long.
 Raffenetti 1 integral format.
 Two-electron integral symmetry is turned on.
 One-electron integrals computed using PRISM.
 NBasis=    95 RedAO= T EigKep=  3.58D-03  NBF=    95
 NBsUse=    95 1.00D-06 EigRej= -1.00D+00 NBFU=    95
 ExpMin= 1.61D-01 ExpMax= 3.05D+03 ExpMxC= 4.57D+02 IAcc=1 IRadAn=         1 AccDes= 0.00D+00
 Harris functional with IExCor=  205 and IRadAn=       1 diagonalized for initial guess.
 HarFok:  IExCor=  205 AccDes= 0.00D+00 IRadAn=         1 IDoV= 1 UseB2=F ITyADJ=14
 ICtDFT=  3500011 ScaDFX=  1.000000  1.000000  1.000000  1.000000
 FoFCou: FMM=F IPFlag=           0 FMFlag=      100000 FMFlg1=           0
         NFxFlg=           0 DoJE=T BraDBF=F KetDBF=T FulRan=T
         wScrn=  0.000000 ICntrl=     500 IOpCl=  0 I1Cent=   200000004 NGrid=           0
         NMat0=    1 NMatS0=      1 NMatT0=    0 NMatD0=    1 NMtDS0=    0 NMtDT0=    0
 Petite list used in FoFCou.
 Keep R1 ints in memory in canonical form, NReq=11330170.
 Requested convergence on RMS density matrix=1.00D-08 within 128 cycles.
 Requested convergence on MAX density matrix=1.00D-06.
 Requested convergence on             energy=1.00D-06.
 No special actions if energy rises.
 SCF Done:  E(RHF) =  -195.162659406     A.U. after   10 cycles
            NFock= 10  Conv=0.55D-08     -V/T= 2.0014

 **********************************************************************

            Population analysis using the SCF density.

 **********************************************************************

 Orbital symmetries:
       Occupied  (A) (A) (A) (A) (A) (A) (A) (A) (A) (A) (A) (A)
                 (A) (A) (A) (A) (A) (A) (A) (A)
       Virtual   (A) (A) (A) (A) (A) (A) (A) (A) (A) (A) (A) (A)
                 (A) (A) (A) (A) (A) (A) (A) (A) (A) (A) (A) (A)
                 (A) (A) (A) (A) (A) (A) (A) (A) (A) (A) (A) (A)
                 (A) (A) (A) (A) (A) (A) (A) (A) (A) (A) (A) (A)
                 (A) (A) (A) (A) (A) (A) (A) (A) (A) (A) (A) (A)
                 (A) (A) (A) (A) (A) (A) (A) (A) (A) (A) (A) (A)
                 (A) (A) (A)
 The electronic state is 1-A.
 Alpha  occ. eigenvalues --  -11.21490 -11.21449 -11.21439 -11.21392 -11.21362
 Alpha  occ. eigenvalues --   -1.10896  -0.95360  -0.95302  -0.77371  -0.76622
 Alpha  occ. eigenvalues --   -0.64497  -0.63968  -0.56676  -0.56530  -0.47377
 Alpha  occ. eigenvalues --   -0.47283  -0.46178  -0.45829  -0.45730  -0.44830
 Alpha virt. eigenvalues --    0.22260   0.24341   0.29218   0.29230   0.31931
 Alpha virt. eigenvalues --    0.33085   0.33169   0.34278   0.35030   0.36181
 Alpha virt. eigenvalues --    0.37275   0.41296   0.42042   0.47434   0.50685
 Alpha virt. eigenvalues --    0.71391   0.74798   0.75665   0.78123   0.79580
 Alpha virt. eigenvalues --    0.80462   0.91992   0.93492   0.94153   0.94298
 Alpha virt. eigenvalues --    0.94536   0.99389   1.05704   1.07174   1.13573
 Alpha virt. eigenvalues --    1.13658   1.15682   1.15723   1.16810   1.20113
 Alpha virt. eigenvalues --    1.21122   1.21420   1.23305   1.24921   1.25349
 Alpha virt. eigenvalues --    1.42151   1.55250   1.58463   1.60799   1.84098
 Alpha virt. eigenvalues --    1.88726   1.94823   2.09293   2.11438   2.12589
 Alpha virt. eigenvalues --    2.13094   2.20124   2.29152   2.31314   2.33099
 Alpha virt. eigenvalues --    2.37648   2.38973   2.40898   2.49620   2.56656
 Alpha virt. eigenvalues --    2.58114   2.71324   2.72301   2.78352   2.88396
 Alpha virt. eigenvalues --    2.88662   2.96678   2.96788   2.98029   3.19548
 Alpha virt. eigenvalues --    4.57170   4.70164   4.70583   4.97686   5.04334
          Condensed to atoms (all electrons):
               1          2          3          4          5          6
     1  C    5.125673   0.344365   0.337826  -0.083099  -0.062907   0.398989
     2  C    0.344365   5.122796  -0.074468   0.344327  -0.075397  -0.042707
     3  C    0.337826  -0.074468   5.135898  -0.063386   0.326943  -0.041522
     4  C   -0.083099   0.344327  -0.063386   5.125167   0.338769  -0.001255
     5  C   -0.062907  -0.075397   0.326943   0.338769   5.135520   0.001775
     6  H    0.398989  -0.042707  -0.041522  -0.001255   0.001775   0.556269
     7  H    0.398712  -0.033463  -0.033096   0.004901   0.003765  -0.028026
     8  H   -0.042549   0.397575  -0.000326  -0.042599  -0.000474   0.004367
     9  H   -0.032824   0.397883   0.004420  -0.032818   0.004460  -0.003952
    10  H   -0.035441   0.004489   0.400066   0.002828  -0.034612  -0.005305
    11  H   -0.038887   0.001079   0.399890   0.003288  -0.038417   0.003714
    12  H    0.004888  -0.033387   0.003816   0.398610  -0.033056  -0.000125
    13  H   -0.001323  -0.042774   0.001660   0.398873  -0.041660   0.001898
    14  H    0.002909   0.004555  -0.034396  -0.035301   0.400033  -0.000096
    15  H    0.003190   0.000903  -0.038663  -0.039283   0.399845  -0.000041
               7          8          9         10         11         12
     1  C    0.398712  -0.042549  -0.032824  -0.035441  -0.038887   0.004888
     2  C   -0.033463   0.397575   0.397883   0.004489   0.001079  -0.033387
     3  C   -0.033096  -0.000326   0.004420   0.400066   0.399890   0.003816
     4  C    0.004901  -0.042599  -0.032818   0.002828   0.003288   0.398610
     5  C    0.003765  -0.000474   0.004460  -0.034612  -0.038417  -0.033056
     6  H   -0.028026   0.004367  -0.003952  -0.005305   0.003714  -0.000125
     7  H    0.531107  -0.004012   0.000352   0.001198  -0.004436  -0.000079
     8  H   -0.004012   0.560999  -0.028320  -0.000076   0.000823  -0.003971
     9  H    0.000352  -0.028320   0.533007  -0.000098  -0.000100   0.000330
    10  H    0.001198  -0.000076  -0.000098   0.533751  -0.028455  -0.000058
    11  H   -0.004436   0.000823  -0.000100  -0.028455   0.544225  -0.000151
    12  H   -0.000079  -0.003971   0.000330  -0.000058  -0.000151   0.531296
    13  H   -0.000124   0.004386  -0.003924  -0.000072  -0.000043  -0.028051
    14  H   -0.000056  -0.000079  -0.000096  -0.004708   0.002520   0.001112
    15  H   -0.000156   0.000925  -0.000103   0.002613  -0.006346  -0.004410
              13         14         15
     1  C   -0.001323   0.002909   0.003190
     2  C   -0.042774   0.004555   0.000903
     3  C    0.001660  -0.034396  -0.038663
     4  C    0.398873  -0.035301  -0.039283
     5  C   -0.041660   0.400033   0.399845
     6  H    0.001898  -0.000096  -0.000041
     7  H   -0.000124  -0.000056  -0.000156
     8  H    0.004386  -0.000079   0.000925
     9  H   -0.003924  -0.000096  -0.000103
    10  H   -0.000072  -0.004708   0.002613
    11  H   -0.000043   0.002520  -0.006346
    12  H   -0.028051   0.001112  -0.004410
    13  H    0.556927  -0.005196   0.003782
    14  H   -0.005196   0.533193  -0.028386
    15  H    0.003782  -0.028386   0.545148
 Mulliken charges:
               1
     1  C   -0.319522
     2  C   -0.315777
     3  C   -0.324661
     4  C   -0.319021
     5  C   -0.324586
     6  H    0.156017
     7  H    0.163411
     8  H    0.153331
     9  H    0.161785
    10  H    0.163878
    11  H    0.161294
    12  H    0.163235
    13  H    0.155641
    14  H    0.163991
    15  H    0.160983
 Sum of Mulliken charges =  -0.00000
 Mulliken charges with hydrogens summed into heavy atoms:
               1
     1  C   -0.000094
     2  C   -0.000660
     3  C    0.000511
     4  C   -0.000145
     5  C    0.000388
 Electronic spatial extent (au):  <R**2>=            415.9664
 Charge=             -0.0000 electrons
 Dipole moment (field-independent basis, Debye):
    X=              0.0002    Y=             -0.0016    Z=              0.0008  Tot=              0.0018
 Quadrupole moment (field-independent basis, Debye-Ang):
   XX=            -34.0336   YY=            -34.0559   ZZ=            -32.9297
   XY=              0.0041   XZ=              0.0017   YZ=             -0.0257
 Traceless Quadrupole moment (field-independent basis, Debye-Ang):
   XX=             -0.3605   YY=             -0.3829   ZZ=              0.7434
   XY=              0.0041   XZ=              0.0017   YZ=             -0.0257
 Octapole moment (field-independent basis, Debye-Ang**2):
  XXX=              0.0908  YYY=             -0.5124  ZZZ=              0.0413  XYY=              0.0277
  XXY=             -0.1791  XXZ=              0.9532  XZZ=             -0.1031  YZZ=              0.5918
  YYZ=             -1.0023  XYZ=              0.2376
 Hexadecapole moment (field-independent basis, Debye-Ang**3):
 XXXX=           -248.6101 YYYY=           -249.0740 ZZZZ=            -75.0811 XXXY=              0.3893
 XXXZ=              0.4444 YYYX=             -0.2944 YYYZ=             -0.1421 ZZZX=             -0.0423
 ZZZY=              0.6353 XXYY=            -83.8207 XXZZ=            -53.3242 YYZZ=            -53.1105
 XXYZ=             -1.1996 YYXZ=             -0.3557 ZZXY=             -0.0395
 N-N= 1.869172795433D+02 E-N=-8.274171554980D+02  KE= 1.948888689938D+02
 Calling FoFJK, ICntrl=      2127 FMM=F ISym2X=0 I1Cent= 0 IOpClX= 0 NMat=1 NMatS=1 NMatT=0.
 ***** Axes restored to original set *****
 -------------------------------------------------------------------
 Center     Atomic                   Forces (Hartrees/Bohr)
 Number     Number              X              Y              Z
 -------------------------------------------------------------------
      1        6          -0.002651725    0.003054749    0.000961315
      2        6           0.002390841    0.001933649   -0.002985211
      3        6          -0.003253602   -0.001761468   -0.001324685
      4        6           0.002678762    0.000335940    0.003292976
      5        6           0.000703614   -0.003950014    0.000141784
      6        1           0.002155879   -0.003529362   -0.006284143
      7        1           0.003543027   -0.003707301    0.005576565
      8        1          -0.002194161    0.001590334    0.007062428
      9        1          -0.003084133   -0.006827222   -0.001491597
     10        1           0.006177442    0.001257360   -0.004229194
     11        1           0.001898234    0.002800607    0.006763510
     12        1          -0.007269744    0.002141261    0.000900538
     13        1           0.000372766   -0.002514022   -0.007149844
     14        1           0.001095710    0.004089746   -0.006274953
     15        1          -0.002562909    0.005085745    0.005040511
 -------------------------------------------------------------------
 Cartesian Forces:  Max     0.007269744 RMS     0.003831717

 GradGradGradGradGradGradGradGradGradGradGradGradGradGradGradGradGradGrad
 Berny optimization.
 FormGI is forming the generalized inverse of G from B-inverse, IUseBI=4.
 Internal  Forces:  Max     0.007635219 RMS     0.002728299
 Search for a local minimum.
 Step number   1 out of a maximum of  100
 All quantities printed in internal units (Hartrees-Bohrs-Radians)
 Mixed Optimization -- RFO/linear search
 Second derivative matrix not updated -- first step.
 ITU=  0
     Eigenvalues ---    0.00259   0.00442   0.01955   0.01966   0.04052
     Eigenvalues ---    0.04108   0.04257   0.04769   0.05047   0.05153
     Eigenvalues ---    0.05474   0.05591   0.06110   0.06750   0.06938
     Eigenvalues ---    0.06970   0.07188   0.07195   0.08720   0.08747
     Eigenvalues ---    0.11081   0.11293   0.20192   0.20571   0.25766
     Eigenvalues ---    0.26175   0.27543   0.27635   0.28156   0.33782
     Eigenvalues ---    0.33874   0.33898   0.34099   0.34121   0.34132
     Eigenvalues ---    0.34161   0.34175   0.34215   0.34219
 RFO step:  Lambda=-2.02195777D-03 EMin= 2.58851368D-03
 Linear search not attempted -- first point.
 Iteration  1 RMS(Cart)=  0.01123438 RMS(Int)=  0.00001145
 Iteration  2 RMS(Cart)=  0.00001023 RMS(Int)=  0.00000107
 Iteration  3 RMS(Cart)=  0.00000000 RMS(Int)=  0.00000107
 Variable       Old X    -DE/DX   Delta X   Delta X   Delta X     New X
                                 (Linear)    (Quad)   (Total)
    R1        2.90592  -0.00410   0.00000  -0.01427  -0.01427   2.89164
    R2        2.92782  -0.00450   0.00000  -0.01609  -0.01609   2.91174
    R3        2.07502  -0.00752   0.00000  -0.02206  -0.02206   2.05296
    R4        2.07036  -0.00757   0.00000  -0.02202  -0.02202   2.04834
    R5        2.90552  -0.00415   0.00000  -0.01442  -0.01442   2.89110
    R6        2.07699  -0.00756   0.00000  -0.02226  -0.02226   2.05474
    R7        2.07108  -0.00764   0.00000  -0.02224  -0.02224   2.04885
    R8        2.94855  -0.00459   0.00000  -0.01686  -0.01686   2.93169
    R9        2.06969  -0.00759   0.00000  -0.02204  -0.02204   2.04765
   R10        2.07126  -0.00756   0.00000  -0.02203  -0.02203   2.04924
   R11        2.92541  -0.00439   0.00000  -0.01564  -0.01564   2.90977
   R12        2.07059  -0.00763   0.00000  -0.02219  -0.02219   2.04840
   R13        2.07543  -0.00759   0.00000  -0.02227  -0.02227   2.05317
   R14        2.06962  -0.00756   0.00000  -0.02198  -0.02198   2.04764
   R15        2.07164  -0.00760   0.00000  -0.02217  -0.02217   2.04947
    A1        1.82163  -0.00010   0.00000  -0.00097  -0.00097   1.82066
    A2        1.90722   0.00003   0.00000   0.00081   0.00082   1.90804
    A3        1.97713   0.00003   0.00000  -0.00067  -0.00067   1.97646
    A4        1.92097   0.00008   0.00000   0.00111   0.00111   1.92209
    A5        1.96847  -0.00011   0.00000  -0.00201  -0.00202   1.96646
    A6        1.86832   0.00007   0.00000   0.00178   0.00178   1.87010
    A7        1.79657  -0.00007   0.00000  -0.00108  -0.00108   1.79549
    A8        1.92045   0.00001   0.00000   0.00030   0.00030   1.92076
    A9        1.97626  -0.00002   0.00000  -0.00078  -0.00078   1.97548
   A10        1.91955   0.00003   0.00000   0.00042   0.00042   1.91997
   A11        1.97700  -0.00003   0.00000  -0.00084  -0.00085   1.97615
   A12        1.87377   0.00009   0.00000   0.00190   0.00190   1.87567
   A13        1.84754   0.00009   0.00000   0.00028   0.00028   1.84781
   A14        1.94941   0.00001   0.00000  -0.00024  -0.00024   1.94916
   A15        1.92568  -0.00011   0.00000  -0.00072  -0.00073   1.92495
   A16        1.95887  -0.00015   0.00000  -0.00166  -0.00166   1.95721
   A17        1.92387   0.00003   0.00000   0.00038   0.00038   1.92425
   A18        1.85964   0.00013   0.00000   0.00192   0.00192   1.86156
   A19        1.81913  -0.00011   0.00000  -0.00107  -0.00108   1.81806
   A20        1.97785   0.00004   0.00000  -0.00060  -0.00060   1.97724
   A21        1.90758   0.00003   0.00000   0.00084   0.00084   1.90842
   A22        1.96892  -0.00011   0.00000  -0.00207  -0.00207   1.96685
   A23        1.92142   0.00008   0.00000   0.00111   0.00111   1.92253
   A24        1.86883   0.00007   0.00000   0.00184   0.00184   1.87067
   A25        1.84685   0.00006   0.00000   0.00012   0.00012   1.84697
   A26        1.96064  -0.00018   0.00000  -0.00207  -0.00207   1.95857
   A27        1.92293   0.00003   0.00000   0.00036   0.00036   1.92329
   A28        1.95141   0.00005   0.00000   0.00013   0.00013   1.95153
   A29        1.92290  -0.00008   0.00000  -0.00038  -0.00038   1.92252
   A30        1.86014   0.00011   0.00000   0.00181   0.00181   1.86195
    D1       -0.68361  -0.00012   0.00000  -0.00285  -0.00285  -0.68646
    D2        1.36176  -0.00012   0.00000  -0.00280  -0.00280   1.35896
    D3       -2.82458  -0.00002   0.00000  -0.00068  -0.00068  -2.82526
    D4        1.37058  -0.00006   0.00000  -0.00169  -0.00169   1.36889
    D5       -2.86723  -0.00006   0.00000  -0.00164  -0.00164  -2.86887
    D6       -0.77039   0.00004   0.00000   0.00048   0.00048  -0.76991
    D7       -2.83137   0.00007   0.00000   0.00069   0.00069  -2.83067
    D8       -0.78599   0.00006   0.00000   0.00075   0.00075  -0.78525
    D9        1.31085   0.00017   0.00000   0.00286   0.00286   1.31372
   D10        0.41158   0.00009   0.00000   0.00178   0.00178   0.41336
   D11        2.54848  -0.00003   0.00000  -0.00022  -0.00022   2.54826
   D12       -1.66970   0.00006   0.00000   0.00156   0.00156  -1.66815
   D13       -1.63313   0.00007   0.00000   0.00083   0.00083  -1.63230
   D14        0.50376  -0.00005   0.00000  -0.00117  -0.00117   0.50259
   D15        2.56877   0.00004   0.00000   0.00060   0.00060   2.56937
   D16        2.56496  -0.00001   0.00000  -0.00087  -0.00087   2.56409
   D17       -1.58133  -0.00013   0.00000  -0.00287  -0.00287  -1.58420
   D18        0.48367  -0.00004   0.00000  -0.00110  -0.00109   0.48258
   D19        0.69321   0.00011   0.00000   0.00290   0.00290   0.69611
   D20        2.84025  -0.00008   0.00000  -0.00074  -0.00074   2.83951
   D21       -1.36034   0.00006   0.00000   0.00178   0.00178  -1.35856
   D22       -1.35280   0.00012   0.00000   0.00293   0.00293  -1.34987
   D23        0.79423  -0.00007   0.00000  -0.00071  -0.00071   0.79352
   D24        2.87683   0.00007   0.00000   0.00181   0.00181   2.87864
   D25        2.83368   0.00002   0.00000   0.00077   0.00077   2.83445
   D26       -1.30247  -0.00017   0.00000  -0.00287  -0.00287  -1.30534
   D27        0.78013  -0.00004   0.00000  -0.00035  -0.00035   0.77978
   D28        0.01526   0.00000   0.00000   0.00015   0.00015   0.01541
   D29        2.14917  -0.00000   0.00000  -0.00084  -0.00084   2.14833
   D30       -2.06301   0.00005   0.00000   0.00035   0.00035  -2.06266
   D31       -2.11559   0.00002   0.00000   0.00125   0.00125  -2.11433
   D32        0.01833   0.00001   0.00000   0.00026   0.00026   0.01859
   D33        2.08933   0.00007   0.00000   0.00145   0.00145   2.09078
   D34        2.09773  -0.00006   0.00000  -0.00035  -0.00035   2.09739
   D35       -2.05154  -0.00006   0.00000  -0.00134  -0.00134  -2.05288
   D36        0.01946  -0.00001   0.00000  -0.00015  -0.00015   0.01931
   D37       -0.43637  -0.00010   0.00000  -0.00203  -0.00203  -0.43841
   D38       -2.57617   0.00006   0.00000   0.00035   0.00035  -2.57582
   D39        1.64192  -0.00007   0.00000  -0.00174  -0.00174   1.64018
   D40       -2.58922  -0.00000   0.00000   0.00063   0.00063  -2.58859
   D41        1.55417   0.00015   0.00000   0.00301   0.00301   1.55718
   D42       -0.51092   0.00003   0.00000   0.00092   0.00092  -0.51001
   D43        1.60762  -0.00008   0.00000  -0.00111  -0.00111   1.60651
   D44       -0.53218   0.00007   0.00000   0.00128   0.00128  -0.53090
   D45       -2.59727  -0.00005   0.00000  -0.00082  -0.00082  -2.59809
         Item               Value     Threshold  Converged?
 Maximum Force            0.007635     0.000450     NO 
 RMS     Force            0.002728     0.000300     NO 
 Maximum Displacement     0.034227     0.001800     NO 
 RMS     Displacement     0.011233     0.001200     NO 
 Predicted change in Energy=-1.017290D-03
 GradGradGradGradGradGradGradGradGradGradGradGradGradGradGradGradGradGrad

                          Input orientation:                          
 ---------------------------------------------------------------------
 Center     Atomic      Atomic             Coordinates (Angstroms)
 Number     Number       Type             X           Y           Z
 ---------------------------------------------------------------------
      1          6           0        1.196265    2.990986    1.044995
      2          6           0        2.721900    3.024141    0.931759
      3          6           0        0.853043    1.491291    1.130152
      4          6           0        3.159163    1.916768    1.892554
      5          6           0        2.130820    0.793357    1.665846
      6          1           0        0.892464    3.496411    1.957393
      7          1           0        0.695369    3.488130    0.222275
      8          1           0        3.025866    2.777885   -0.082749
      9          1           0        3.146924    3.991952    1.172990
     10          1           0       -0.006523    1.312829    1.765303
     11          1           0        0.599171    1.107255    0.148313
     12          1           0        4.179588    1.588272    1.731925
     13          1           0        3.096356    2.281156    2.914187
     14          1           0        1.941286    0.231885    2.573008
     15          1           0        2.505608    0.085783    0.934350
 ---------------------------------------------------------------------
                    Distance matrix (angstroms):
                    1          2          3          4          5
     1  C    0.000000
     2  C    1.530191   0.000000
     3  C    1.540825   2.425205   0.000000
     4  C    2.392754   1.529903   2.465862   0.000000
     5  C    2.467474   2.421706   1.551385   1.539785   0.000000
     6  H    1.086379   2.149838   2.169422   2.763585   2.987479
     7  H    1.083935   2.196698   2.199197   3.365901   3.377310
     8  H    2.159782   1.087319   2.801359   2.158961   2.792319
     9  H    2.196221   1.084203   3.393675   2.196432   3.392106
    10  H    2.186722   3.326812   1.083568   3.225290   2.201812
    11  H    2.170023   2.965505   1.084409   3.201757   2.178851
    12  H    3.367447   2.197007   3.381928   1.083964   2.198569
    13  H    2.758276   2.149946   2.973066   1.086489   2.168908
    14  H    3.240760   3.331629   2.202773   2.187481   1.083567
    15  H    3.188547   2.946309   2.178247   2.167440   1.084534
                    6          7          8          9         10
     6  H    0.000000
     7  H    1.746296   0.000000
     8  H    3.038069   2.455342   0.000000
     9  H    2.437917   2.677278   1.750855   0.000000
    10  H    2.369199   2.757811   3.841493   4.180043   0.000000
    11  H    3.011122   2.383964   2.955206   3.982773   1.738903
    12  H    3.807495   4.245973   2.457498   2.675160   4.195295
    13  H    2.692478   3.803671   3.038640   2.441546   3.447528
    14  H    3.483696   4.204924   3.835554   4.189477   2.369554
    15  H    3.909122   3.919181   2.924478   3.965652   2.916664
                   11         12         13         14         15
    11  H    0.000000
    12  H    3.944438   0.000000
    13  H    3.906922   1.746775   0.000000
    14  H    2.906320   2.749036   2.376994   0.000000
    15  H    2.301253   2.386589   3.014698   1.739255   0.000000
 Stoichiometry    C5H10
 Framework group  C1[X(C5H10)]
 Deg. of freedom    39
 Full point group                 C1      NOp   1
 Largest Abelian subgroup         C1      NOp   1
 Largest concise Abelian subgroup C1      NOp   1
                         Standard orientation:                         
 ---------------------------------------------------------------------
 Center     Atomic      Atomic             Coordinates (Angstroms)
 Number     Number       Type             X           Y           Z
 ---------------------------------------------------------------------
      1          6           0       -1.139625   -0.556866   -0.199100
      2          6           0        0.148249   -1.241010    0.264378
      3          6           0       -0.892073    0.940707    0.065728
      4          6           0        1.236363   -0.274210   -0.206695
      5          6           0        0.648789    1.120846    0.075281
      6          1           0       -1.276354   -0.730810   -1.262711
      7          1           0       -2.025827   -0.928839    0.302097
      8          1           0        0.161163   -1.315704    1.349052
      9          1           0        0.265822   -2.243176   -0.132277
     10          1           0       -1.371432    1.563667   -0.680096
     11          1           0       -1.309416    1.227029    1.024782
     12          1           0        2.190980   -0.432438    0.281822
     13          1           0        1.396246   -0.404416   -1.273439
     14          1           0        0.980349    1.852017   -0.652437
     15          1           0        0.978248    1.475872    1.045656
 ---------------------------------------------------------------------
 Rotational constants (GHZ):      6.5398216      6.5383346      3.7704416
 Standard basis: 6-31G(d) (6D, 7F)
 There are    95 symmetry adapted cartesian basis functions of A   symmetry.
 There are    95 symmetry adapted basis functions of A   symmetry.
    95 basis functions,   180 primitive gaussians,    95 cartesian basis functions
    20 alpha electrons       20 beta electrons
       nuclear repulsion energy       188.1999477786 Hartrees.
 NAtoms=   15 NActive=   15 NUniq=   15 SFac= 1.00D+00 NAtFMM=   60 NAOKFM=F Big=F
 Integral buffers will be    131072 words long.
 Raffenetti 1 integral format.
 Two-electron integral symmetry is turned on.
 One-electron integrals computed using PRISM.
 NBasis=    95 RedAO= T EigKep=  3.44D-03  NBF=    95
 NBsUse=    95 1.00D-06 EigRej= -1.00D+00 NBFU=    95
 Initial guess from the checkpoint file:  "cyclopentane-opt.chk"
 B after Tr=     0.000000    0.000000    0.000000
         Rot=    0.999981   -0.000002   -0.000003    0.006198 Ang=  -0.71 deg.
 ExpMin= 1.61D-01 ExpMax= 3.05D+03 ExpMxC= 4.57D+02 IAcc=1 IRadAn=         1 AccDes= 0.00D+00
 Harris functional with IExCor=  205 and IRadAn=       1 diagonalized for initial guess.
 HarFok:  IExCor=  205 AccDes= 0.00D+00 IRadAn=         1 IDoV= 1 UseB2=F ITyADJ=14
 ICtDFT=  3500011 ScaDFX=  1.000000  1.000000  1.000000  1.000000
 FoFCou: FMM=F IPFlag=           0 FMFlag=      100000 FMFlg1=           0
         NFxFlg=           0 DoJE=T BraDBF=F KetDBF=T FulRan=T
         wScrn=  0.000000 ICntrl=     500 IOpCl=  0 I1Cent=   200000004 NGrid=           0
         NMat0=    1 NMatS0=      1 NMatT0=    0 NMatD0=    1 NMtDS0=    0 NMtDT0=    0
 Petite list used in FoFCou.
 Keep R1 ints in memory in canonical form, NReq=11330327.
 Requested convergence on RMS density matrix=1.00D-08 within 128 cycles.
 Requested convergence on MAX density matrix=1.00D-06.
 Requested convergence on             energy=1.00D-06.
 No special actions if energy rises.
 SCF Done:  E(RHF) =  -195.163566004     A.U. after    8 cycles
            NFock=  8  Conv=0.84D-08     -V/T= 2.0002
 Calling FoFJK, ICntrl=      2127 FMM=F ISym2X=0 I1Cent= 0 IOpClX= 0 NMat=1 NMatS=1 NMatT=0.
 ***** Axes restored to original set *****
 -------------------------------------------------------------------
 Center     Atomic                   Forces (Hartrees/Bohr)
 Number     Number              X              Y              Z
 -------------------------------------------------------------------
      1        6          -0.000361311    0.000300906   -0.000092086
      2        6           0.000279882    0.000385943   -0.000159126
      3        6          -0.000327732   -0.000205201   -0.000035841
      4        6           0.000401708   -0.000103643    0.000232945
      5        6          -0.000026488   -0.000388235    0.000104022
      6        1          -0.000128564    0.000298932    0.000470994
      7        1          -0.000357002    0.000376946   -0.000528229
      8        1           0.000147530   -0.000147488   -0.000529728
      9        1           0.000307165    0.000661866    0.000124122
     10        1          -0.000586296   -0.000148790    0.000372648
     11        1          -0.000188399   -0.000202048   -0.000583128
     12        1           0.000710231   -0.000211971   -0.000067291
     13        1          -0.000022951    0.000223126    0.000523741
     14        1          -0.000108765   -0.000418655    0.000568995
     15        1           0.000260994   -0.000421690   -0.000402036
 -------------------------------------------------------------------
 Cartesian Forces:  Max     0.000710231 RMS     0.000349218

 GradGradGradGradGradGradGradGradGradGradGradGradGradGradGradGradGradGrad
 Berny optimization.
 Using GEDIIS/GDIIS optimizer.
 FormGI is forming the generalized inverse of G from B-inverse, IUseBI=4.
 Internal  Forces:  Max     0.001071730 RMS     0.000336314
 Search for a local minimum.
 Step number   2 out of a maximum of  100
 All quantities printed in internal units (Hartrees-Bohrs-Radians)
 Mixed Optimization -- En-DIIS/RFO-DIIS
 Update second derivatives using D2CorX and points    1    2
 DE= -9.07D-04 DEPred=-1.02D-03 R= 8.91D-01
 TightC=F SS=  1.41D+00  RLast= 7.90D-02 DXNew= 5.0454D-01 2.3714D-01
 Trust test= 8.91D-01 RLast= 7.90D-02 DXMaxT set to 3.00D-01
 ITU=  1  0
 Use linear search instead of GDIIS.
     Eigenvalues ---    0.00259   0.00444   0.01960   0.01969   0.04062
     Eigenvalues ---    0.04122   0.04279   0.04765   0.05047   0.05150
     Eigenvalues ---    0.05477   0.05593   0.06114   0.06737   0.06926
     Eigenvalues ---    0.06956   0.07186   0.07194   0.08713   0.08736
     Eigenvalues ---    0.11069   0.11286   0.20182   0.20565   0.25822
     Eigenvalues ---    0.26159   0.27524   0.27652   0.29002   0.33798
     Eigenvalues ---    0.33882   0.33921   0.34102   0.34122   0.34145
     Eigenvalues ---    0.34168   0.34199   0.34217   0.36966
 RFO step:  Lambda=-6.14165445D-06 EMin= 2.59028236D-03
 Quartic linear search produced a step of -0.09977.
 Iteration  1 RMS(Cart)=  0.00164690 RMS(Int)=  0.00000045
 Iteration  2 RMS(Cart)=  0.00000041 RMS(Int)=  0.00000009
 Variable       Old X    -DE/DX   Delta X   Delta X   Delta X     New X
                                 (Linear)    (Quad)   (Total)
    R1        2.89164   0.00107   0.00142   0.00188   0.00330   2.89494
    R2        2.91174   0.00107   0.00160   0.00173   0.00334   2.91508
    R3        2.05296   0.00057   0.00220  -0.00083   0.00137   2.05433
    R4        2.04834   0.00074   0.00220  -0.00039   0.00180   2.05015
    R5        2.89110   0.00107   0.00144   0.00187   0.00331   2.89440
    R6        2.05474   0.00057   0.00222  -0.00085   0.00137   2.05611
    R7        2.04885   0.00074   0.00222  -0.00041   0.00181   2.05065
    R8        2.93169   0.00107   0.00168   0.00171   0.00339   2.93509
    R9        2.04765   0.00071   0.00220  -0.00048   0.00172   2.04937
   R10        2.04924   0.00064   0.00220  -0.00064   0.00156   2.05079
   R11        2.90977   0.00106   0.00156   0.00174   0.00330   2.91307
   R12        2.04840   0.00074   0.00221  -0.00040   0.00181   2.05021
   R13        2.05317   0.00057   0.00222  -0.00085   0.00137   2.05453
   R14        2.04764   0.00071   0.00219  -0.00046   0.00173   2.04938
   R15        2.04947   0.00064   0.00221  -0.00067   0.00154   2.05101
    A1        1.82066  -0.00000   0.00010   0.00013   0.00023   1.82089
    A2        1.90804  -0.00004  -0.00008  -0.00045  -0.00053   1.90750
    A3        1.97646   0.00002   0.00007   0.00012   0.00019   1.97665
    A4        1.92209   0.00002  -0.00011   0.00018   0.00007   1.92215
    A5        1.96646   0.00002   0.00020   0.00010   0.00030   1.96676
    A6        1.87010  -0.00002  -0.00018  -0.00009  -0.00027   1.86983
    A7        1.79549   0.00002   0.00011   0.00035   0.00046   1.79594
    A8        1.92076  -0.00003  -0.00003  -0.00045  -0.00048   1.92028
    A9        1.97548   0.00002   0.00008   0.00022   0.00030   1.97577
   A10        1.91997  -0.00003  -0.00004  -0.00042  -0.00047   1.91951
   A11        1.97615   0.00002   0.00008   0.00023   0.00031   1.97646
   A12        1.87567  -0.00000  -0.00019   0.00004  -0.00015   1.87552
   A13        1.84781   0.00001  -0.00003   0.00017   0.00015   1.84796
   A14        1.94916   0.00002   0.00002   0.00026   0.00028   1.94945
   A15        1.92495  -0.00003   0.00007  -0.00044  -0.00037   1.92459
   A16        1.95721  -0.00000   0.00017  -0.00001   0.00015   1.95737
   A17        1.92425   0.00002  -0.00004   0.00018   0.00014   1.92439
   A18        1.86156  -0.00002  -0.00019  -0.00017  -0.00036   1.86120
   A19        1.81806   0.00000   0.00011   0.00015   0.00026   1.81832
   A20        1.97724   0.00002   0.00006   0.00016   0.00022   1.97747
   A21        1.90842  -0.00003  -0.00008  -0.00041  -0.00049   1.90793
   A22        1.96685   0.00001   0.00021   0.00003   0.00024   1.96709
   A23        1.92253   0.00001  -0.00011   0.00008  -0.00003   1.92251
   A24        1.87067  -0.00001  -0.00018  -0.00004  -0.00022   1.87045
   A25        1.84697   0.00001  -0.00001   0.00015   0.00013   1.84710
   A26        1.95857   0.00001   0.00021   0.00002   0.00022   1.95880
   A27        1.92329   0.00002  -0.00004   0.00018   0.00015   1.92344
   A28        1.95153   0.00002  -0.00001   0.00029   0.00028   1.95182
   A29        1.92252  -0.00004   0.00004  -0.00050  -0.00046   1.92206
   A30        1.86195  -0.00002  -0.00018  -0.00015  -0.00033   1.86161
    D1       -0.68646   0.00004   0.00028   0.00107   0.00135  -0.68511
    D2        1.35896   0.00001   0.00028   0.00056   0.00084   1.35980
    D3       -2.82526  -0.00000   0.00007   0.00044   0.00051  -2.82475
    D4        1.36889   0.00004   0.00017   0.00113   0.00130   1.37019
    D5       -2.86887   0.00001   0.00016   0.00063   0.00079  -2.86808
    D6       -0.76991  -0.00000  -0.00005   0.00051   0.00046  -0.76945
    D7       -2.83067   0.00001  -0.00007   0.00078   0.00071  -2.82996
    D8       -0.78525  -0.00002  -0.00007   0.00028   0.00020  -0.78505
    D9        1.31372  -0.00004  -0.00029   0.00016  -0.00013   1.31359
   D10        0.41336  -0.00003  -0.00018  -0.00067  -0.00085   0.41252
   D11        2.54826  -0.00001   0.00002  -0.00042  -0.00040   2.54786
   D12       -1.66815  -0.00004  -0.00016  -0.00075  -0.00090  -1.66905
   D13       -1.63230   0.00001  -0.00008  -0.00030  -0.00038  -1.63269
   D14        0.50259   0.00003   0.00012  -0.00005   0.00007   0.50266
   D15        2.56937  -0.00000  -0.00006  -0.00038  -0.00044   2.56893
   D16        2.56409   0.00001   0.00009  -0.00037  -0.00029   2.56380
   D17       -1.58420   0.00003   0.00029  -0.00012   0.00016  -1.58404
   D18        0.48258  -0.00001   0.00011  -0.00045  -0.00034   0.48224
   D19        0.69611  -0.00004  -0.00029  -0.00105  -0.00134   0.69477
   D20        2.83951  -0.00001   0.00007  -0.00082  -0.00074   2.83876
   D21       -1.35856  -0.00004  -0.00018  -0.00104  -0.00122  -1.35978
   D22       -1.34987  -0.00001  -0.00029  -0.00053  -0.00082  -1.35070
   D23        0.79352   0.00002   0.00007  -0.00030  -0.00023   0.79330
   D24        2.87864  -0.00000  -0.00018  -0.00052  -0.00070   2.87794
   D25        2.83445   0.00000  -0.00008  -0.00043  -0.00051   2.83394
   D26       -1.30534   0.00003   0.00029  -0.00020   0.00009  -1.30525
   D27        0.77978   0.00001   0.00003  -0.00042  -0.00038   0.77939
   D28        0.01541  -0.00000  -0.00002   0.00001  -0.00000   0.01541
   D29        2.14833   0.00003   0.00008   0.00048   0.00057   2.14890
   D30       -2.06266   0.00003  -0.00003   0.00042   0.00039  -2.06227
   D31       -2.11433  -0.00004  -0.00012  -0.00042  -0.00054  -2.11487
   D32        0.01859  -0.00000  -0.00003   0.00005   0.00003   0.01861
   D33        2.09078  -0.00001  -0.00014  -0.00001  -0.00015   2.09063
   D34        2.09739  -0.00002   0.00003  -0.00031  -0.00028   2.09711
   D35       -2.05288   0.00001   0.00013   0.00016   0.00029  -2.05259
   D36        0.01931   0.00000   0.00002   0.00010   0.00011   0.01942
   D37       -0.43841   0.00003   0.00020   0.00065   0.00085  -0.43755
   D38       -2.57582   0.00001  -0.00004   0.00036   0.00032  -2.57550
   D39        1.64018   0.00004   0.00017   0.00069   0.00086   1.64104
   D40       -2.58859  -0.00000  -0.00006   0.00033   0.00027  -2.58832
   D41        1.55718  -0.00003  -0.00030   0.00004  -0.00026   1.55692
   D42       -0.51001   0.00001  -0.00009   0.00037   0.00028  -0.50973
   D43        1.60651  -0.00001   0.00011   0.00030   0.00041   1.60692
   D44       -0.53090  -0.00003  -0.00013   0.00001  -0.00012  -0.53102
   D45       -2.59809   0.00001   0.00008   0.00034   0.00042  -2.59767
         Item               Value     Threshold  Converged?
 Maximum Force            0.001072     0.000450     NO 
 RMS     Force            0.000336     0.000300     NO 
 Maximum Displacement     0.004513     0.001800     NO 
 RMS     Displacement     0.001647     0.001200     NO 
 Predicted change in Energy=-1.489543D-05
 GradGradGradGradGradGradGradGradGradGradGradGradGradGradGradGradGradGrad

                          Input orientation:                          
 ---------------------------------------------------------------------
 Center     Atomic      Atomic             Coordinates (Angstroms)
 Number     Number       Type             X           Y           Z
 ---------------------------------------------------------------------
      1          6           0        1.195202    2.992005    1.044241
      2          6           0        2.722641    3.025554    0.931812
      3          6           0        0.851599    1.490623    1.130124
      4          6           0        3.160693    1.916353    1.892927
      5          6           0        2.130851    0.791877    1.666447
      6          1           0        0.891047    3.498243    1.956936
      7          1           0        0.694074    3.489503    0.220619
      8          1           0        3.026979    2.779441   -0.083396
      9          1           0        3.147959    3.994211    1.173425
     10          1           0       -0.008820    1.311990    1.765626
     11          1           0        0.597351    1.106302    0.147584
     12          1           0        4.181976    1.587554    1.731888
     13          1           0        3.098365    2.280989    2.915271
     14          1           0        1.941345    0.229728    2.574290
     15          1           0        2.506037    0.083727    0.934506
 ---------------------------------------------------------------------
                    Distance matrix (angstroms):
                    1          2          3          4          5
     1  C    0.000000
     2  C    1.531938   0.000000
     3  C    1.542592   2.428197   0.000000
     4  C    2.395924   1.531652   2.468812   0.000000
     5  C    2.470454   2.424709   1.553181   1.541530   0.000000
     6  H    1.087106   2.151522   2.171570   2.767267   2.990972
     7  H    1.084890   2.199119   2.201712   3.369811   3.381113
     8  H    2.161517   1.088045   2.804632   2.160707   2.795604
     9  H    2.198718   1.085158   3.397513   2.198940   3.395956
    10  H    2.189181   3.330529   1.084478   3.229129   2.204210
    11  H    2.171934   2.969073   1.085232   3.205172   2.181153
    12  H    3.371373   2.199460   3.385694   1.084924   2.201022
    13  H    2.761942   2.151663   2.976472   1.087212   2.170967
    14  H    3.244681   3.335386   2.205225   2.189925   1.084483
    15  H    3.191930   2.949792   2.180548   2.169255   1.085348
                    6          7          8          9         10
     6  H    0.000000
     7  H    1.747475   0.000000
     8  H    3.040039   2.457450   0.000000
     9  H    2.439984   2.680321   1.752113   0.000000
    10  H    2.371932   2.760918   3.845565   4.184526   0.000000
    11  H    3.013535   2.386281   2.959026   3.987225   1.740060
    12  H    3.812032   4.250506   2.459647   2.678259   4.199981
    13  H    2.696732   3.808184   3.040650   2.443688   3.451845
    14  H    3.488187   4.209701   3.839653   4.194004   2.372419
    15  H    3.913116   3.923284   2.928204   3.970016   2.919572
                   11         12         13         14         15
    11  H    0.000000
    12  H    3.948563   0.000000
    13  H    3.910888   1.747988   0.000000
    14  H    2.909227   2.752046   2.379630   0.000000
    15  H    2.303908   2.388741   3.016992   1.740426   0.000000
 Stoichiometry    C5H10
 Framework group  C1[X(C5H10)]
 Deg. of freedom    39
 Full point group                 C1      NOp   1
 Largest Abelian subgroup         C1      NOp   1
 Largest concise Abelian subgroup C1      NOp   1
                         Standard orientation:                         
 ---------------------------------------------------------------------
 Center     Atomic      Atomic             Coordinates (Angstroms)
 Number     Number       Type             X           Y           Z
 ---------------------------------------------------------------------
      1          6           0       -1.165204   -0.505297   -0.198928
      2          6           0        0.092074   -1.248050    0.264111
      3          6           0       -0.849591    0.981303    0.065644
      4          6           0        1.224299   -0.330159   -0.206530
      5          6           0        0.699633    1.091694    0.075204
      6          1           0       -1.310177   -0.673365   -1.263134
      7          1           0       -2.067968   -0.837152    0.302943
      8          1           0        0.101620   -1.323673    1.349483
      9          1           0        0.164250   -2.255319   -0.133087
     10          1           0       -1.300826    1.625915   -0.680651
     11          1           0       -1.254007    1.286509    1.025345
     12          1           0        2.171492   -0.531601    0.282658
     13          1           0        1.378685   -0.467772   -1.273890
     14          1           0        1.064447    1.807817   -0.652933
     15          1           0        1.045227    1.431693    1.046257
 ---------------------------------------------------------------------
 Rotational constants (GHZ):      6.5256205      6.5237499      3.7611458
 Standard basis: 6-31G(d) (6D, 7F)
 There are    95 symmetry adapted cartesian basis functions of A   symmetry.
 There are    95 symmetry adapted basis functions of A   symmetry.
    95 basis functions,   180 primitive gaussians,    95 cartesian basis functions
    20 alpha electrons       20 beta electrons
       nuclear repulsion energy       187.9963432620 Hartrees.
 NAtoms=   15 NActive=   15 NUniq=   15 SFac= 1.00D+00 NAtFMM=   60 NAOKFM=F Big=F
 Integral buffers will be    131072 words long.
 Raffenetti 1 integral format.
 Two-electron integral symmetry is turned on.
 One-electron integrals computed using PRISM.
 NBasis=    95 RedAO= T EigKep=  3.47D-03  NBF=    95
 NBsUse=    95 1.00D-06 EigRej= -1.00D+00 NBFU=    95
 Initial guess from the checkpoint file:  "cyclopentane-opt.chk"
 B after Tr=     0.000000   -0.000000   -0.000000
         Rot=    0.999744   -0.000010   -0.000001    0.022623 Ang=  -2.59 deg.
 Keep R1 ints in memory in canonical form, NReq=11330283.
 Requested convergence on RMS density matrix=1.00D-08 within 128 cycles.
 Requested convergence on MAX density matrix=1.00D-06.
 Requested convergence on             energy=1.00D-06.
 No special actions if energy rises.
 SCF Done:  E(RHF) =  -195.163580172     A.U. after    7 cycles
            NFock=  7  Conv=0.28D-08     -V/T= 2.0003
 Calling FoFJK, ICntrl=      2127 FMM=F ISym2X=0 I1Cent= 0 IOpClX= 0 NMat=1 NMatS=1 NMatT=0.
 ***** Axes restored to original set *****
 -------------------------------------------------------------------
 Center     Atomic                   Forces (Hartrees/Bohr)
 Number     Number              X              Y              Z
 -------------------------------------------------------------------
      1        6           0.000014461   -0.000013133    0.000095947
      2        6           0.000007437   -0.000070152   -0.000095692
      3        6           0.000062329    0.000009570   -0.000013767
      4        6          -0.000066411    0.000038934    0.000061535
      5        6          -0.000010255    0.000045548   -0.000047652
      6        1          -0.000013689   -0.000000782    0.000040806
      7        1           0.000019618   -0.000020426   -0.000045363
      8        1           0.000006433   -0.000017003   -0.000034798
      9        1          -0.000016205    0.000008752    0.000049031
     10        1           0.000002247    0.000014589    0.000049726
     11        1           0.000023672   -0.000013557   -0.000038096
     12        1           0.000004882   -0.000011773   -0.000051578
     13        1          -0.000018784    0.000005375    0.000037358
     14        1          -0.000018041    0.000026842    0.000040568
     15        1           0.000002306   -0.000002785   -0.000048026
 -------------------------------------------------------------------
 Cartesian Forces:  Max     0.000095947 RMS     0.000038165

 GradGradGradGradGradGradGradGradGradGradGradGradGradGradGradGradGradGrad
 Berny optimization.
 Using GEDIIS/GDIIS optimizer.
 FormGI is forming the generalized inverse of G from B-inverse, IUseBI=4.
 Internal  Forces:  Max     0.000089363 RMS     0.000020681
 Search for a local minimum.
 Step number   3 out of a maximum of  100
 All quantities printed in internal units (Hartrees-Bohrs-Radians)
 Mixed Optimization -- En-DIIS/RFO-DIIS
 Swapping is turned off.
 Update second derivatives using D2CorX and points    1    2    3
 DE= -1.42D-05 DEPred=-1.49D-05 R= 9.51D-01
 TightC=F SS=  1.41D+00  RLast= 1.01D-02 DXNew= 5.0454D-01 3.0153D-02
 Trust test= 9.51D-01 RLast= 1.01D-02 DXMaxT set to 3.00D-01
 ITU=  1  1  0
     Eigenvalues ---    0.00259   0.00443   0.01959   0.01968   0.04059
     Eigenvalues ---    0.04117   0.04357   0.04766   0.05048   0.05152
     Eigenvalues ---    0.05485   0.05593   0.06106   0.06741   0.06931
     Eigenvalues ---    0.06960   0.07190   0.07197   0.08717   0.08738
     Eigenvalues ---    0.11073   0.11299   0.20188   0.20573   0.25913
     Eigenvalues ---    0.26164   0.27530   0.27655   0.30127   0.33791
     Eigenvalues ---    0.33878   0.33904   0.34097   0.34118   0.34144
     Eigenvalues ---    0.34168   0.34199   0.34217   0.36657
 En-DIIS/RFO-DIIS IScMMF=        0 using points:     3    2
 RFO step:  Lambda=-1.05258897D-07.
 DidBck=F Rises=F RFO-DIIS coefs:    0.97314    0.02686
 Iteration  1 RMS(Cart)=  0.00025579 RMS(Int)=  0.00000006
 Iteration  2 RMS(Cart)=  0.00000006 RMS(Int)=  0.00000003
 Variable       Old X    -DE/DX   Delta X   Delta X   Delta X     New X
                                 (Linear)    (Quad)   (Total)
    R1        2.89494  -0.00003  -0.00009   0.00001  -0.00008   2.89487
    R2        2.91508  -0.00006  -0.00009  -0.00005  -0.00014   2.91494
    R3        2.05433   0.00004  -0.00004   0.00017   0.00013   2.05446
    R4        2.05015   0.00002  -0.00005   0.00012   0.00008   2.05022
    R5        2.89440  -0.00004  -0.00009  -0.00001  -0.00010   2.89430
    R6        2.05611   0.00004  -0.00004   0.00017   0.00013   2.05624
    R7        2.05065   0.00001  -0.00005   0.00011   0.00007   2.05072
    R8        2.93509  -0.00009  -0.00009  -0.00016  -0.00025   2.93484
    R9        2.04937   0.00002  -0.00005   0.00015   0.00010   2.04947
   R10        2.05079   0.00003  -0.00004   0.00016   0.00012   2.05091
   R11        2.91307  -0.00005  -0.00009  -0.00003  -0.00012   2.91295
   R12        2.05021   0.00002  -0.00005   0.00012   0.00008   2.05028
   R13        2.05453   0.00004  -0.00004   0.00017   0.00013   2.05467
   R14        2.04938   0.00002  -0.00005   0.00014   0.00010   2.04947
   R15        2.05101   0.00004  -0.00004   0.00017   0.00013   2.05114
    A1        1.82089  -0.00001  -0.00001  -0.00014  -0.00014   1.82074
    A2        1.90750   0.00002   0.00001   0.00025   0.00026   1.90777
    A3        1.97665  -0.00002  -0.00001  -0.00030  -0.00030   1.97634
    A4        1.92215  -0.00000  -0.00000   0.00006   0.00006   1.92222
    A5        1.96676  -0.00001  -0.00001  -0.00020  -0.00021   1.96655
    A6        1.86983   0.00002   0.00001   0.00033   0.00034   1.87017
    A7        1.79594  -0.00002  -0.00001  -0.00024  -0.00026   1.79569
    A8        1.92028   0.00001   0.00001   0.00021   0.00022   1.92051
    A9        1.97577  -0.00001  -0.00001  -0.00025  -0.00026   1.97551
   A10        1.91951   0.00001   0.00001   0.00020   0.00022   1.91973
   A11        1.97646  -0.00001  -0.00001  -0.00025  -0.00026   1.97620
   A12        1.87552   0.00001   0.00000   0.00033   0.00034   1.87586
   A13        1.84796   0.00000  -0.00000  -0.00005  -0.00005   1.84790
   A14        1.94945  -0.00001  -0.00001  -0.00015  -0.00016   1.94928
   A15        1.92459   0.00000   0.00001   0.00007   0.00008   1.92467
   A16        1.95737  -0.00001  -0.00000  -0.00017  -0.00017   1.95720
   A17        1.92439  -0.00001  -0.00000  -0.00007  -0.00007   1.92432
   A18        1.86120   0.00002   0.00001   0.00036   0.00037   1.86157
   A19        1.81832  -0.00001  -0.00001  -0.00016  -0.00017   1.81815
   A20        1.97747  -0.00002  -0.00001  -0.00029  -0.00030   1.97717
   A21        1.90793   0.00002   0.00001   0.00024   0.00025   1.90818
   A22        1.96709  -0.00000  -0.00001  -0.00020  -0.00021   1.96688
   A23        1.92251  -0.00000   0.00000   0.00009   0.00009   1.92260
   A24        1.87045   0.00002   0.00001   0.00034   0.00034   1.87079
   A25        1.84710   0.00001  -0.00000  -0.00004  -0.00005   1.84706
   A26        1.95880  -0.00001  -0.00001  -0.00017  -0.00018   1.95862
   A27        1.92344  -0.00001  -0.00000  -0.00007  -0.00008   1.92336
   A28        1.95182  -0.00001  -0.00001  -0.00017  -0.00018   1.95164
   A29        1.92206   0.00001   0.00001   0.00009   0.00010   1.92216
   A30        1.86161   0.00002   0.00001   0.00036   0.00037   1.86199
    D1       -0.68511  -0.00002  -0.00004  -0.00068  -0.00072  -0.68583
    D2        1.35980  -0.00001  -0.00002  -0.00048  -0.00050   1.35930
    D3       -2.82475   0.00001  -0.00001  -0.00007  -0.00009  -2.82483
    D4        1.37019  -0.00002  -0.00003  -0.00056  -0.00060   1.36959
    D5       -2.86808  -0.00001  -0.00002  -0.00036  -0.00038  -2.86846
    D6       -0.76945   0.00001  -0.00001   0.00005   0.00003  -0.76942
    D7       -2.82996  -0.00000  -0.00002  -0.00016  -0.00018  -2.83014
    D8       -0.78505   0.00001  -0.00001   0.00004   0.00003  -0.78501
    D9        1.31359   0.00003   0.00000   0.00045   0.00045   1.31404
   D10        0.41252   0.00002   0.00002   0.00040   0.00042   0.41294
   D11        2.54786   0.00000   0.00001   0.00007   0.00008   2.54795
   D12       -1.66905   0.00002   0.00002   0.00047   0.00050  -1.66855
   D13       -1.63269   0.00000   0.00001   0.00015   0.00016  -1.63252
   D14        0.50266  -0.00001  -0.00000  -0.00017  -0.00017   0.50249
   D15        2.56893   0.00001   0.00001   0.00022   0.00024   2.56917
   D16        2.56380  -0.00001   0.00001  -0.00018  -0.00017   2.56363
   D17       -1.58404  -0.00003  -0.00000  -0.00050  -0.00051  -1.58454
   D18        0.48224  -0.00000   0.00001  -0.00011  -0.00010   0.48214
   D19        0.69477   0.00002   0.00004   0.00071   0.00074   0.69551
   D20        2.83876  -0.00000   0.00002   0.00017   0.00019   2.83896
   D21       -1.35978   0.00002   0.00003   0.00057   0.00061  -1.35917
   D22       -1.35070   0.00001   0.00002   0.00050   0.00052  -1.35017
   D23        0.79330  -0.00001   0.00001  -0.00003  -0.00003   0.79327
   D24        2.87794   0.00001   0.00002   0.00037   0.00039   2.87833
   D25        2.83394  -0.00001   0.00001   0.00010   0.00011   2.83406
   D26       -1.30525  -0.00003  -0.00000  -0.00043  -0.00044  -1.30568
   D27        0.77939  -0.00001   0.00001  -0.00003  -0.00002   0.77937
   D28        0.01541   0.00000   0.00000   0.00005   0.00005   0.01547
   D29        2.14890  -0.00002  -0.00002  -0.00029  -0.00030   2.14860
   D30       -2.06227  -0.00000  -0.00001   0.00001  -0.00000  -2.06227
   D31       -2.11487   0.00002   0.00001   0.00037   0.00039  -2.11449
   D32        0.01861  -0.00000  -0.00000   0.00003   0.00003   0.01864
   D33        2.09063   0.00001   0.00000   0.00033   0.00033   2.09096
   D34        2.09711   0.00000   0.00001   0.00007   0.00008   2.09719
   D35       -2.05259  -0.00001  -0.00001  -0.00027  -0.00028  -2.05287
   D36        0.01942  -0.00000  -0.00000   0.00003   0.00003   0.01945
   D37       -0.43755  -0.00002  -0.00002  -0.00049  -0.00051  -0.43806
   D38       -2.57550  -0.00000  -0.00001  -0.00015  -0.00016  -2.57565
   D39        1.64104  -0.00003  -0.00002  -0.00055  -0.00057   1.64047
   D40       -2.58832   0.00001  -0.00001   0.00010   0.00009  -2.58823
   D41        1.55692   0.00003   0.00001   0.00044   0.00045   1.55736
   D42       -0.50973   0.00000  -0.00001   0.00004   0.00003  -0.50970
   D43        1.60692  -0.00000  -0.00001  -0.00026  -0.00027   1.60665
   D44       -0.53102   0.00001   0.00000   0.00008   0.00009  -0.53094
   D45       -2.59767  -0.00001  -0.00001  -0.00032  -0.00033  -2.59800
         Item               Value     Threshold  Converged?
 Maximum Force            0.000089     0.000450     YES
 RMS     Force            0.000021     0.000300     YES
 Maximum Displacement     0.000881     0.001800     YES
 RMS     Displacement     0.000256     0.001200     YES
 Predicted change in Energy=-1.786186D-07
 Optimization completed.
    -- Stationary point found.
                           ----------------------------
                           !   Optimized Parameters   !
                           ! (Angstroms and Degrees)  !
 --------------------------                            --------------------------
 ! Name  Definition              Value          Derivative Info.                !
 --------------------------------------------------------------------------------
 ! R1    R(1,2)                  1.5319         -DE/DX =    0.0                 !
 ! R2    R(1,3)                  1.5426         -DE/DX =   -0.0001              !
 ! R3    R(1,6)                  1.0871         -DE/DX =    0.0                 !
 ! R4    R(1,7)                  1.0849         -DE/DX =    0.0                 !
 ! R5    R(2,4)                  1.5317         -DE/DX =    0.0                 !
 ! R6    R(2,8)                  1.088          -DE/DX =    0.0                 !
 ! R7    R(2,9)                  1.0852         -DE/DX =    0.0                 !
 ! R8    R(3,5)                  1.5532         -DE/DX =   -0.0001              !
 ! R9    R(3,10)                 1.0845         -DE/DX =    0.0                 !
 ! R10   R(3,11)                 1.0852         -DE/DX =    0.0                 !
 ! R11   R(4,5)                  1.5415         -DE/DX =    0.0                 !
 ! R12   R(4,12)                 1.0849         -DE/DX =    0.0                 !
 ! R13   R(4,13)                 1.0872         -DE/DX =    0.0                 !
 ! R14   R(5,14)                 1.0845         -DE/DX =    0.0                 !
 ! R15   R(5,15)                 1.0853         -DE/DX =    0.0                 !
 ! A1    A(2,1,3)              104.3291         -DE/DX =    0.0                 !
 ! A2    A(2,1,6)              109.2918         -DE/DX =    0.0                 !
 ! A3    A(2,1,7)              113.2536         -DE/DX =    0.0                 !
 ! A4    A(3,1,6)              110.1313         -DE/DX =    0.0                 !
 ! A5    A(3,1,7)              112.687          -DE/DX =    0.0                 !
 ! A6    A(6,1,7)              107.1333         -DE/DX =    0.0                 !
 ! A7    A(1,2,4)              102.8999         -DE/DX =    0.0                 !
 ! A8    A(1,2,8)              110.024          -DE/DX =    0.0                 !
 ! A9    A(1,2,9)              113.2035         -DE/DX =    0.0                 !
 ! A10   A(4,2,8)              109.9798         -DE/DX =    0.0                 !
 ! A11   A(4,2,9)              113.2428         -DE/DX =    0.0                 !
 ! A12   A(8,2,9)              107.4594         -DE/DX =    0.0                 !
 ! A13   A(1,3,5)              105.8802         -DE/DX =    0.0                 !
 ! A14   A(1,3,10)             111.695          -DE/DX =    0.0                 !
 ! A15   A(1,3,11)             110.2706         -DE/DX =    0.0                 !
 ! A16   A(5,3,10)             112.1488         -DE/DX =    0.0                 !
 ! A17   A(5,3,11)             110.2595         -DE/DX =    0.0                 !
 ! A18   A(10,3,11)            106.6389         -DE/DX =    0.0                 !
 ! A19   A(2,4,5)              104.1819         -DE/DX =    0.0                 !
 ! A20   A(2,4,12)             113.3005         -DE/DX =    0.0                 !
 ! A21   A(2,4,13)             109.3163         -DE/DX =    0.0                 !
 ! A22   A(5,4,12)             112.7057         -DE/DX =    0.0                 !
 ! A23   A(5,4,13)             110.1515         -DE/DX =    0.0                 !
 ! A24   A(12,4,13)            107.1687         -DE/DX =    0.0                 !
 ! A25   A(3,5,4)              105.8313         -DE/DX =    0.0                 !
 ! A26   A(3,5,14)             112.2307         -DE/DX =    0.0                 !
 ! A27   A(3,5,15)             110.2049         -DE/DX =    0.0                 !
 ! A28   A(4,5,14)             111.8309         -DE/DX =    0.0                 !
 ! A29   A(4,5,15)             110.1259         -DE/DX =    0.0                 !
 ! A30   A(14,5,15)            106.6627         -DE/DX =    0.0                 !
 ! D1    D(3,1,2,4)            -39.2541         -DE/DX =    0.0                 !
 ! D2    D(3,1,2,8)             77.9111         -DE/DX =    0.0                 !
 ! D3    D(3,1,2,9)           -161.8461         -DE/DX =    0.0                 !
 ! D4    D(6,1,2,4)             78.5059         -DE/DX =    0.0                 !
 ! D5    D(6,1,2,8)           -164.3289         -DE/DX =    0.0                 !
 ! D6    D(6,1,2,9)            -44.0861         -DE/DX =    0.0                 !
 ! D7    D(7,1,2,4)           -162.1449         -DE/DX =    0.0                 !
 ! D8    D(7,1,2,8)            -44.9798         -DE/DX =    0.0                 !
 ! D9    D(7,1,2,9)             75.263          -DE/DX =    0.0                 !
 ! D10   D(2,1,3,5)             23.6354         -DE/DX =    0.0                 !
 ! D11   D(2,1,3,10)           145.9818         -DE/DX =    0.0                 !
 ! D12   D(2,1,3,11)           -95.6295         -DE/DX =    0.0                 !
 ! D13   D(6,1,3,5)            -93.5461         -DE/DX =    0.0                 !
 ! D14   D(6,1,3,10)            28.8004         -DE/DX =    0.0                 !
 ! D15   D(6,1,3,11)           147.189          -DE/DX =    0.0                 !
 ! D16   D(7,1,3,5)            146.895          -DE/DX =    0.0                 !
 ! D17   D(7,1,3,10)           -90.7586         -DE/DX =    0.0                 !
 ! D18   D(7,1,3,11)            27.6301         -DE/DX =    0.0                 !
 ! D19   D(1,2,4,5)             39.8073         -DE/DX =    0.0                 !
 ! D20   D(1,2,4,12)           162.6491         -DE/DX =    0.0                 !
 ! D21   D(1,2,4,13)           -77.9097         -DE/DX =    0.0                 !
 ! D22   D(8,2,4,5)            -77.3892         -DE/DX =    0.0                 !
 ! D23   D(8,2,4,12)            45.4526         -DE/DX =    0.0                 !
 ! D24   D(8,2,4,13)           164.8938         -DE/DX =    0.0                 !
 ! D25   D(9,2,4,5)            162.373          -DE/DX =    0.0                 !
 ! D26   D(9,2,4,12)           -74.7853         -DE/DX =    0.0                 !
 ! D27   D(9,2,4,13)            44.656          -DE/DX =    0.0                 !
 ! D28   D(1,3,5,4)              0.883          -DE/DX =    0.0                 !
 ! D29   D(1,3,5,14)           123.1229         -DE/DX =    0.0                 !
 ! D30   D(1,3,5,15)          -118.1595         -DE/DX =    0.0                 !
 ! D31   D(10,3,5,4)          -121.1733         -DE/DX =    0.0                 !
 ! D32   D(10,3,5,14)            1.0665         -DE/DX =    0.0                 !
 ! D33   D(10,3,5,15)          119.7841         -DE/DX =    0.0                 !
 ! D34   D(11,3,5,4)           120.1553         -DE/DX =    0.0                 !
 ! D35   D(11,3,5,14)         -117.6048         -DE/DX =    0.0                 !
 ! D36   D(11,3,5,15)            1.1128         -DE/DX =    0.0                 !
 ! D37   D(2,4,5,3)            -25.07           -DE/DX =    0.0                 !
 ! D38   D(2,4,5,14)          -147.5652         -DE/DX =    0.0                 !
 ! D39   D(2,4,5,15)            94.0247         -DE/DX =    0.0                 !
 ! D40   D(12,4,5,3)          -148.3001         -DE/DX =    0.0                 !
 ! D41   D(12,4,5,14)           89.2047         -DE/DX =    0.0                 !
 ! D42   D(12,4,5,15)          -29.2053         -DE/DX =    0.0                 !
 ! D43   D(13,4,5,3)            92.0697         -DE/DX =    0.0                 !
 ! D44   D(13,4,5,14)          -30.4254         -DE/DX =    0.0                 !
 ! D45   D(13,4,5,15)         -148.8355         -DE/DX =    0.0                 !
 --------------------------------------------------------------------------------
 GradGradGradGradGradGradGradGradGradGradGradGradGradGradGradGradGradGrad

                          Input orientation:                          
 ---------------------------------------------------------------------
 Center     Atomic      Atomic             Coordinates (Angstroms)
 Number     Number       Type             X           Y           Z
[...]
   D33        2.09063   0.00001   0.00000   0.02076   0.02077   2.11140
   D34        2.09711   0.00000   0.00000   0.01881   0.01881   2.11592
   D35       -2.05259  -0.00001   0.00000   0.02018   0.02018  -2.03241
   D36        0.01942  -0.00000   0.00000   0.02091   0.02091   0.04033
   D37       -0.43755  -0.00002   0.00000  -0.01355  -0.01355  -0.45110
   D38       -2.57550  -0.00000   0.00000  -0.01457  -0.01457  -2.59007
   D39        1.64104  -0.00003   0.00000  -0.01516  -0.01516   1.62588
   D40       -2.58832   0.00001   0.00000  -0.01275  -0.01274  -2.60107
   D41        1.55692   0.00003   0.00000  -0.01377  -0.01376   1.54316
   D42       -0.50973   0.00000   0.00000  -0.01435  -0.01435  -0.52408
   D43        1.60692  -0.00000   0.00000  -0.01375  -0.01375   1.59317
   D44       -0.53102   0.00001   0.00000  -0.01477  -0.01477  -0.54579
   D45       -2.59767  -0.00001   0.00000  -0.01535  -0.01536  -2.61303
         Item               Value     Threshold  Converged?
 Maximum Force            0.000089     0.000450     YES
 RMS     Force            0.000021     0.000300     YES
 Maximum Displacement     0.030578     0.001800     NO 
 RMS     Displacement     0.008527     0.001200     NO 
 Predicted change in Energy=-2.033777D-07
 GradGradGradGradGradGradGradGradGradGradGradGradGradGradGradGradGradGrad

 1\1\GINC-GTX1080DELTA\Freq\RHF\6-31G(d)\C5H10\MVEROT\16-Apr-2022\0\\#N
  Geom=AllCheck Guess=TCheck SCRF=Check GenChk RHF/6-31G(d) Freq\\Optim
 isation de geometrie\\0,1\C,1.1952023028,2.9920054441,1.0442413047\C,2
 .7226406137,3.0255541148,0.931812417\C,0.8515989973,1.4906227355,1.130
 1235253\C,3.1606934295,1.9163530779,1.8929273545\C,2.1308506491,0.7918
 773102,1.6664466153\H,0.8910474843,3.4982434761,1.9569358221\H,0.69407
 42386,3.4895029071,0.2206192468\H,3.0269793714,2.77944069,-0.083395775
 5\H,3.1479588225,3.9942105052,1.1734251643\H,-0.0088197721,1.311990469
 4,1.765625814\H,0.597351215,1.1063021597,0.147583969\H,4.181975648,1.5
 875535756,1.7318877461\H,3.0983645872,2.2809893433,2.9152706672\H,1.94
 1344941,0.2297275575,2.5742898855\H,2.5060374716,0.0837266337,0.934506
 2437\\Version=AM64L-G09RevD.01\State=1-A\HF=-195.1635802\RMSD=7.292e-1
 0\RMSF=3.817e-05\ZeroPoint=0.1506779\Thermal=0.1547416\Dipole=0.000336
 6,0.0002421,-0.0004115\DipoleDeriv=0.0734243,-0.029609,0.0317545,-0.03
 92324,0.1132526,-0.0043566,-0.0212904,0.0535712,0.1938679,0.0766911,0.
 0359889,-0.0097466,0.007477,0.1257828,0.0759291,-0.0456646,0.0096659,0
 .1696499,0.1238821,0.0211627,-0.0344764,0.0262621,0.0567366,0.0167638,
 0.0024812,0.0224772,0.1949503,0.1342128,-0.0337949,-0.0519285,-0.01016
 87,0.0804063,0.0667922,0.0202923,0.0420463,0.165473,0.0761615,-0.03518
 09,-0.0448265,-0.0220306,0.127416,-0.0123237,-0.0607368,0.0243623,0.17
 26312,-0.0119371,0.0162486,0.0416896,0.0205044,-0.0524362,-0.0692004,0
 .0813352,-0.1183848,-0.1298791,-0.0482196,0.0714209,-0.0855902,0.06533
 42,-0.051772,0.0790144,-0.1006348,0.1077702,-0.0820744,-0.0180069,0.01
 64486,0.0451013,0.0375509,0.013509,-0.0609743,0.071957,-0.0118742,-0.1
 882499,-0.0274221,-0.0973678,-0.0082072,-0.1083844,-0.1832592,-0.00916
 55,-0.0221367,-0.0342022,0.0303225,-0.1560306,-0.0429641,0.074539,-0.0
 440205,-0.0009171,0.0203286,0.1192121,0.0395539,-0.030644,-0.0111381,-
 0.0130033,-0.038159,-0.0196842,-0.0269391,-0.059945,-0.0970477,-0.0835
 908,-0.153964,-0.2149301,0.0586527,-0.0113889,0.0743524,0.0000611,0.00
 31438,0.0167961,-0.0013049,0.0330369,0.0224803,-0.0021374,0.0337769,-0
 .0206093,-0.028718,-0.0735971,-0.0246346,-0.0590759,-0.1879712,0.00730
 08,-0.0362084,0.0276836,-0.0111201,-0.0759081,0.0999054,0.0148061,0.13
 77387,-0.1185552,-0.0264685,0.0703434,0.0297783,0.0437692,-0.0972147,-
 0.0723147,0.0452656,-0.1287528,-0.068594\Polar=49.505511,0.21182,49.44
 385,0.8865617,-0.9173723,46.5064045\PolarDeriv=-3.4651922,-1.3532398,2
 .0508695,1.1424916,-0.5322811,2.2732404,-0.4977902,2.7118974,3.5949329
 ,-0.4310544,-0.2748787,-2.9295957,1.3850207,-0.873415,0.326964,3.04950
 89,-4.2019178,-1.5117075,4.3145064,-0.8749519,-2.9370846,-0.0551334,0.
 0519437,-2.0477342,-0.52996,-3.7748273,-3.419366,0.0554268,-1.7938658,
 2.9768302,-0.8476678,-0.3406865,-3.0722926,-2.5722297,2.4733845,4.2834
 784,0.4566035,2.4436251,-2.1332992,-2.772348,1.046517,0.5792013,1.9671
 654,-1.1072698,-3.3491667,0.75751,0.6199069,1.6471281,-3.6030787,0.831
 4899,0.3709253,1.8884814,2.2912769,2.7118009,-4.4700583,3.186537,2.786
 5474,0.3814985,-0.0574625,1.2985084,3.6009124,1.8760174,0.2807481,-0.0
 804476,1.1481536,-3.1394358,1.8915957,-0.131074,1.8008861,0.6753086,-3
 .1975476,-4.0161965,1.6111918,-2.4506924,-0.9644193,1.1940765,-2.22809
 16,0.3092197,-3.7872932,-1.1683483,0.6573614,-1.8721796,0.0700926,2.39
 20432,1.4558046,-1.8898102,-0.1062158,-0.1487662,3.7798152,-1.0418398,
 -1.1693258,1.601762,-0.7983271,1.6865396,-0.4728926,-0.8877022,0.58553
 14,-1.6518568,2.7534078,-0.5599863,2.4105647,1.4091214,0.9899718,-0.60
 51766,1.6317974,-1.9888438,2.7932606,4.5807205,-2.8456881,2.0484913,-1
 .2634564,-2.4720446,0.8459795,-1.4309528,0.9977449,-2.2121159,3.053902
 5,0.864212,-2.3639515,1.5920293,-1.6083354,1.2280552,-1.6616448,-2.662
 5953,2.9439894,-4.0771893,1.1168535,-0.04091,0.4546421,-2.3557587,-0.0
 817864,1.4013913,-0.3138803,1.2491291,-0.1220183,0.1300584,-1.521485,-
 0.9495117,-1.051059,0.0266208,0.0292211,2.3762618,-0.2305541,-7.586449
 2,2.1631523,3.0235801,2.1588833,0.3627761,0.0844053,0.4650524,1.517218
 6,3.2606485,8.3636431,0.0638978,0.4972671,-0.0515113,0.4233152,0.40642
 6,0.9567987,1.2918947,1.557287,-0.0310819,-7.0852296,-1.5968309,-0.417
 3112,2.6164061,0.2987095,-1.0259288,-0.8485837,-1.9024296,-0.6007331,0
 .2960379,1.0636829,-0.539444,2.6221202,0.4816403,0.4593821,-2.7517327,
 -1.0577759,1.9428066,-1.8261987,-1.3395449,0.1316873,-1.8374201,-0.573
 667,-1.2016331,-0.7312759,-0.8956796,-1.6026419,-0.6434975,-2.2501471,
 -1.2134936,-0.7715961,-0.7655929,-1.2285245,-2.4284002,-2.2179285,-6.1
 082628,9.70442,-2.0333035,0.4602292,0.1815178,-0.086691,0.2232723,-1.7
 856947,2.2640646,-1.526276,-0.1480288,-0.1701778,0.2998203,-0.6419154,
 0.029019,-0.2186315,1.8631117,-0.1099636,0.4360136,0.8167906,0.1684121
 ,-0.5732026,1.8360866,0.2042129,-0.0237813,-0.2017209,0.0404898,1.4887
 685,0.3437307,1.9547212,1.708699,0.2800627,0.319982,0.491252,0.9303661
 ,1.8001346,7.8135906,-0.7889202,-1.1575949,-0.229341,1.5628491,0.62419
 25,-0.3002866,0.1159146,-0.3165133,-4.2273726,0.5168101,2.9253195,-2.0
 129916,0.3211902,0.4884691,2.3125643,-0.3487565,-3.7115132,5.3600903,1
 .4670946,-1.6253391,1.2735825,-1.4715372,0.8769117,0.3681331,-0.088288
 4,1.6267939,-5.3451899,0.7075106,-2.3152028,-1.1896877,-0.8454288,0.79
 40528,-2.0924819,0.8263913,-2.9119476,-2.7557738\HyperPolar=12.2419204
 ,-5.3355539,10.0564418,17.6233722,0.1509793,13.2872558,2.0221067,-19.1
 35221,-7.6142368,-2.9091712\PG=C01 [X(C5H10)]\NImag=1\\0.55345016,-0.0
 8031723,0.56810054,0.03162036,-0.00416285,0.68188482,-0.20990201,-0.00
 471829,0.01527269,0.53634898,0.00343179,-0.08892180,-0.00233506,0.0711
 1389,0.65118361,0.01069432,-0.00543394,-0.09785352,-0.03659602,0.04897
 512,0.62825747,-0.09308268,-0.02345889,-0.00073289,-0.01803793,-0.0355
 2616,-0.00144822,0.61657823,-0.02602513,-0.19440655,-0.00043072,-0.015
 18643,-0.00988713,0.00109023,0.05667152,0.50331380,0.00505916,0.000979
 08,-0.09687918,0.00391443,0.00945203,0.00333747,-0.03975189,0.04045346
 ,0.65494361,-0.02610953,0.02420575,-0.02820118,-0.09753580,0.02104022,
 -0.01884836,-0.03261408,-0.01372259,-0.01056547,0.66359363,0.01288216,
 -0.00576612,0.00848106,0.03049363,-0.15162899,0.05279072,0.00047683,0.
 01170663,0.00203989,-0.06031829,0.51398799,-0.00708903,0.00185161,0.00
 348955,-0.02202407,0.05227483,-0.14778132,-0.00798472,-0.00530951,-0.0
 0089742,-0.00846307,0.05103927,0.62751954,0.00350969,0.00950022,-0.002
 50477,0.00240664,-0.00579432,0.00348881,-0.15670364,0.03871894,-0.0302
 0558,-0.13600423,-0.05599244,-0.00733769,0.48845349,0.02363827,-0.0243
 8881,0.01555328,-0.01450032,-0.03315010,0.00335437,0.03950444,-0.10699
 644,0.01553130,-0.05122638,-0.15112186,-0.01867163,-0.01979486,0.62710
 054,-0.00029560,0.00880726,-0.00090324,0.01278371,0.02249120,0.0057853
 4,-0.02328107,0.01178697,-0.10695467,-0.01100535,-0.01596034,-0.098564
 13,-0.06094148,-0.01327388,0.66078534,-0.08052192,0.03865307,0.0619432
 1,-0.01098236,0.01761620,0.03583792,0.00189893,-0.00702244,-0.00984891
 ,0.00136574,-0.00051156,0.00099930,-0.00027752,-0.00024800,-0.00038472
 ,0.08683432,0.03861404,-0.11873241,-0.10595369,-0.00220507,0.00172003,
 0.00343981,0.00781622,-0.01611753,-0.03215829,0.00004617,-0.00009435,-
 0.00043468,-0.00084716,-0.00043335,0.00012186,-0.03672701,0.12673129,0
 .06306805,-0.10686631,-0.25956585,0.00091105,-0.00077956,-0.00311943,-
 0.00092986,0.00234430,0.00331454,-0.00033396,-0.00011851,0.00006631,0.
 00015345,-0.00028623,-0.00020280,-0.07184218,0.11791822,0.27735780,-0.
 11887158,0.05835747,-0.09817112,-0.01126647,0.01790493,-0.02996623,0.0
 0576884,-0.00520649,0.00844317,-0.00795212,-0.00000713,0.00186039,-0.0
 0154457,-0.00210365,0.00003820,0.00633534,-0.00608326,0.00812927,0.124
 64365,0.05804827,-0.11664072,0.09703345,-0.00180734,0.00208829,-0.0039
 1735,0.01787824,-0.01214159,0.02606327,-0.00152622,-0.00115658,0.00003
 247,-0.00143389,-0.00510619,0.00067288,-0.00925343,0.00957222,-0.01310
 757,-0.06486461,0.12371349,-0.10075822,0.09981859,-0.22996413,0.003499
 52,-0.00375757,0.00477068,0.00095496,-0.00221562,0.00063072,0.00082703
 ,-0.00047653,0.00079810,0.00085917,-0.00086652,0.00086962,-0.01484766,
 0.01430754,-0.02463780,0.11008143,-0.10729569,0.24370821,-0.01023103,0
 .01128553,0.03795186,-0.08012484,0.01398983,0.07119298,0.00103304,0.00
 075777,-0.00029035,0.00337230,-0.00335114,-0.01477849,-0.00001262,-0.0
 0026643,0.00034190,-0.00836457,-0.00121309,0.00086094,0.00241806,0.000
 60046,-0.00068824,0.08599267,0.00140004,-0.00081503,-0.00130764,0.0144
 8272,-0.07859613,-0.06085169,0.00013384,0.00035511,0.00004468,-0.00780
 266,0.00808313,0.02681178,0.00038891,0.00111625,-0.00037791,0.00070726
 ,0.00117921,0.00048577,0.00010530,0.00004902,-0.00004685,-0.02040975,0
 .07723813,-0.00071580,-0.00042867,-0.00003478,0.07182169,-0.05967703,-
 0.29861898,0.00016918,0.00010456,-0.00006912,0.00586678,-0.00711351,-0
 .02263726,-0.00009844,-0.00049753,0.00029818,-0.00003406,0.00020223,0.
 00164775,0.00075962,-0.00002929,0.00131319,-0.07771716,0.06445842,0.32
 491275,-0.00885346,-0.03458172,-0.00870398,-0.10223015,-0.09691167,-0.
 02495332,-0.00716872,0.00052642,0.00153169,0.00657007,0.01258816,0.004
 64626,-0.00193860,0.00205746,-0.00250909,0.00233885,0.00052563,0.00049
 811,-0.00029913,0.00051594,-0.00058951,0.00505130,0.01016745,0.0014977
 5,0.10590799,0.00256666,0.00434135,0.00059817,-0.09824467,-0.28628887,
 -0.05899461,0.00140641,0.00015704,0.00070718,-0.01112298,-0.01858463,-
 0.00899021,0.00135080,-0.00226678,0.00421379,-0.00072414,0.00070193,0.
 00070120,-0.00076884,-0.00007097,0.00009860,-0.00240519,-0.00664494,-0
 .00301852,0.10871337,0.30829557,0.00108045,0.00232880,-0.00026063,-0.0
 2664133,-0.06209099,-0.07701966,-0.00014683,0.00163702,0.00016169,0.01
 182587,0.02045298,0.00730352,-0.00051766,0.00371538,-0.00276247,-0.000
 11121,0.00064860,0.00067786,-0.00007389,-0.00015943,-0.00011042,-0.014
 41559,-0.03213222,-0.00715333,0.02735087,0.06480651,0.07689429,-0.0029
 6776,0.00041870,0.00331531,-0.00043780,-0.00096802,-0.00104822,-0.2363
 7721,-0.03632061,0.13337951,-0.00224223,0.00118815,-0.00008248,-0.0183
 2939,-0.00464918,0.01824663,0.00096440,-0.00025336,-0.00076333,-0.0004
 0054,-0.00075639,-0.00005855,0.00012301,0.00009436,0.00007030,-0.00047
 721,-0.00014384,0.00018103,0.25298439,-0.03041592,-0.00336722,0.021945
 44,-0.00043785,-0.00731326,-0.00001024,-0.03572379,-0.06494753,0.02622
 161,0.00159275,-0.00157618,0.00034888,0.01399725,0.00173163,-0.0109257
 3,0.00048692,0.00259925,-0.00042845,-0.00010196,-0.00158828,0.00050930
 ,0.00003458,0.00010270,0.00024144,-0.00212341,0.00015144,-0.00006587,0
 .03891309,0.06970894,-0.00080144,-0.00166441,-0.00011380,-0.00107880,0
 .00050749,0.00009905,0.13606205,0.02762524,-0.16357816,-0.00165905,0.0
 0024730,-0.00047101,-0.01226935,-0.00269741,0.00956930,-0.00061794,0.0
 0007634,0.00172252,0.00018488,0.00032594,0.00007003,-0.00041024,-0.000
 03183,0.00014331,0.00011154,-0.00011427,0.00017793,-0.14623786,-0.0301
 9822,0.17150560,-0.00078959,-0.00070618,-0.00687163,0.00021740,0.00040
 698,-0.00047493,-0.07466433,-0.02495381,-0.05532557,-0.00270832,0.0021
 7112,-0.00056607,-0.00697776,-0.00971295,-0.02760633,0.00030507,-0.000
 72471,0.00006373,0.00090982,0.00046106,0.00037992,-0.00028262,-0.00021
 457,0.00037873,-0.00006148,-0.00007081,0.00032169,0.00904437,0.0116695
 5,0.02831749,0.07690800,-0.00510446,-0.01375017,-0.03605347,0.00039563
 ,-0.00036452,-0.00031430,-0.02536416,-0.09242453,-0.09016126,0.0009004
 1,-0.00176726,0.00126722,0.00620682,0.00583105,0.01740515,-0.00296171,
 -0.00706763,0.00056396,0.00101423,0.00214820,0.00014899,-0.00067298,0.
 00025567,0.00032004,-0.00039802,0.00007714,0.00041427,0.00247065,0.003
 45724,0.00619154,0.02172981,0.10216952,0.00138306,0.00242685,0.0045099
 9,-0.00007498,-0.00006041,-0.00035093,-0.05672418,-0.09095397,-0.29538
 803,-0.00066346,0.00130660,-0.00001698,-0.00063525,-0.00388742,-0.0090
 8115,0.00017674,0.00087305,0.00159510,0.00017872,-0.00073157,0.0017664
 7,-0.00024419,0.00001774,0.00016114,-0.00021673,-0.00011002,0.00009753
 ,-0.00432134,-0.00809461,-0.02121002,0.06314061,0.09856382,0.31533588,
 -0.00017606,0.00013452,-0.00164661,-0.00471337,0.00034208,0.00239659,-
 0.00144413,-0.00232579,-0.00035583,-0.31047463,0.08186109,0.04262282,-
 0.01721206,0.00930194,0.00376370,0.00012557,0.00001606,0.00016044,-0.0
 0052189,0.00016236,0.00004981,0.00061448,-0.00030255,-0.00078099,-0.00
 014265,0.00069670,-0.00044474,-0.00067421,0.00022177,-0.00026290,-0.00
 072606,0.00017181,-0.00034392,0.33511196,0.00068838,-0.00476727,0.0047
 7526,0.02603700,-0.00532474,-0.00801111,-0.00340076,-0.00406598,-0.000
 13369,0.08288093,-0.08652282,-0.01378921,-0.02692708,0.01122097,0.0037
 3620,-0.00040681,0.00004258,-0.00003042,0.00192978,0.00050272,-0.00003
 478,-0.00115756,0.00175277,-0.00036918,-0.00029627,-0.00045644,-0.0002
 8864,-0.00076511,0.00060526,-0.00035714,-0.00071795,0.00038883,-0.0003
 6905,-0.09016289,0.08905669,-0.00192025,0.00288587,-0.00332535,-0.0236
 5489,0.00489951,0.00566033,-0.00168494,0.00043378,-0.00030364,0.046136
 53,-0.01488881,-0.06848022,-0.00533464,0.00203796,0.00030805,-0.000376
 91,0.00026609,0.00035868,-0.00149977,0.00006191,0.00028949,0.00023067,
 -0.00115270,0.00135550,0.00046687,0.00017564,0.00016518,-0.00037503,0.
 00001539,-0.00013036,-0.00017025,-0.00005011,-0.00009493,-0.04622413,0
 .01623437,0.06777644,0.00062231,-0.00027302,-0.00033181,0.00092865,-0.
 00390663,-0.00833020,0.00007136,-0.00030875,0.00059827,-0.06560210,0.0
 0840847,0.01710986,0.00329523,-0.00912773,-0.02330811,-0.00019857,0.00
 054623,-0.00015019,0.00011959,0.00004939,0.00021600,0.00020540,0.00104
 765,-0.00138044,0.00042022,-0.00026998,0.00061424,-0.00025517,-0.00001
 558,-0.00014202,0.00002691,0.00013135,0.00014519,-0.00066293,0.0117147
 8,0.03484315,0.06201557,-0.00096735,0.00058208,-0.00032324,-0.00291004
 ,0.01017228,0.03024403,0.00003247,-0.00078099,0.00001984,0.00825990,-0
 .08871047,-0.08890667,0.00281469,-0.01214853,-0.02715570,0.00037209,0.
 00019174,-0.00020070,-0.00026583,-0.00006036,-0.00018250,0.00294067,-0
 .00386354,0.00475235,-0.00098893,0.00183166,-0.00087266,-0.00035412,0.
 00015557,-0.00013367,-0.00015566,0.00015946,0.00004792,0.00089759,-0.0
 0363233,-0.01121643,-0.00557994,0.09834676,0.00087859,-0.00086105,0.00
 018248,0.00323283,-0.00840414,-0.02347494,-0.00021396,-0.00009739,-0.0
 0001841,0.01574668,-0.08841290,-0.30433324,0.00145605,0.00011175,-0.00
 199283,-0.00097331,0.00034353,0.00067183,-0.00017587,0.00035272,0.0004
 7329,-0.00228843,0.00438356,-0.00189028,0.00068126,0.00034377,0.001421
 96,-0.00029678,-0.00006300,-0.00006094,-0.00006489,0.00009847,-0.00000
 728,0.00191017,-0.00205387,-0.00443807,-0.01871204,0.09447961,0.330280
 44,-0.00281035,0.00138808,-0.00190118,-0.00430348,-0.00287283,-0.00179
 063,0.00639616,0.01474817,-0.02694991,-0.00231808,-0.01199870,0.022725
 79,-0.06800780,-0.02587196,0.04480106,0.00011834,0.00035063,0.00006921
 ,0.00038282,0.00107621,0.00011439,-0.00007604,0.00023156,-0.00007515,0
 .00082381,-0.00103509,0.00077403,0.00229837,-0.00070613,0.00041798,-0.
 00311758,0.00209517,-0.00195684,-0.00092772,-0.00045386,-0.00004576,0.
 00188335,0.00116097,-0.00038926,0.07164854,0.00051095,-0.00095671,0.00
 074248,-0.00286904,-0.00392604,-0.00165003,-0.00488255,-0.00577831,0.0
 1148725,-0.00303191,-0.01198923,0.02268289,-0.02465610,-0.13247196,0.1
 2062708,0.00008600,-0.00039180,-0.00012612,0.00009034,-0.00063592,-0.0
 0005514,-0.00005210,0.00014208,0.00023706,0.00043015,-0.00116459,0.001
 03959,-0.00009727,0.00137533,-0.00057923,0.00112252,-0.00086379,0.0004
 9416,-0.00105266,-0.00088492,-0.00008319,0.00094191,0.00132263,-0.0002
 5983,0.02889855,0.14055715,-0.00083976,-0.00031698,-0.00073544,-0.0011
 8883,-0.00121265,0.00044347,0.00267291,0.00281421,-0.00751248,-0.00167
 191,-0.00651915,0.00810509,0.04444179,0.12354393,-0.26451308,0.0000324
 8,0.00014095,0.00009932,0.00010870,0.00043220,0.00005136,0.00000395,-0
 .00025262,0.00032090,0.00014258,-0.00022335,0.00023417,-0.00041983,-0.
 00037139,0.00192903,-0.00158469,0.00120128,0.00010652,-0.00009575,0.00
 044453,0.00003015,0.00017687,0.00050727,0.00196260,-0.04722126,-0.1331
 9466,0.28186045,-0.00326617,0.00011199,-0.00103827,-0.00036747,0.00013
 370,-0.00015447,-0.01165382,0.01964923,0.02036727,0.00865937,-0.017890
 35,-0.02163878,-0.09065684,0.06299935,0.06935654,0.00005839,0.00013868
 ,0.00010527,0.00027819,0.00084996,-0.00004003,0.00028147,-0.00002956,0
 .00023799,0.00005917,0.00005160,0.00020307,-0.00325299,0.00260874,-0.0
 0161433,0.00191616,-0.00061453,0.00015657,0.00182371,0.00103743,-0.000
 39066,-0.00286983,-0.00525652,-0.00079101,-0.00199035,0.00456122,0.005
 44273,0.10098102,0.00104954,-0.00051116,0.00143753,0.00035617,0.000237
 37,-0.00071100,0.00443633,-0.00798600,-0.01054633,0.00982490,-0.014859
 27,-0.02020705,0.06246823,-0.17891644,-0.12216883,-0.00006645,0.000098
 83,-0.00006958,-0.00000027,-0.00067332,0.00004818,-0.00008060,-0.00035
 442,0.00081763,-0.00022455,-0.00007889,0.00056665,0.00122297,-0.001094
 90,0.00080235,-0.00030438,0.00175079,0.00047692,0.00003796,0.00208467,
 0.00038073,-0.00335815,-0.00356595,0.00003878,-0.00701078,0.01566609,0
 .01300644,-0.06835093,0.18820262,-0.00136391,0.00063615,-0.00043092,-0
 .00017701,-0.00028276,-0.00013503,-0.00696055,0.01071747,0.00921308,0.
 00100892,-0.00286807,-0.00410054,0.06944562,-0.12366736,-0.19264146,0.
 00004726,0.00020846,0.00001416,0.00010251,0.00026605,-0.00002879,0.000
 25039,-0.00004848,0.00025102,0.00004571,-0.00019385,0.00017240,-0.0015
 8936,0.00087544,0.00034752,0.00006218,0.00040439,0.00257669,-0.0007486
 5,0.00024674,0.00082872,-0.00134877,-0.00105945,0.00122340,0.01142754,
 -0.02136232,-0.02238207,-0.07020188,0.13612760,0.20509182\\-0.00001446
 ,0.00001314,-0.00009596,-0.00000744,0.00007015,0.00009569,-0.00006233,
 -0.00000957,0.00001376,0.00006642,-0.00003893,-0.00006154,0.00001026,-
 0.00004555,0.00004765,0.00001369,0.00000078,-0.00004080,-0.00001962,0.
 00002042,0.00004537,-0.00000643,0.00001700,0.00003480,0.00001620,-0.00
 000876,-0.00004903,-0.00000225,-0.00001459,-0.00004972,-0.00002367,0.0
 0001355,0.00003810,-0.00000489,0.00001177,0.00005158,0.00001878,-0.000
 00538,-0.00003736,0.00001804,-0.00002684,-0.00004057,-0.00000231,0.000
 00278,0.00004803\\\@


 CHRISTMAS IS ON TOP OF A STEEP HILL.
 THE CLOSER YOU GET, THE STEEPER THE HILL IS.
          -- LINUS, OF PEANUTS
 Job cpu time:       0 days  0 hours  0 minutes 14.6 seconds.
 File lengths (MBytes):  RWF=    132 Int=      0 D2E=      0 Chk=      3 Scr=      2
 Normal termination of Gaussian 09 at Sat Apr 16 12:25:31 2022.
