 Entering Gaussian System, Link 0=g09
 Input=/scratch/mverot/1-2-ethanediol-open-opt/1-2-ethanediol-open-opt.com
 Output=/scratch/mverot/1-2-ethanediol-open-opt/1-2-ethanediol-open-opt.log
 Initial command:
 /opt/g09/l1.exe "/scratch/mverot/1-2-ethanediol-open-opt/Gau-1476945.inp" -scrdir="/scratch/mverot/1-2-ethanediol-open-opt/"
 Entering Link 1 = /opt/g09/l1.exe PID=   1476947.
  
 Copyright (c) 1988,1990,1992,1993,1995,1998,2003,2009,2013,
            Gaussian, Inc.  All Rights Reserved.
  
 This is part of the Gaussian(R) 09 program.  It is based on
 the Gaussian(R) 03 system (copyright 2003, Gaussian, Inc.),
 the Gaussian(R) 98 system (copyright 1998, Gaussian, Inc.),
 the Gaussian(R) 94 system (copyright 1995, Gaussian, Inc.),
 the Gaussian 92(TM) system (copyright 1992, Gaussian, Inc.),
 the Gaussian 90(TM) system (copyright 1990, Gaussian, Inc.),
 the Gaussian 88(TM) system (copyright 1988, Gaussian, Inc.),
 the Gaussian 86(TM) system (copyright 1986, Carnegie Mellon
 University), and the Gaussian 82(TM) system (copyright 1983,
 Carnegie Mellon University). Gaussian is a federally registered
 trademark of Gaussian, Inc.
  
 This software contains proprietary and confidential information,
 including trade secrets, belonging to Gaussian, Inc.
  
 This software is provided under written license and may be
 used, copied, transmitted, or stored only in accord with that
 written license.
  
 The following legend is applicable only to US Government
 contracts under FAR:
  
                    RESTRICTED RIGHTS LEGEND
  
 Use, reproduction and disclosure by the US Government is
 subject to restrictions as set forth in subparagraphs (a)
 and (c) of the Commercial Computer Software - Restricted
 Rights clause in FAR 52.227-19.
  
 Gaussian, Inc.
 340 Quinnipiac St., Bldg. 40, Wallingford CT 06492
  
  
 ---------------------------------------------------------------
 Warning -- This program may not be used in any manner that
 competes with the business of Gaussian, Inc. or will provide
 assistance to any competitor of Gaussian, Inc.  The licensee
 of this program is prohibited from giving any competitor of
 Gaussian, Inc. access to this program.  By using this program,
 the user acknowledges that Gaussian, Inc. is engaged in the
 business of creating and licensing software in the field of
 computational chemistry and represents and warrants to the
 licensee that it is not a competitor of Gaussian, Inc. and that
 it will not use this program in any manner prohibited above.
 ---------------------------------------------------------------
  

 Cite this work as:
 Gaussian 09, Revision D.01,
 M. J. Frisch, G. W. Trucks, H. B. Schlegel, G. E. Scuseria, 
 M. A. Robb, J. R. Cheeseman, G. Scalmani, V. Barone, B. Mennucci, 
 G. A. Petersson, H. Nakatsuji, M. Caricato, X. Li, H. P. Hratchian, 
 A. F. Izmaylov, J. Bloino, G. Zheng, J. L. Sonnenberg, M. Hada, 
 M. Ehara, K. Toyota, R. Fukuda, J. Hasegawa, M. Ishida, T. Nakajima, 
 Y. Honda, O. Kitao, H. Nakai, T. Vreven, J. A. Montgomery, Jr., 
 J. E. Peralta, F. Ogliaro, M. Bearpark, J. J. Heyd, E. Brothers, 
 K. N. Kudin, V. N. Staroverov, T. Keith, R. Kobayashi, J. Normand, 
 K. Raghavachari, A. Rendell, J. C. Burant, S. S. Iyengar, J. Tomasi, 
 M. Cossi, N. Rega, J. M. Millam, M. Klene, J. E. Knox, J. B. Cross, 
 V. Bakken, C. Adamo, J. Jaramillo, R. Gomperts, R. E. Stratmann, 
 O. Yazyev, A. J. Austin, R. Cammi, C. Pomelli, J. W. Ochterski, 
 R. L. Martin, K. Morokuma, V. G. Zakrzewski, G. A. Voth, 
 P. Salvador, J. J. Dannenberg, S. Dapprich, A. D. Daniels, 
 O. Farkas, J. B. Foresman, J. V. Ortiz, J. Cioslowski, 
 and D. J. Fox, Gaussian, Inc., Wallingford CT, 2013.
 
 ******************************************
 Gaussian 09:  AM64L-G09RevD.01 24-Apr-2013
                17-Apr-2022 
 ******************************************
 %chk=1-2-ethanediol-open-opt
 ----------
 #n PM3 Opt
 ----------
 1/14=-1,18=20,19=15,26=1,38=1/1,3;
 2/9=110,12=2,17=6,18=5,40=1/2;
 3/5=2,16=1,25=1,41=800000,71=1/1,2,3;
 4/35=1/1;
 5/5=2,35=1,38=5/2;
 6/7=2,8=2,9=2,10=2,28=1/1;
 7//1,2,3,16;
 1/14=-1,18=20,19=15,26=1/3(2);
 2/9=110/2;
 99//99;
 2/9=110/2;
 3/5=2,16=1,25=1,41=800000,71=1,135=20/1,2,3;
 4/5=5,16=3,35=1/1;
 5/5=2,35=1,38=5/2;
 7//1,2,3,16;
 1/14=-1,18=20,19=15,26=1/3(-5);
 2/9=110/2;
 6/7=2,8=2,9=2,10=2,19=2,28=1/1;
 99/9=1/99;
 -------------------------
 Optimisation de geometrie
 -------------------------
 Symbolic Z-matrix:
 Charge =  0 Multiplicity = 1
 C                     2.26235   2.30287   2.12682 
 O                     1.19477   2.753     2.94869 
 C                     1.86043   1.06071   1.33944 
 O                     2.93052   0.60593   0.52348 
 H                     3.12289   2.08284   2.7671 
 H                     2.56524   3.11234   1.45399 
 H                     0.48594   3.06486   2.35936 
 H                     1.00384   1.28284   0.6946 
 H                     1.55145   0.25316   2.0118 
 H                     3.63326   0.28804   1.11694 
 

 GradGradGradGradGradGradGradGradGradGradGradGradGradGradGradGradGradGrad
 Berny optimization.
 Initialization pass.
                           ----------------------------
                           !    Initial Parameters    !
                           ! (Angstroms and Degrees)  !
 --------------------------                            --------------------------
 ! Name  Definition              Value          Derivative Info.                !
 --------------------------------------------------------------------------------
 ! R1    R(1,2)                  1.4205         estimate D2E/DX2                !
 ! R2    R(1,3)                  1.5246         estimate D2E/DX2                !
 ! R3    R(1,5)                  1.0949         estimate D2E/DX2                !
 ! R4    R(1,6)                  1.0953         estimate D2E/DX2                !
 ! R5    R(2,7)                  0.9731         estimate D2E/DX2                !
 ! R6    R(3,4)                  1.4205         estimate D2E/DX2                !
 ! R7    R(3,8)                  1.0949         estimate D2E/DX2                !
 ! R8    R(3,9)                  1.0953         estimate D2E/DX2                !
 ! R9    R(4,10)                 0.9732         estimate D2E/DX2                !
 ! A1    A(2,1,3)              111.0298         estimate D2E/DX2                !
 ! A2    A(2,1,5)              108.4218         estimate D2E/DX2                !
 ! A3    A(2,1,6)              109.2116         estimate D2E/DX2                !
 ! A4    A(3,1,5)              110.2098         estimate D2E/DX2                !
 ! A5    A(3,1,6)              110.9636         estimate D2E/DX2                !
 ! A6    A(5,1,6)              106.8811         estimate D2E/DX2                !
 ! A7    A(1,2,7)              107.373          estimate D2E/DX2                !
 ! A8    A(1,3,4)              111.0336         estimate D2E/DX2                !
 ! A9    A(1,3,8)              110.1876         estimate D2E/DX2                !
 ! A10   A(1,3,9)              110.9796         estimate D2E/DX2                !
 ! A11   A(4,3,8)              108.4213         estimate D2E/DX2                !
 ! A12   A(4,3,9)              109.2132         estimate D2E/DX2                !
 ! A13   A(8,3,9)              106.882          estimate D2E/DX2                !
 ! A14   A(3,4,10)             107.3539         estimate D2E/DX2                !
 ! D1    D(3,1,2,7)            -66.807          estimate D2E/DX2                !
 ! D2    D(5,1,2,7)            171.9844         estimate D2E/DX2                !
 ! D3    D(6,1,2,7)             55.8686         estimate D2E/DX2                !
 ! D4    D(2,1,3,4)           -179.6574         estimate D2E/DX2                !
 ! D5    D(2,1,3,8)             60.2031         estimate D2E/DX2                !
 ! D6    D(2,1,3,9)            -57.985          estimate D2E/DX2                !
 ! D7    D(5,1,3,4)            -59.5052         estimate D2E/DX2                !
 ! D8    D(5,1,3,8)           -179.6446         estimate D2E/DX2                !
 ! D9    D(5,1,3,9)             62.1673         estimate D2E/DX2                !
 ! D10   D(6,1,3,4)             58.6859         estimate D2E/DX2                !
 ! D11   D(6,1,3,8)            -61.4536         estimate D2E/DX2                !
 ! D12   D(6,1,3,9)           -179.6417         estimate D2E/DX2                !
 ! D13   D(1,3,4,10)            67.1313         estimate D2E/DX2                !
 ! D14   D(8,3,4,10)          -171.6856         estimate D2E/DX2                !
 ! D15   D(9,3,4,10)           -55.5681         estimate D2E/DX2                !
 --------------------------------------------------------------------------------
 Trust Radius=3.00D-01 FncErr=1.00D-07 GrdErr=1.00D-07
 Number of steps in this run=     48 maximum allowed number of steps=    100.
 GradGradGradGradGradGradGradGradGradGradGradGradGradGradGradGradGradGrad

                          Input orientation:                          
 ---------------------------------------------------------------------
 Center     Atomic      Atomic             Coordinates (Angstroms)
 Number     Number       Type             X           Y           Z
 ---------------------------------------------------------------------
      1          6           0        2.262350    2.302870    2.126820
      2          8           0        1.194770    2.753000    2.948690
      3          6           0        1.860430    1.060710    1.339440
      4          8           0        2.930520    0.605930    0.523480
      5          1           0        3.122890    2.082840    2.767100
      6          1           0        2.565240    3.112340    1.453990
      7          1           0        0.485940    3.064860    2.359360
      8          1           0        1.003840    1.282840    0.694600
      9          1           0        1.551450    0.253160    2.011800
     10          1           0        3.633260    0.288040    1.116940
 ---------------------------------------------------------------------
                    Distance matrix (angstroms):
                    1          2          3          4          5
     1  C    0.000000
     2  O    1.420498   0.000000
     3  C    1.524621   2.428299   0.000000
     4  O    2.428324   3.674831   1.420461   0.000000
     5  H    1.094943   2.049326   2.162584   2.692972   0.000000
     6  H    1.095301   2.059476   2.172341   2.698401   1.759290
     7  H    1.946879   0.973143   2.635541   3.923361   2.843259
     8  H    2.162305   2.697915   1.094946   2.049289   3.070119
     9  H    2.172538   2.693359   1.095296   2.059460   2.527376
    10  H    2.637952   3.921424   1.946651   0.973187   2.490946
                    6          7          8          9         10
     6  H    0.000000
     7  H    2.268356   0.000000
     8  H    2.522244   2.493039   0.000000
     9  H    3.084450   3.026841   1.759299   0.000000
    10  H    3.038246   4.377209   2.842859   2.266258   0.000000
 Stoichiometry    C2H6O2
 Framework group  C1[X(C2H6O2)]
 Deg. of freedom    24
 Full point group                 C1      NOp   1
 Largest Abelian subgroup         C1      NOp   1
 Largest concise Abelian subgroup C1      NOp   1
                         Standard orientation:                         
 ---------------------------------------------------------------------
 Center     Atomic      Atomic             Coordinates (Angstroms)
 Number     Number       Type             X           Y           Z
 ---------------------------------------------------------------------
      1          6           0       -0.561529   -0.511441    0.066756
      2          8           0       -1.830826    0.098540   -0.119314
      3          6           0        0.561402    0.511665   -0.062662
      4          8           0        1.831129   -0.099664    0.115608
      5          1           0       -0.443201   -1.299920   -0.683711
      6          1           0       -0.536262   -0.999118    1.047173
      7          1           0       -1.974557    0.704281    0.628634
      8          1           0        0.446271    1.296577    0.692033
      9          1           0        0.532531    1.004031   -1.040627
     10          1           0        1.973553   -0.698205   -0.638419
 ---------------------------------------------------------------------
 Rotational constants (GHZ):     28.9954263      3.9450889      3.6953605
 Standard basis: VSTO-6G (5D, 7F)
 There are    22 symmetry adapted cartesian basis functions of A   symmetry.
 There are    22 symmetry adapted basis functions of A   symmetry.
    22 basis functions,   132 primitive gaussians,    22 cartesian basis functions
    13 alpha electrons       13 beta electrons
       nuclear repulsion energy        99.6580627695 Hartrees.
 Integral buffers will be    131072 words long.
 Regular integral format.
 Two-electron integral symmetry is turned off.
 Do NDO integrals.
 One-electron integrals computed using PRISM.
 NBasis=    22 RedAO= F EigKep=  0.00D+00  NBF=    22
 NBsUse=    22 1.00D-04 EigRej=  0.00D+00 NBFU=    22
 Simple Huckel Guess.
 Overlap will be assumed to be unity.
 Keep J ints in memory in canonical form, NReq=887849.
 Requested convergence on RMS density matrix=1.00D-08 within 128 cycles.
 Requested convergence on MAX density matrix=1.00D-06.
 Requested convergence on             energy=1.00D-06.
 No special actions if energy rises.
 SCF Done:  E(RPM3) = -0.152926843345     A.U. after   13 cycles
            NFock= 12  Conv=0.34D-08     -V/T= 0.9917

 **********************************************************************

            Population analysis using the SCF density.

 **********************************************************************

 Orbital symmetries:
       Occupied  (A) (A) (A) (A) (A) (A) (A) (A) (A) (A) (A) (A)
                 (A)
       Virtual   (A) (A) (A) (A) (A) (A) (A) (A) (A)
 The electronic state is 1-A.
 Alpha  occ. eigenvalues --   -1.45806  -1.33522  -1.05344  -0.83607  -0.67057
 Alpha  occ. eigenvalues --   -0.65033  -0.61851  -0.56459  -0.53603  -0.50468
 Alpha  occ. eigenvalues --   -0.44518  -0.43884  -0.40766
 Alpha virt. eigenvalues --    0.10514   0.11921   0.12803   0.13433   0.14839
 Alpha virt. eigenvalues --    0.15058   0.16667   0.19041   0.20034
          Condensed to atoms (all electrons):
               1          2          3          4          5          6
     1  C    3.972080   0.000000   0.000000   0.000000   0.000000   0.000000
     2  O    0.000000   6.306040   0.000000   0.000000   0.000000   0.000000
     3  C    0.000000   0.000000   3.972161   0.000000   0.000000   0.000000
     4  O    0.000000   0.000000   0.000000   6.305947   0.000000   0.000000
     5  H    0.000000   0.000000   0.000000   0.000000   0.944713   0.000000
     6  H    0.000000   0.000000   0.000000   0.000000   0.000000   0.964304
     7  H    0.000000   0.000000   0.000000   0.000000   0.000000   0.000000
     8  H    0.000000   0.000000   0.000000   0.000000   0.000000   0.000000
     9  H    0.000000   0.000000   0.000000   0.000000   0.000000   0.000000
    10  H    0.000000   0.000000   0.000000   0.000000   0.000000   0.000000
               7          8          9         10
     1  C    0.000000   0.000000   0.000000   0.000000
     2  O    0.000000   0.000000   0.000000   0.000000
     3  C    0.000000   0.000000   0.000000   0.000000
     4  O    0.000000   0.000000   0.000000   0.000000
     5  H    0.000000   0.000000   0.000000   0.000000
     6  H    0.000000   0.000000   0.000000   0.000000
     7  H    0.812828   0.000000   0.000000   0.000000
     8  H    0.000000   0.944847   0.000000   0.000000
     9  H    0.000000   0.000000   0.964280   0.000000
    10  H    0.000000   0.000000   0.000000   0.812800
 Mulliken charges:
               1
     1  C    0.027920
     2  O   -0.306040
     3  C    0.027839
     4  O   -0.305947
     5  H    0.055287
     6  H    0.035696
     7  H    0.187172
     8  H    0.055153
     9  H    0.035720
    10  H    0.187200
 Sum of Mulliken charges =  -0.00000
 Mulliken charges with hydrogens summed into heavy atoms:
               1
     1  C    0.118903
     2  O   -0.118867
     3  C    0.118712
     4  O   -0.118747
 Charge=             -0.0000 electrons
 Dipole moment (field-independent basis, Debye):
    X=             -0.0013    Y=              0.0111    Z=             -0.0017  Tot=              0.0113
 N-N= 9.965806276948D+01 E-N=-1.621398143068D+02  KE=-1.844381986392D+01
 Calling FoFJK, ICntrl=      2127 FMM=F ISym2X=0 I1Cent= 0 IOpClX= 0 NMat=1 NMatS=1 NMatT=0.
 ***** Axes restored to original set *****
 -------------------------------------------------------------------
 Center     Atomic                   Forces (Hartrees/Bohr)
 Number     Number              X              Y              Z
 -------------------------------------------------------------------
      1        6          -0.016269537    0.008496510    0.003046827
      2        8          -0.003334969    0.002818261   -0.014206233
      3        6           0.016222237   -0.008576491   -0.002990150
      4        8           0.003245141   -0.002921203    0.014277025
      5        1           0.000756030    0.001504020    0.010083270
      6        1           0.003192644    0.005816827   -0.004802165
      7        1           0.018947961   -0.008619163    0.012627078
      8        1          -0.000722000   -0.001521826   -0.010071633
      9        1          -0.003228694   -0.005794248    0.004818581
     10        1          -0.018808813    0.008797315   -0.012782599
 -------------------------------------------------------------------
 Cartesian Forces:  Max     0.018947961 RMS     0.009426935

 GradGradGradGradGradGradGradGradGradGradGradGradGradGradGradGradGradGrad
 Berny optimization.
 FormGI is forming the generalized inverse of G from B-inverse, IUseBI=4.
 Internal  Forces:  Max     0.024250481 RMS     0.007756451
 Search for a local minimum.
 Step number   1 out of a maximum of   48
 All quantities printed in internal units (Hartrees-Bohrs-Radians)
 Mixed Optimization -- RFO/linear search
 Second derivative matrix not updated -- first step.
 ITU=  0
     Eigenvalues ---    0.00440   0.01421   0.01421   0.04968   0.04968
     Eigenvalues ---    0.05779   0.05780   0.11590   0.11590   0.13891
     Eigenvalues ---    0.13891   0.16000   0.16000   0.21981   0.21981
     Eigenvalues ---    0.29926   0.34207   0.34208   0.34247   0.34248
     Eigenvalues ---    0.42385   0.42391   0.52731   0.52740
 RFO step:  Lambda=-7.27389181D-03 EMin= 4.40262180D-03
 Linear search not attempted -- first point.
 Iteration  1 RMS(Cart)=  0.04170874 RMS(Int)=  0.00091381
 Iteration  2 RMS(Cart)=  0.00089623 RMS(Int)=  0.00021929
 Iteration  3 RMS(Cart)=  0.00000036 RMS(Int)=  0.00021929
 Variable       Old X    -DE/DX   Delta X   Delta X   Delta X     New X
                                 (Linear)    (Quad)   (Total)
    R1        2.68435  -0.01449   0.00000  -0.03360  -0.03360   2.65075
    R2        2.88112   0.01251   0.00000   0.04082   0.04082   2.92194
    R3        2.06914   0.00619   0.00000   0.01769   0.01769   2.08684
    R4        2.06982   0.00813   0.00000   0.02328   0.02328   2.09310
    R5        1.83897  -0.02421   0.00000  -0.04528  -0.04528   1.79369
    R6        2.68428  -0.01446   0.00000  -0.03355  -0.03355   2.65074
    R7        2.06915   0.00619   0.00000   0.01769   0.01769   2.08684
    R8        2.06981   0.00814   0.00000   0.02330   0.02330   2.09311
    R9        1.83906  -0.02425   0.00000  -0.04536  -0.04536   1.79369
    A1        1.93784   0.00385   0.00000   0.01396   0.01374   1.95157
    A2        1.89232  -0.00807   0.00000  -0.07816  -0.07798   1.81433
    A3        1.90610   0.00057   0.00000   0.01845   0.01805   1.92415
    A4        1.92352   0.00409   0.00000   0.02260   0.02236   1.94588
    A5        1.93668  -0.00098   0.00000   0.01307   0.01251   1.94919
    A6        1.86543   0.00020   0.00000   0.00764   0.00730   1.87272
    A7        1.87401  -0.00470   0.00000  -0.02807  -0.02807   1.84594
    A8        1.93790   0.00381   0.00000   0.01379   0.01357   1.95147
    A9        1.92314   0.00412   0.00000   0.02275   0.02251   1.94565
   A10        1.93696  -0.00101   0.00000   0.01282   0.01227   1.94923
   A11        1.89231  -0.00806   0.00000  -0.07807  -0.07790   1.81441
   A12        1.90613   0.00060   0.00000   0.01861   0.01821   1.92434
   A13        1.86544   0.00020   0.00000   0.00767   0.00733   1.87277
   A14        1.87368  -0.00464   0.00000  -0.02776  -0.02776   1.84592
    D1       -1.16600   0.00035   0.00000  -0.00951  -0.00951  -1.17551
    D2        3.00169  -0.00187   0.00000   0.00470   0.00455   3.00624
    D3        0.97509   0.00204   0.00000   0.02871   0.02887   1.00396
    D4       -3.13561  -0.00000   0.00000  -0.00042  -0.00041  -3.13603
    D5        1.05074   0.00490   0.00000   0.07344   0.07375   1.12449
    D6       -1.01203   0.00268   0.00000   0.04158   0.04170  -0.97033
    D7       -1.03856  -0.00491   0.00000  -0.07437  -0.07468  -1.11324
    D8       -3.13539  -0.00001   0.00000  -0.00051  -0.00051  -3.13590
    D9        1.08502  -0.00223   0.00000  -0.03238  -0.03256   1.05246
   D10        1.02426  -0.00269   0.00000  -0.04248  -0.04260   0.98166
   D11       -1.07257   0.00221   0.00000   0.03138   0.03156  -1.04101
   D12       -3.13534  -0.00001   0.00000  -0.00048  -0.00048  -3.13582
   D13        1.17166  -0.00037   0.00000   0.00880   0.00880   1.18046
   D14       -2.99648   0.00185   0.00000  -0.00527  -0.00510  -3.00158
   D15       -0.96985  -0.00203   0.00000  -0.02911  -0.02928  -0.99912
         Item               Value     Threshold  Converged?
 Maximum Force            0.024250     0.000450     NO 
 RMS     Force            0.007756     0.000300     NO 
 Maximum Displacement     0.100947     0.001800     NO 
 RMS     Displacement     0.041940     0.001200     NO 
 Predicted change in Energy=-3.810858D-03
 GradGradGradGradGradGradGradGradGradGradGradGradGradGradGradGradGradGrad

                          Input orientation:                          
 ---------------------------------------------------------------------
 Center     Atomic      Atomic             Coordinates (Angstroms)
 Number     Number       Type             X           Y           Z
 ---------------------------------------------------------------------
      1          6           0        2.257160    2.318878    2.124667
      2          8           0        1.218011    2.759046    2.957757
      3          6           0        1.865338    1.044375    1.341769
      4          8           0        2.907128    0.600219    0.514127
      5          1           0        3.092540    2.125429    2.820519
      6          1           0        2.575846    3.134189    1.446047
      7          1           0        0.526380    3.049127    2.375998
      8          1           0        1.033783    1.239470    0.641804
      9          1           0        1.541039    0.230964    2.020025
     10          1           0        3.593464    0.304893    1.099507
 ---------------------------------------------------------------------
                    Distance matrix (angstroms):
                    1          2          3          4          5
     1  C    0.000000
     2  O    1.402718   0.000000
     3  C    1.546224   2.443469   0.000000
     4  O    2.443376   3.672189   1.402709   0.000000
     5  H    1.104306   1.983472   2.204859   2.771297   0.000000
     6  H    1.107619   2.066329   2.209755   2.720152   1.781500
     7  H    1.895265   0.949181   2.623255   3.889945   2.763330
     8  H    2.204689   2.776092   1.104308   1.983522   3.125732
     9  H    2.209787   2.715674   1.107627   2.066465   2.576226
    10  H    2.625413   3.888281   1.895242   0.949182   2.554830
                    6          7          8          9         10
     6  H    0.000000
     7  H    2.252189   0.000000
     8  H    2.571911   2.557293   0.000000
     9  H    3.135122   3.016337   1.781539   0.000000
    10  H    3.026640   4.308973   2.763130   2.250615   0.000000
 Stoichiometry    C2H6O2
 Framework group  C1[X(C2H6O2)]
 Deg. of freedom    24
 Full point group                 C1      NOp   1
 Largest Abelian subgroup         C1      NOp   1
 Largest concise Abelian subgroup C1      NOp   1
                         Standard orientation:                         
 ---------------------------------------------------------------------
 Center     Atomic      Atomic             Coordinates (Angstroms)
 Number     Number       Type             X           Y           Z
 ---------------------------------------------------------------------
      1          6           0       -0.582977   -0.503648    0.065496
      2          8           0       -1.828945    0.115522   -0.112847
      3          6           0        0.582907    0.503984   -0.061786
      4          8           0        1.829151   -0.116617    0.109456
      5          1           0       -0.547785   -1.266002   -0.732671
      6          1           0       -0.556557   -1.039732    1.034380
      7          1           0       -1.939637    0.691873    0.633149
      8          1           0        0.550822    1.262810    0.739868
      9          1           0        0.553138    1.044314   -1.028221
     10          1           0        1.938792   -0.686518   -0.641634
 ---------------------------------------------------------------------
 Rotational constants (GHZ):     29.0873320      3.9331922      3.6894069
 Standard basis: VSTO-6G (5D, 7F)
 There are    22 symmetry adapted cartesian basis functions of A   symmetry.
 There are    22 symmetry adapted basis functions of A   symmetry.
    22 basis functions,   132 primitive gaussians,    22 cartesian basis functions
    13 alpha electrons       13 beta electrons
       nuclear repulsion energy        99.7484555464 Hartrees.
 Integral buffers will be    131072 words long.
 Regular integral format.
 Two-electron integral symmetry is turned off.
 Do NDO integrals.
 One-electron integrals computed using PRISM.
 NBasis=    22 RedAO= F EigKep=  0.00D+00  NBF=    22
 NBsUse=    22 1.00D-04 EigRej=  0.00D+00 NBFU=    22
 Initial guess from the checkpoint file:  "1-2-ethanediol-open-opt.chk"
 B after Tr=    -0.000000    0.000000   -0.000000
         Rot=    0.999900   -0.012456   -0.001855    0.006490 Ang=  -1.62 deg.
 Overlap will be assumed to be unity.
 Keep J ints in memory in canonical form, NReq=887849.
 Requested convergence on RMS density matrix=1.00D-08 within 128 cycles.
 Requested convergence on MAX density matrix=1.00D-06.
 Requested convergence on             energy=1.00D-06.
 No special actions if energy rises.
 SCF Done:  E(RPM3) = -0.156571524081     A.U. after   11 cycles
            NFock= 10  Conv=0.91D-08     -V/T= 0.9915
 Calling FoFJK, ICntrl=      2127 FMM=F ISym2X=0 I1Cent= 0 IOpClX= 0 NMat=1 NMatS=1 NMatT=0.
 ***** Axes restored to original set *****
 -------------------------------------------------------------------
 Center     Atomic                   Forces (Hartrees/Bohr)
 Number     Number              X              Y              Z
 -------------------------------------------------------------------
      1        6          -0.000408989   -0.001608359    0.000210222
      2        8           0.001664470   -0.000759798   -0.002652014
      3        6           0.000414878    0.001615137   -0.000215375
      4        8          -0.001692256    0.000744278    0.002641490
      5        1          -0.000647047   -0.000067980    0.000633990
      6        1           0.000345191   -0.001182439   -0.000713064
      7        1          -0.001808794    0.000254144    0.001719059
      8        1           0.000649862    0.000058669   -0.000625289
      9        1          -0.000337740    0.001181223    0.000711597
     10        1           0.001820426   -0.000234876   -0.001710615
 -------------------------------------------------------------------
 Cartesian Forces:  Max     0.002652014 RMS     0.001220271

 GradGradGradGradGradGradGradGradGradGradGradGradGradGradGradGradGradGrad
 Berny optimization.
 Using GEDIIS/GDIIS optimizer.
 FormGI is forming the generalized inverse of G from B-inverse, IUseBI=4.
 Internal  Forces:  Max     0.004375757 RMS     0.001289996
 Search for a local minimum.
 Step number   2 out of a maximum of   48
 All quantities printed in internal units (Hartrees-Bohrs-Radians)
 Mixed Optimization -- RFO/linear search
 Update second derivatives using D2CorX and points    1    2
 DE= -3.64D-03 DEPred=-3.81D-03 R= 9.56D-01
 TightC=F SS=  1.41D+00  RLast= 2.11D-01 DXNew= 5.0454D-01 6.3236D-01
 Trust test= 9.56D-01 RLast= 2.11D-01 DXMaxT set to 5.05D-01
 ITU=  1  0
 Use linear search instead of GDIIS.
     Eigenvalues ---    0.00440   0.01416   0.01421   0.04771   0.04831
     Eigenvalues ---    0.05616   0.05621   0.11812   0.11981   0.13275
     Eigenvalues ---    0.13957   0.16000   0.17196   0.21984   0.22021
     Eigenvalues ---    0.31005   0.34207   0.34231   0.34247   0.34647
     Eigenvalues ---    0.41944   0.42388   0.52735   0.53066
 RFO step:  Lambda=-4.02848690D-04 EMin= 4.40261929D-03
 Quartic linear search produced a step of -0.01295.
 Iteration  1 RMS(Cart)=  0.01460243 RMS(Int)=  0.00022593
 Iteration  2 RMS(Cart)=  0.00020135 RMS(Int)=  0.00001419
 Iteration  3 RMS(Cart)=  0.00000004 RMS(Int)=  0.00001419
 Variable       Old X    -DE/DX   Delta X   Delta X   Delta X     New X
                                 (Linear)    (Quad)   (Total)
    R1        2.65075  -0.00061   0.00044  -0.00358  -0.00314   2.64761
    R2        2.92194  -0.00340  -0.00053  -0.00854  -0.00907   2.91287
    R3        2.08684  -0.00008  -0.00023   0.00092   0.00069   2.08753
    R4        2.09310  -0.00033  -0.00030   0.00054   0.00024   2.09334
    R5        1.79369   0.00034   0.00059  -0.00228  -0.00169   1.79200
    R6        2.65074  -0.00062   0.00043  -0.00360  -0.00316   2.64757
    R7        2.08684  -0.00008  -0.00023   0.00091   0.00068   2.08752
    R8        2.09311  -0.00033  -0.00030   0.00055   0.00025   2.09336
    R9        1.79369   0.00033   0.00059  -0.00230  -0.00171   1.79198
    A1        1.95157  -0.00000  -0.00018   0.00062   0.00043   1.95201
    A2        1.81433  -0.00076   0.00101  -0.01357  -0.01256   1.80177
    A3        1.92415   0.00131  -0.00023   0.01366   0.01344   1.93759
    A4        1.94588   0.00052  -0.00029   0.00251   0.00221   1.94809
    A5        1.94919  -0.00137  -0.00016  -0.00705  -0.00722   1.94197
    A6        1.87272   0.00041  -0.00009   0.00390   0.00384   1.87656
    A7        1.84594   0.00438   0.00036   0.02509   0.02546   1.87140
    A8        1.95147  -0.00002  -0.00018   0.00053   0.00035   1.95182
    A9        1.94565   0.00053  -0.00029   0.00265   0.00235   1.94799
   A10        1.94923  -0.00138  -0.00016  -0.00713  -0.00729   1.94193
   A11        1.81441  -0.00077   0.00101  -0.01359  -0.01257   1.80183
   A12        1.92434   0.00132  -0.00024   0.01368   0.01347   1.93781
   A13        1.87277   0.00041  -0.00009   0.00392   0.00386   1.87662
   A14        1.84592   0.00437   0.00036   0.02508   0.02544   1.87136
    D1       -1.17551   0.00059   0.00012   0.01683   0.01696  -1.15856
    D2        3.00624   0.00044  -0.00006   0.02178   0.02169   3.02793
    D3        1.00396  -0.00022  -0.00037   0.01829   0.01795   1.02191
    D4       -3.13603  -0.00000   0.00001  -0.00079  -0.00078  -3.13681
    D5        1.12449   0.00063  -0.00095   0.01415   0.01319   1.13768
    D6       -0.97033   0.00068  -0.00054   0.01221   0.01166  -0.95866
    D7       -1.11324  -0.00063   0.00097  -0.01575  -0.01478  -1.12802
    D8       -3.13590  -0.00000   0.00001  -0.00081  -0.00081  -3.13671
    D9        1.05246   0.00005   0.00042  -0.00275  -0.00233   1.05013
   D10        0.98166  -0.00069   0.00055  -0.01388  -0.01332   0.96834
   D11       -1.04101  -0.00006  -0.00041   0.00106   0.00066  -1.04035
   D12       -3.13582  -0.00001   0.00001  -0.00088  -0.00087  -3.13669
   D13        1.18046  -0.00061  -0.00011  -0.01791  -0.01802   1.16244
   D14       -3.00158  -0.00045   0.00007  -0.02274  -0.02264  -3.02422
   D15       -0.99912   0.00021   0.00038  -0.01922  -0.01887  -1.01800
         Item               Value     Threshold  Converged?
 Maximum Force            0.004376     0.000450     NO 
 RMS     Force            0.001290     0.000300     NO 
 Maximum Displacement     0.029283     0.001800     NO 
 RMS     Displacement     0.014656     0.001200     NO 
 Predicted change in Energy=-2.024937D-04
 GradGradGradGradGradGradGradGradGradGradGradGradGradGradGradGradGradGrad

                          Input orientation:                          
 ---------------------------------------------------------------------
 Center     Atomic      Atomic             Coordinates (Angstroms)
 Number     Number       Type             X           Y           Z
 ---------------------------------------------------------------------
      1          6           0        2.257904    2.317480    2.121601
      2          8           0        1.221522    2.762177    2.952932
      3          6           0        1.864445    1.045410    1.345061
      4          8           0        2.903158    0.597406    0.518460
      5          1           0        3.083883    2.123330    2.828964
      6          1           0        2.588953    3.121169    1.434876
      7          1           0        0.511588    3.043407    2.390662
      8          1           0        1.041806    1.240806    0.634167
      9          1           0        1.528643    0.243421    2.031485
     10          1           0        3.608788    0.311984    1.084011
 ---------------------------------------------------------------------
                    Distance matrix (angstroms):
                    1          2          3          4          5
     1  C    0.000000
     2  O    1.401055   0.000000
     3  C    1.541424   2.438419   0.000000
     4  O    2.438251   3.666168   1.401036   0.000000
     5  H    1.104671   1.972785   2.202478   2.774803   0.000000
     6  H    1.107746   2.074425   2.200399   2.703317   1.784410
     7  H    1.910231   0.948285   2.629734   3.899701   2.766831
     8  H    2.202404   2.779126   1.104666   1.972811   3.125070
     9  H    2.200378   2.699541   1.107757   2.074570   2.566866
    10  H    2.631254   3.898122   1.910182   0.948276   2.569312
                    6          7          8          9         10
     6  H    0.000000
     7  H    2.288017   0.000000
     8  H    2.563312   2.572116   0.000000
     9  H    3.124361   3.000556   1.784456   0.000000
    10  H    3.009101   4.331358   2.766671   2.286791   0.000000
 Stoichiometry    C2H6O2
 Framework group  C1[X(C2H6O2)]
 Deg. of freedom    24
 Full point group                 C1      NOp   1
 Largest Abelian subgroup         C1      NOp   1
 Largest concise Abelian subgroup C1      NOp   1
                         Standard orientation:                         
 ---------------------------------------------------------------------
 Center     Atomic      Atomic             Coordinates (Angstroms)
 Number     Number       Type             X           Y           Z
 ---------------------------------------------------------------------
      1          6           0       -0.579870   -0.503314    0.066704
      2          8           0       -1.826386    0.111570   -0.109558
      3          6           0        0.579858    0.503691   -0.063526
      4          8           0        1.826532   -0.112540    0.106661
      5          1           0       -0.554721   -1.259335   -0.738342
      6          1           0       -0.536408   -1.043446    1.032865
      7          1           0       -1.951788    0.705884    0.618666
      8          1           0        0.557507    1.256708    0.744405
      9          1           0        0.533494    1.047381   -1.027568
     10          1           0        1.950825   -0.701695   -0.625921
 ---------------------------------------------------------------------
 Rotational constants (GHZ):     29.1787549      3.9444342      3.6986224
 Standard basis: VSTO-6G (5D, 7F)
 There are    22 symmetry adapted cartesian basis functions of A   symmetry.
 There are    22 symmetry adapted basis functions of A   symmetry.
    22 basis functions,   132 primitive gaussians,    22 cartesian basis functions
    13 alpha electrons       13 beta electrons
       nuclear repulsion energy        99.7946040816 Hartrees.
 Integral buffers will be    131072 words long.
 Regular integral format.
 Two-electron integral symmetry is turned off.
 Do NDO integrals.
 One-electron integrals computed using PRISM.
 NBasis=    22 RedAO= F EigKep=  0.00D+00  NBF=    22
 NBsUse=    22 1.00D-04 EigRej=  0.00D+00 NBFU=    22
 Initial guess from the checkpoint file:  "1-2-ethanediol-open-opt.chk"
 B after Tr=     0.000000   -0.000000   -0.000000
         Rot=    0.999999    0.000668   -0.000478   -0.000726 Ang=   0.13 deg.
 Overlap will be assumed to be unity.
 Keep J ints in memory in canonical form, NReq=887849.
 Requested convergence on RMS density matrix=1.00D-08 within 128 cycles.
 Requested convergence on MAX density matrix=1.00D-06.
 Requested convergence on             energy=1.00D-06.
 No special actions if energy rises.
 SCF Done:  E(RPM3) = -0.156794087210     A.U. after   11 cycles
            NFock= 10  Conv=0.46D-08     -V/T= 0.9915
 Calling FoFJK, ICntrl=      2127 FMM=F ISym2X=0 I1Cent= 0 IOpClX= 0 NMat=1 NMatS=1 NMatT=0.
 ***** Axes restored to original set *****
 -------------------------------------------------------------------
 Center     Atomic                   Forces (Hartrees/Bohr)
 Number     Number              X              Y              Z
 -------------------------------------------------------------------
      1        6          -0.000311526   -0.000258473    0.000527668
      2        8           0.001124475    0.000219788    0.000390821
      3        6           0.000309187    0.000272224   -0.000518713
      4        8          -0.001138342   -0.000234651   -0.000409842
      5        1          -0.000209735    0.000040265    0.000040654
      6        1          -0.000077309   -0.000329579    0.000066980
      7        1          -0.000764604   -0.000085556   -0.000454263
      8        1           0.000207926   -0.000042842   -0.000032506
      9        1           0.000082488    0.000322539   -0.000070348
     10        1           0.000777441    0.000096284    0.000459549
 -------------------------------------------------------------------
 Cartesian Forces:  Max     0.001138342 RMS     0.000440334

 GradGradGradGradGradGradGradGradGradGradGradGradGradGradGradGradGradGrad
 Berny optimization.
 Using GEDIIS/GDIIS optimizer.
 FormGI is forming the generalized inverse of G from B-inverse, IUseBI=4.
 Internal  Forces:  Max     0.000823603 RMS     0.000281493
 Search for a local minimum.
 Step number   3 out of a maximum of   48
 All quantities printed in internal units (Hartrees-Bohrs-Radians)
 Mixed Optimization -- En-DIIS/RFO-DIIS
 Update second derivatives using D2CorX and points    1    2    3
 DE= -2.23D-04 DEPred=-2.02D-04 R= 1.10D+00
 TightC=F SS=  1.41D+00  RLast= 7.22D-02 DXNew= 8.4853D-01 2.1665D-01
 Trust test= 1.10D+00 RLast= 7.22D-02 DXMaxT set to 5.05D-01
 ITU=  1  1  0
 Use linear search instead of GDIIS.
     Eigenvalues ---    0.00440   0.01242   0.01421   0.04830   0.04913
     Eigenvalues ---    0.05639   0.05685   0.11799   0.11906   0.12434
     Eigenvalues ---    0.13955   0.16000   0.17672   0.21990   0.22474
     Eigenvalues ---    0.31450   0.34207   0.34227   0.34247   0.34523
     Eigenvalues ---    0.41807   0.42388   0.52736   0.53826
 RFO step:  Lambda=-2.92773843D-05 EMin= 4.40199012D-03
 Quartic linear search produced a step of  0.11084.
 Iteration  1 RMS(Cart)=  0.00552609 RMS(Int)=  0.00005290
 Iteration  2 RMS(Cart)=  0.00004633 RMS(Int)=  0.00000220
 Iteration  3 RMS(Cart)=  0.00000000 RMS(Int)=  0.00000220
 Variable       Old X    -DE/DX   Delta X   Delta X   Delta X     New X
                                 (Linear)    (Quad)   (Total)
    R1        2.64761  -0.00026  -0.00035  -0.00085  -0.00120   2.64641
    R2        2.91287  -0.00011  -0.00101   0.00034  -0.00066   2.91221
    R3        2.08753  -0.00014   0.00008  -0.00031  -0.00024   2.08729
    R4        2.09334  -0.00030   0.00003  -0.00078  -0.00075   2.09258
    R5        1.79200   0.00082  -0.00019   0.00138   0.00119   1.79319
    R6        2.64757  -0.00025  -0.00035  -0.00083  -0.00118   2.64639
    R7        2.08752  -0.00014   0.00007  -0.00033  -0.00025   2.08727
    R8        2.09336  -0.00030   0.00003  -0.00078  -0.00075   2.09261
    R9        1.79198   0.00082  -0.00019   0.00139   0.00120   1.79318
    A1        1.95201   0.00045   0.00005   0.00235   0.00239   1.95440
    A2        1.80177  -0.00028  -0.00139  -0.00148  -0.00287   1.79890
    A3        1.93759  -0.00000   0.00149  -0.00026   0.00123   1.93882
    A4        1.94809   0.00014   0.00024   0.00174   0.00198   1.95007
    A5        1.94197  -0.00041  -0.00080  -0.00268  -0.00348   1.93849
    A6        1.87656   0.00011   0.00043   0.00043   0.00086   1.87742
    A7        1.87140   0.00005   0.00282  -0.00102   0.00180   1.87320
    A8        1.95182   0.00045   0.00004   0.00239   0.00242   1.95425
    A9        1.94799   0.00014   0.00026   0.00176   0.00202   1.95002
   A10        1.94193  -0.00041  -0.00081  -0.00268  -0.00349   1.93845
   A11        1.80183  -0.00028  -0.00139  -0.00152  -0.00292   1.79892
   A12        1.93781  -0.00000   0.00149  -0.00027   0.00123   1.93904
   A13        1.87662   0.00011   0.00043   0.00041   0.00084   1.87746
   A14        1.87136   0.00006   0.00282  -0.00097   0.00185   1.87321
    D1       -1.15856   0.00035   0.00188   0.01665   0.01852  -1.14003
    D2        3.02793   0.00012   0.00240   0.01428   0.01668   3.04462
    D3        1.02191   0.00015   0.00199   0.01469   0.01668   1.03859
    D4       -3.13681  -0.00000  -0.00009  -0.00083  -0.00092  -3.13773
    D5        1.13768  -0.00003   0.00146  -0.00153  -0.00007   1.13761
    D6       -0.95866   0.00002   0.00129  -0.00141  -0.00012  -0.95879
    D7       -1.12802   0.00002  -0.00164  -0.00011  -0.00175  -1.12977
    D8       -3.13671  -0.00000  -0.00009  -0.00082  -0.00091  -3.13761
    D9        1.05013   0.00004  -0.00026  -0.00070  -0.00096   1.04918
   D10        0.96834  -0.00003  -0.00148  -0.00022  -0.00169   0.96665
   D11       -1.04035  -0.00005   0.00007  -0.00092  -0.00085  -1.04120
   D12       -3.13669  -0.00000  -0.00010  -0.00080  -0.00090  -3.13759
   D13        1.16244  -0.00036  -0.00200  -0.01746  -0.01946   1.14298
   D14       -3.02422  -0.00013  -0.00251  -0.01508  -0.01758  -3.04181
   D15       -1.01800  -0.00016  -0.00209  -0.01554  -0.01763  -1.03563
         Item               Value     Threshold  Converged?
 Maximum Force            0.000824     0.000450     NO 
 RMS     Force            0.000281     0.000300     YES
 Maximum Displacement     0.016905     0.001800     NO 
 RMS     Displacement     0.005531     0.001200     NO 
 Predicted change in Energy=-1.705586D-05
 GradGradGradGradGradGradGradGradGradGradGradGradGradGradGradGradGradGrad

                          Input orientation:                          
 ---------------------------------------------------------------------
 Center     Atomic      Atomic             Coordinates (Angstroms)
 Number     Number       Type             X           Y           Z
 ---------------------------------------------------------------------
      1          6           0        2.258985    2.316588    2.122049
      2          8           0        1.224873    2.766539    2.952307
      3          6           0        1.863299    1.045972    1.344955
      4          8           0        2.899291    0.593349    0.518514
      5          1           0        3.082509    2.121974    2.831947
      6          1           0        2.593499    3.116481    1.433218
      7          1           0        0.508655    3.035703    2.391040
      8          1           0        1.042508    1.241569    0.632187
      9          1           0        1.524906    0.247486    2.033547
     10          1           0        3.612165    0.320930    1.082457
 ---------------------------------------------------------------------
                    Distance matrix (angstroms):
                    1          2          3          4          5
     1  C    0.000000
     2  O    1.400419   0.000000
     3  C    1.541074   2.439573   0.000000
     4  O    2.439440   3.667394   1.400411   0.000000
     5  H    1.104546   1.969966   2.203497   2.778891   0.000000
     6  H    1.107346   2.074422   2.197268   2.701182   1.784549
     7  H    1.911318   0.948914   2.624573   3.896997   2.766591
     8  H    2.203446   2.782399   1.104534   1.969963   3.126605
     9  H    2.197245   2.698104   1.107361   2.074580   2.564620
    10  H    2.625738   3.895704   1.911315   0.948912   2.566128
                    6          7          8          9         10
     6  H    0.000000
     7  H    2.295762   0.000000
     8  H    2.561742   2.568556   0.000000
     9  H    3.119842   2.989100   1.784577   0.000000
    10  H    2.995967   4.325986   2.766488   2.294912   0.000000
 Stoichiometry    C2H6O2
 Framework group  C1[X(C2H6O2)]
 Deg. of freedom    24
 Full point group                 C1      NOp   1
 Largest Abelian subgroup         C1      NOp   1
 Largest concise Abelian subgroup C1      NOp   1
                         Standard orientation:                         
 ---------------------------------------------------------------------
 Center     Atomic      Atomic             Coordinates (Angstroms)
 Number     Number       Type             X           Y           Z
 ---------------------------------------------------------------------
      1          6           0       -0.580150   -0.502598    0.067535
      2          8           0       -1.827197    0.109996   -0.107893
      3          6           0        0.580143    0.502922   -0.064974
      4          8           0        1.827317   -0.110777    0.105554
      5          1           0       -0.558690   -1.260041   -0.736107
      6          1           0       -0.532750   -1.039914    1.034623
      7          1           0       -1.946846    0.718219    0.610568
      8          1           0        0.560978    1.257925    0.741002
      9          1           0        0.530363    1.043145   -1.030339
     10          1           0        1.946033   -0.715024   -0.616406
 ---------------------------------------------------------------------
 Rotational constants (GHZ):     29.2285772      3.9432914      3.6970665
 Standard basis: VSTO-6G (5D, 7F)
 There are    22 symmetry adapted cartesian basis functions of A   symmetry.
 There are    22 symmetry adapted basis functions of A   symmetry.
    22 basis functions,   132 primitive gaussians,    22 cartesian basis functions
    13 alpha electrons       13 beta electrons
       nuclear repulsion energy        99.8007115123 Hartrees.
 Integral buffers will be    131072 words long.
 Regular integral format.
 Two-electron integral symmetry is turned off.
 Do NDO integrals.
 One-electron integrals computed using PRISM.
 NBasis=    22 RedAO= F EigKep=  0.00D+00  NBF=    22
 NBsUse=    22 1.00D-04 EigRej=  0.00D+00 NBFU=    22
 Initial guess from the checkpoint file:  "1-2-ethanediol-open-opt.chk"
 B after Tr=    -0.000000   -0.000000   -0.000000
         Rot=    0.999998    0.002081   -0.000279    0.000125 Ang=   0.24 deg.
 Overlap will be assumed to be unity.
 Keep J ints in memory in canonical form, NReq=887849.
 Requested convergence on RMS density matrix=1.00D-08 within 128 cycles.
 Requested convergence on MAX density matrix=1.00D-06.
 Requested convergence on             energy=1.00D-06.
 No special actions if energy rises.
 SCF Done:  E(RPM3) = -0.156819503941     A.U. after   10 cycles
            NFock=  9  Conv=0.52D-08     -V/T= 0.9915
 Calling FoFJK, ICntrl=      2127 FMM=F ISym2X=0 I1Cent= 0 IOpClX= 0 NMat=1 NMatS=1 NMatT=0.
 ***** Axes restored to original set *****
 -------------------------------------------------------------------
 Center     Atomic                   Forces (Hartrees/Bohr)
 Number     Number              X              Y              Z
 -------------------------------------------------------------------
      1        6          -0.000018387   -0.000187971    0.000142769
      2        8           0.000222098    0.000448144    0.000222503
      3        6           0.000025419    0.000196869   -0.000136983
      4        8          -0.000236039   -0.000464112   -0.000228783
      5        1          -0.000019007   -0.000089766   -0.000056064
      6        1          -0.000020157    0.000097392    0.000096157
      7        1          -0.000213799   -0.000224292   -0.000183191
      8        1           0.000013672    0.000090093    0.000059868
      9        1           0.000027330   -0.000103581   -0.000101081
     10        1           0.000218869    0.000237225    0.000184806
 -------------------------------------------------------------------
 Cartesian Forces:  Max     0.000464112 RMS     0.000188815

 GradGradGradGradGradGradGradGradGradGradGradGradGradGradGradGradGradGrad
 Berny optimization.
 Using GEDIIS/GDIIS optimizer.
 FormGI is forming the generalized inverse of G from B-inverse, IUseBI=4.
 Internal  Forces:  Max     0.000206153 RMS     0.000114045
 Search for a local minimum.
 Step number   4 out of a maximum of   48
 All quantities printed in internal units (Hartrees-Bohrs-Radians)
 Mixed Optimization -- En-DIIS/RFO-DIIS
 Swapping is turned off.
 Update second derivatives using D2CorX and points    1    2    3    4
 DE= -2.54D-05 DEPred=-1.71D-05 R= 1.49D+00
 TightC=F SS=  1.41D+00  RLast= 4.46D-02 DXNew= 8.4853D-01 1.3375D-01
 Trust test= 1.49D+00 RLast= 4.46D-02 DXMaxT set to 5.05D-01
 ITU=  1  1  1  0
     Eigenvalues ---    0.00434   0.00497   0.01421   0.04823   0.04937
     Eigenvalues ---    0.05637   0.05694   0.11810   0.11986   0.13962
     Eigenvalues ---    0.15544   0.16001   0.18963   0.21858   0.21993
     Eigenvalues ---    0.31973   0.34207   0.34246   0.34248   0.35527
     Eigenvalues ---    0.42388   0.42629   0.52736   0.54268
 En-DIIS/RFO-DIIS IScMMF=        0 using points:     4    3
 RFO step:  Lambda=-2.94889950D-06.
 DidBck=F Rises=F RFO-DIIS coefs:    1.99410   -0.99410
 Iteration  1 RMS(Cart)=  0.00932727 RMS(Int)=  0.00016894
 Iteration  2 RMS(Cart)=  0.00014636 RMS(Int)=  0.00000215
 Iteration  3 RMS(Cart)=  0.00000004 RMS(Int)=  0.00000215
 Variable       Old X    -DE/DX   Delta X   Delta X   Delta X     New X
                                 (Linear)    (Quad)   (Total)
    R1        2.64641   0.00009  -0.00119   0.00055  -0.00065   2.64576
    R2        2.91221   0.00014  -0.00066   0.00051  -0.00015   2.91206
    R3        2.08729  -0.00003  -0.00024   0.00007  -0.00017   2.08712
    R4        2.09258   0.00000  -0.00075   0.00052  -0.00023   2.09235
    R5        1.79319   0.00021   0.00118  -0.00019   0.00099   1.79418
    R6        2.64639   0.00009  -0.00117   0.00053  -0.00065   2.64575
    R7        2.08727  -0.00003  -0.00025   0.00008  -0.00017   2.08710
    R8        2.09261   0.00000  -0.00074   0.00051  -0.00024   2.09237
    R9        1.79318   0.00021   0.00119  -0.00020   0.00100   1.79418
    A1        1.95440   0.00017   0.00238   0.00042   0.00280   1.95720
    A2        1.79890   0.00001  -0.00286   0.00124  -0.00162   1.79728
    A3        1.93882  -0.00017   0.00122  -0.00204  -0.00082   1.93801
    A4        1.95007  -0.00007   0.00197  -0.00082   0.00115   1.95123
    A5        1.93849   0.00002  -0.00346   0.00111  -0.00235   1.93614
    A6        1.87742   0.00002   0.00086   0.00003   0.00088   1.87831
    A7        1.87320  -0.00016   0.00179  -0.00050   0.00129   1.87449
    A8        1.95425   0.00018   0.00241   0.00047   0.00288   1.95712
    A9        1.95002  -0.00007   0.00201  -0.00080   0.00121   1.95123
   A10        1.93845   0.00002  -0.00347   0.00112  -0.00234   1.93610
   A11        1.79892   0.00001  -0.00290   0.00123  -0.00167   1.79724
   A12        1.93904  -0.00017   0.00122  -0.00212  -0.00089   1.93815
   A13        1.87746   0.00002   0.00083   0.00003   0.00086   1.87832
   A14        1.87321  -0.00016   0.00184  -0.00055   0.00129   1.87450
    D1       -1.14003   0.00015   0.01841   0.01466   0.03307  -1.10696
    D2        3.04462   0.00014   0.01659   0.01468   0.03127   3.07589
    D3        1.03859   0.00019   0.01658   0.01488   0.03146   1.07005
    D4       -3.13773  -0.00000  -0.00091  -0.00080  -0.00172  -3.13944
    D5        1.13761  -0.00009  -0.00007  -0.00213  -0.00221   1.13540
    D6       -0.95879  -0.00008  -0.00012  -0.00239  -0.00252  -0.96130
    D7       -1.12977   0.00008  -0.00174   0.00049  -0.00125  -1.13101
    D8       -3.13761  -0.00000  -0.00090  -0.00084  -0.00174  -3.13935
    D9        1.04918   0.00001  -0.00095  -0.00110  -0.00205   1.04713
   D10        0.96665   0.00007  -0.00168   0.00073  -0.00095   0.96570
   D11       -1.04120  -0.00001  -0.00084  -0.00060  -0.00144  -1.04264
   D12       -3.13759  -0.00000  -0.00089  -0.00086  -0.00175  -3.13935
   D13        1.14298  -0.00016  -0.01934  -0.01543  -0.03477   1.10821
   D14       -3.04181  -0.00015  -0.01748  -0.01541  -0.03289  -3.07470
   D15       -1.03563  -0.00020  -0.01753  -0.01564  -0.03317  -1.06880
         Item               Value     Threshold  Converged?
 Maximum Force            0.000206     0.000450     YES
 RMS     Force            0.000114     0.000300     YES
 Maximum Displacement     0.031719     0.001800     NO 
 RMS     Displacement     0.009324     0.001200     NO 
 Predicted change in Energy=-1.677846D-05
 GradGradGradGradGradGradGradGradGradGradGradGradGradGradGradGradGradGrad

                          Input orientation:                          
 ---------------------------------------------------------------------
 Center     Atomic      Atomic             Coordinates (Angstroms)
 Number     Number       Type             X           Y           Z
 ---------------------------------------------------------------------
      1          6           0        2.261418    2.315416    2.122439
      2          8           0        1.229983    2.774784    2.950291
      3          6           0        1.860773    1.046537    1.345203
      4          8           0        2.893229    0.585674    0.519473
      5          1           0        3.081956    2.117996    2.834874
      6          1           0        2.601334    3.111440    1.431971
      7          1           0        0.504416    3.021247    2.389719
      8          1           0        1.041782    1.244463    0.631148
      9          1           0        1.518681    0.251319    2.035548
     10          1           0        3.617117    0.337715    1.081556
 ---------------------------------------------------------------------
                    Distance matrix (angstroms):
                    1          2          3          4          5
     1  C    0.000000
     2  O    1.400077   0.000000
     3  C    1.540995   2.441524   0.000000
     4  O    2.441453   3.669805   1.400068   0.000000
     5  H    1.104456   1.968374   2.204185   2.782932   0.000000
     6  H    1.107223   2.073460   2.195401   2.701361   1.784955
     7  H    1.912247   0.949438   2.613465   3.890535   2.767262
     8  H    2.204178   2.784910   1.104444   1.968332   3.127584
     9  H    2.195382   2.699625   1.107236   2.073562   2.562661
    10  H    2.613936   3.889715   1.912245   0.949439   2.555371
                    6          7          8          9         10
     6  H    0.000000
     7  H    2.307050   0.000000
     8  H    2.561078   2.557009   0.000000
     9  H    3.117167   2.970971   1.784967   0.000000
    10  H    2.974585   4.312950   2.767202   2.306728   0.000000
 Stoichiometry    C2H6O2
 Framework group  C1[X(C2H6O2)]
 Deg. of freedom    24
 Full point group                 C1      NOp   1
 Largest Abelian subgroup         C1      NOp   1
 Largest concise Abelian subgroup C1      NOp   1
                         Standard orientation:                         
 ---------------------------------------------------------------------
 Center     Atomic      Atomic             Coordinates (Angstroms)
 Number     Number       Type             X           Y           Z
 ---------------------------------------------------------------------
      1          6           0       -0.580407   -0.502132    0.068225
      2          8           0       -1.828710    0.107722   -0.105075
      3          6           0        0.580411    0.502324   -0.066811
      4          8           0        1.828783   -0.108135    0.103768
      5          1           0       -0.561570   -1.260929   -0.734080
      6          1           0       -0.530223   -1.036843    1.036475
      7          1           0       -1.936450    0.738366    0.596432
      8          1           0        0.562897    1.259763    0.736792
      9          1           0        0.528878    1.038667   -1.034103
     10          1           0        1.935866   -0.736873   -0.599549
 ---------------------------------------------------------------------
 Rotational constants (GHZ):     29.2648462      3.9415750      3.6937893
 Standard basis: VSTO-6G (5D, 7F)
 There are    22 symmetry adapted cartesian basis functions of A   symmetry.
 There are    22 symmetry adapted basis functions of A   symmetry.
    22 basis functions,   132 primitive gaussians,    22 cartesian basis functions
    13 alpha electrons       13 beta electrons
       nuclear repulsion energy        99.8026375679 Hartrees.
 Integral buffers will be    131072 words long.
 Regular integral format.
 Two-electron integral symmetry is turned off.
 Do NDO integrals.
 One-electron integrals computed using PRISM.
 NBasis=    22 RedAO= F EigKep=  0.00D+00  NBF=    22
 NBsUse=    22 1.00D-04 EigRej=  0.00D+00 NBFU=    22
 Initial guess from the checkpoint file:  "1-2-ethanediol-open-opt.chk"
 B after Tr=     0.000000    0.000000    0.000000
         Rot=    0.999996    0.002886   -0.000319    0.000208 Ang=   0.33 deg.
 Overlap will be assumed to be unity.
 Keep J ints in memory in canonical form, NReq=887849.
 Requested convergence on RMS density matrix=1.00D-08 within 128 cycles.
 Requested convergence on MAX density matrix=1.00D-06.
 Requested convergence on             energy=1.00D-06.
 No special actions if energy rises.
 SCF Done:  E(RPM3) = -0.156841288935     A.U. after   11 cycles
            NFock= 10  Conv=0.34D-08     -V/T= 0.9915
 Calling FoFJK, ICntrl=      2127 FMM=F ISym2X=0 I1Cent= 0 IOpClX= 0 NMat=1 NMatS=1 NMatT=0.
 ***** Axes restored to original set *****
 -------------------------------------------------------------------
 Center     Atomic                   Forces (Hartrees/Bohr)
 Number     Number              X              Y              Z
 -------------------------------------------------------------------
      1        6           0.000082261   -0.000095499   -0.000262429
      2        8          -0.000390831    0.000417705    0.000045892
      3        6          -0.000081389    0.000101234    0.000266833
      4        8           0.000387338   -0.000429119   -0.000046973
      5        1           0.000095346   -0.000116782   -0.000099507
      6        1           0.000021796    0.000301308    0.000146284
      7        1           0.000249110   -0.000226255    0.000039064
      8        1          -0.000102036    0.000119823    0.000102290
      9        1          -0.000015153   -0.000304391   -0.000151097
     10        1          -0.000246443    0.000231977   -0.000040356
 -------------------------------------------------------------------
 Cartesian Forces:  Max     0.000429119 RMS     0.000213364

 GradGradGradGradGradGradGradGradGradGradGradGradGradGradGradGradGradGrad
 Berny optimization.
 Using GEDIIS/GDIIS optimizer.
 FormGI is forming the generalized inverse of G from B-inverse, IUseBI=4.
 Internal  Forces:  Max     0.000314270 RMS     0.000164187
 Search for a local minimum.
 Step number   5 out of a maximum of   48
 All quantities printed in internal units (Hartrees-Bohrs-Radians)
 Mixed Optimization -- En-DIIS/RFO-DIIS
 Swapping is turned off.
 Update second derivatives using D2CorX and points    1    2    3    4    5
 DE= -2.18D-05 DEPred=-1.68D-05 R= 1.30D+00
 TightC=F SS=  1.41D+00  RLast= 8.08D-02 DXNew= 8.4853D-01 2.4235D-01
 Trust test= 1.30D+00 RLast= 8.08D-02 DXMaxT set to 5.05D-01
 ITU=  1  1  1  1  0
     Eigenvalues ---    0.00322   0.00444   0.01421   0.04811   0.04814
     Eigenvalues ---    0.05632   0.05668   0.11825   0.11978   0.13972
     Eigenvalues ---    0.16000   0.16144   0.18403   0.21995   0.22206
     Eigenvalues ---    0.31363   0.34207   0.34243   0.34247   0.35681
     Eigenvalues ---    0.42388   0.42482   0.52736   0.59528
 En-DIIS/RFO-DIIS IScMMF=        0 using points:     5    4    3
 RFO step:  Lambda=-2.33617175D-06.
 DidBck=F Rises=F RFO-DIIS coefs:    2.51459   -3.04337    1.52878
 Iteration  1 RMS(Cart)=  0.00653653 RMS(Int)=  0.00008185
 Iteration  2 RMS(Cart)=  0.00006991 RMS(Int)=  0.00000416
 Iteration  3 RMS(Cart)=  0.00000001 RMS(Int)=  0.00000416
 Variable       Old X    -DE/DX   Delta X   Delta X   Delta X     New X
                                 (Linear)    (Quad)   (Total)
    R1        2.64576   0.00022   0.00086  -0.00028   0.00057   2.64634
    R2        2.91206   0.00018   0.00079  -0.00056   0.00023   2.91228
    R3        2.08712   0.00003   0.00011  -0.00013  -0.00003   2.08709
    R4        2.09235   0.00013   0.00080  -0.00047   0.00033   2.09268
    R5        1.79418  -0.00027  -0.00032  -0.00004  -0.00036   1.79382
    R6        2.64575   0.00022   0.00082  -0.00022   0.00060   2.64635
    R7        2.08710   0.00003   0.00013  -0.00014  -0.00001   2.08709
    R8        2.09237   0.00013   0.00079  -0.00047   0.00031   2.09269
    R9        1.79418  -0.00027  -0.00033  -0.00002  -0.00035   1.79383
    A1        1.95720  -0.00004   0.00058   0.00040   0.00098   1.95818
    A2        1.79728   0.00017   0.00194  -0.00040   0.00154   1.79882
    A3        1.93801  -0.00023  -0.00312  -0.00032  -0.00345   1.93455
    A4        1.95123  -0.00017  -0.00129  -0.00001  -0.00130   1.94992
    A5        1.93614   0.00031   0.00176   0.00075   0.00251   1.93865
    A6        1.87831  -0.00006   0.00002  -0.00054  -0.00052   1.87779
    A7        1.87449  -0.00029  -0.00081  -0.00081  -0.00162   1.87287
    A8        1.95712  -0.00003   0.00065   0.00043   0.00108   1.95820
    A9        1.95123  -0.00018  -0.00125  -0.00007  -0.00133   1.94990
   A10        1.93610   0.00031   0.00178   0.00075   0.00253   1.93863
   A11        1.79724   0.00017   0.00193  -0.00036   0.00158   1.79882
   A12        1.93815  -0.00024  -0.00324  -0.00033  -0.00357   1.93457
   A13        1.87832  -0.00006   0.00002  -0.00056  -0.00054   1.87778
   A14        1.87450  -0.00029  -0.00088  -0.00070  -0.00158   1.87292
    D1       -1.10696  -0.00004   0.02177   0.00034   0.02212  -1.08485
    D2        3.07589   0.00008   0.02185   0.00039   0.02224   3.09812
    D3        1.07005   0.00017   0.02215   0.00137   0.02352   1.09357
    D4       -3.13944  -0.00000  -0.00120  -0.00019  -0.00138  -3.14083
    D5        1.13540  -0.00008  -0.00323   0.00003  -0.00319   1.13221
    D6       -0.96130  -0.00010  -0.00362   0.00027  -0.00334  -0.96465
    D7       -1.13101   0.00008   0.00079  -0.00045   0.00033  -1.13068
    D8       -3.13935  -0.00000  -0.00125  -0.00023  -0.00147  -3.14083
    D9        1.04713  -0.00002  -0.00164   0.00001  -0.00162   1.04550
   D10        0.96570   0.00010   0.00114  -0.00063   0.00051   0.96621
   D11       -1.04264   0.00001  -0.00089  -0.00041  -0.00130  -1.04394
   D12       -3.13935  -0.00000  -0.00128  -0.00017  -0.00145  -3.14080
   D13        1.10821   0.00004  -0.02292  -0.00033  -0.02326   1.08495
   D14       -3.07470  -0.00008  -0.02293  -0.00041  -0.02333  -3.09803
   D15       -1.06880  -0.00017  -0.02329  -0.00138  -0.02467  -1.09347
         Item               Value     Threshold  Converged?
 Maximum Force            0.000314     0.000450     YES
 RMS     Force            0.000164     0.000300     YES
 Maximum Displacement     0.023042     0.001800     NO 
 RMS     Displacement     0.006530     0.001200     NO 
 Predicted change in Energy=-3.339110D-06
 GradGradGradGradGradGradGradGradGradGradGradGradGradGradGradGradGradGrad

                          Input orientation:                          
 ---------------------------------------------------------------------
 Center     Atomic      Atomic             Coordinates (Angstroms)
 Number     Number       Type             X           Y           Z
 ---------------------------------------------------------------------
      1          6           0        2.263323    2.314969    2.122196
      2          8           0        1.232905    2.780844    2.948190
      3          6           0        1.858822    1.046545    1.345980
      4          8           0        2.889566    0.580079    0.520714
      5          1           0        3.082994    2.114213    2.834675
      6          1           0        2.606367    3.111103    1.433123
      7          1           0        0.502905    3.010734    2.386651
      8          1           0        1.039680    1.247493    0.632952
      9          1           0        1.515010    0.250701    2.035013
     10          1           0        3.619119    0.349908    1.082725
 ---------------------------------------------------------------------
                    Distance matrix (angstroms):
                    1          2          3          4          5
     1  C    0.000000
     2  O    1.400381   0.000000
     3  C    1.541114   2.442671   0.000000
     4  O    2.442697   3.671584   1.400388   0.000000
     5  H    1.104441   1.969800   2.203344   2.783055   0.000000
     6  H    1.107398   2.071448   2.197458   2.705323   1.784744
     7  H    1.911307   0.949250   2.603756   3.884064   2.767911
     8  H    2.203328   2.783672   1.104438   1.969801   3.126327
     9  H    2.197448   2.704644   1.107402   2.071472   2.563339
    10  H    2.603872   3.883739   1.911348   0.949254   2.543527
                    6          7          8          9         10
     6  H    0.000000
     7  H    2.311675   0.000000
     8  H    2.562777   2.544132   0.000000
     9  H    3.120133   2.960707   1.784743   0.000000
    10  H    2.961865   4.300117   2.767935   2.311703   0.000000
 Stoichiometry    C2H6O2
 Framework group  C1[X(C2H6O2)]
 Deg. of freedom    24
 Full point group                 C1      NOp   1
 Largest Abelian subgroup         C1      NOp   1
 Largest concise Abelian subgroup C1      NOp   1
                         Standard orientation:                         
 ---------------------------------------------------------------------
 Center     Atomic      Atomic             Coordinates (Angstroms)
 Number     Number       Type             X           Y           Z
 ---------------------------------------------------------------------
      1          6           0       -0.580413   -0.502262    0.068036
      2          8           0       -1.829759    0.106706   -0.103317
      3          6           0        0.580399    0.502312   -0.067537
      4          8           0        1.829810   -0.106811    0.102838
      5          1           0       -0.560289   -1.260890   -0.734378
      6          1           0       -0.532598   -1.037795    1.036151
      7          1           0       -1.927363    0.750293    0.587584
      8          1           0        0.560708    1.260468    0.735330
      9          1           0        0.532102    1.038420   -1.035316
     10          1           0        1.927120   -0.749951   -0.588527
 ---------------------------------------------------------------------
 Rotational constants (GHZ):     29.2583510      3.9408668      3.6914761
 Standard basis: VSTO-6G (5D, 7F)
 There are    22 symmetry adapted cartesian basis functions of A   symmetry.
 There are    22 symmetry adapted basis functions of A   symmetry.
    22 basis functions,   132 primitive gaussians,    22 cartesian basis functions
    13 alpha electrons       13 beta electrons
       nuclear repulsion energy        99.8010253631 Hartrees.
 Integral buffers will be    131072 words long.
 Regular integral format.
 Two-electron integral symmetry is turned off.
 Do NDO integrals.
 One-electron integrals computed using PRISM.
 NBasis=    22 RedAO= F EigKep=  0.00D+00  NBF=    22
 NBsUse=    22 1.00D-04 EigRej=  0.00D+00 NBFU=    22
 Initial guess from the checkpoint file:  "1-2-ethanediol-open-opt.chk"
 B after Tr=     0.000000    0.000000    0.000000
         Rot=    0.999999    0.001194   -0.000056    0.000170 Ang=   0.14 deg.
 Overlap will be assumed to be unity.
 Keep J ints in memory in canonical form, NReq=887849.
 Requested convergence on RMS density matrix=1.00D-08 within 128 cycles.
 Requested convergence on MAX density matrix=1.00D-06.
 Requested convergence on             energy=1.00D-06.
 No special actions if energy rises.
 SCF Done:  E(RPM3) = -0.156850144933     A.U. after   10 cycles
            NFock=  9  Conv=0.59D-08     -V/T= 0.9915
 Calling FoFJK, ICntrl=      2127 FMM=F ISym2X=0 I1Cent= 0 IOpClX= 0 NMat=1 NMatS=1 NMatT=0.
 ***** Axes restored to original set *****
 -------------------------------------------------------------------
 Center     Atomic                   Forces (Hartrees/Bohr)
 Number     Number              X              Y              Z
 -------------------------------------------------------------------
      1        6          -0.000004984   -0.000060336   -0.000092418
      2        8          -0.000051366    0.000047157    0.000009039
      3        6           0.000013171    0.000055876    0.000090132
      4        8           0.000047534   -0.000043961   -0.000006416
      5        1           0.000042088    0.000000611    0.000020725
      6        1           0.000013097    0.000034474    0.000024384
      7        1           0.000001321   -0.000005150    0.000018171
      8        1          -0.000042604   -0.000001143   -0.000021126
      9        1          -0.000010251   -0.000035842   -0.000025372
     10        1          -0.000008007    0.000008315   -0.000017120
 -------------------------------------------------------------------
 Cartesian Forces:  Max     0.000092418 RMS     0.000037434

 GradGradGradGradGradGradGradGradGradGradGradGradGradGradGradGradGradGrad
 Berny optimization.
 Using GEDIIS/GDIIS optimizer.
 FormGI is forming the generalized inverse of G from B-inverse, IUseBI=4.
 Internal  Forces:  Max     0.000066849 RMS     0.000023210
 Search for a local minimum.
 Step number   6 out of a maximum of   48
 All quantities printed in internal units (Hartrees-Bohrs-Radians)
 Mixed Optimization -- En-DIIS/RFO-DIIS
 Swapping is turned off.
 Update second derivatives using D2CorX and points    1    2    3    4    5
                                                      6
 DE= -8.86D-06 DEPred=-3.34D-06 R= 2.65D+00
 TightC=F SS=  1.41D+00  RLast= 5.76D-02 DXNew= 8.4853D-01 1.7279D-01
 Trust test= 2.65D+00 RLast= 5.76D-02 DXMaxT set to 5.05D-01
 ITU=  1  1  1  1  1  0
     Eigenvalues ---    0.00311   0.00445   0.01421   0.04806   0.04822
     Eigenvalues ---    0.05627   0.05651   0.11836   0.11976   0.12551
     Eigenvalues ---    0.13977   0.16000   0.17788   0.21997   0.22501
     Eigenvalues ---    0.31381   0.34207   0.34247   0.34273   0.35111
     Eigenvalues ---    0.42230   0.42391   0.52736   0.56682
 En-DIIS/RFO-DIIS IScMMF=        0 using points:     6    5    4    3
 RFO step:  Lambda=-4.46017822D-08.
 DidBck=F Rises=F RFO-DIIS coefs:    1.01607    0.06888   -0.17773    0.09277
 Iteration  1 RMS(Cart)=  0.00042651 RMS(Int)=  0.00000046
 Iteration  2 RMS(Cart)=  0.00000032 RMS(Int)=  0.00000027
 Variable       Old X    -DE/DX   Delta X   Delta X   Delta X     New X
                                 (Linear)    (Quad)   (Total)
    R1        2.64634   0.00007   0.00007   0.00010   0.00016   2.64650
    R2        2.91228   0.00000   0.00005  -0.00006  -0.00000   2.91228
    R3        2.08709   0.00004   0.00001   0.00012   0.00012   2.08722
    R4        2.09268   0.00001   0.00006  -0.00002   0.00004   2.09271
    R5        1.79382  -0.00001  -0.00003   0.00002  -0.00001   1.79381
    R6        2.64635   0.00005   0.00006   0.00007   0.00014   2.64649
    R7        2.08709   0.00005   0.00001   0.00012   0.00013   2.08721
    R8        2.09269   0.00001   0.00005  -0.00002   0.00003   2.09272
    R9        1.79383  -0.00002  -0.00003   0.00001  -0.00002   1.79381
    A1        1.95818   0.00001   0.00003   0.00012   0.00016   1.95833
    A2        1.79882   0.00000   0.00015  -0.00012   0.00004   1.79886
    A3        1.93455  -0.00003  -0.00024  -0.00010  -0.00033   1.93422
    A4        1.94992  -0.00000  -0.00011   0.00008  -0.00003   1.94990
    A5        1.93865   0.00004   0.00016   0.00017   0.00033   1.93898
    A6        1.87779  -0.00002  -0.00001  -0.00020  -0.00021   1.87758
    A7        1.87287   0.00002  -0.00008   0.00020   0.00012   1.87300
    A8        1.95820   0.00001   0.00004   0.00010   0.00014   1.95834
    A9        1.94990  -0.00000  -0.00011   0.00009  -0.00001   1.94989
   A10        1.93863   0.00004   0.00017   0.00018   0.00035   1.93898
   A11        1.79882   0.00000   0.00015  -0.00013   0.00003   1.79885
   A12        1.93457  -0.00003  -0.00025  -0.00010  -0.00035   1.93423
   A13        1.87778  -0.00002  -0.00001  -0.00018  -0.00020   1.87758
   A14        1.87292   0.00001  -0.00009   0.00015   0.00006   1.87299
    D1       -1.08485  -0.00001   0.00145   0.00000   0.00145  -1.08340
    D2        3.09812  -0.00001   0.00147  -0.00009   0.00138   3.09950
    D3        1.09357   0.00003   0.00150   0.00024   0.00174   1.09531
    D4       -3.14083  -0.00000  -0.00008  -0.00012  -0.00021  -3.14103
    D5        1.13221  -0.00001  -0.00023  -0.00009  -0.00032   1.13189
    D6       -0.96465  -0.00001  -0.00026  -0.00004  -0.00030  -0.96494
    D7       -1.13068   0.00001   0.00006  -0.00014  -0.00008  -1.13076
    D8       -3.14083   0.00000  -0.00009  -0.00011  -0.00019  -3.14102
    D9        1.04550  -0.00000  -0.00011  -0.00006  -0.00017   1.04533
   D10        0.96621   0.00000   0.00008  -0.00022  -0.00014   0.96607
   D11       -1.04394  -0.00000  -0.00007  -0.00018  -0.00025  -1.04419
   D12       -3.14080  -0.00000  -0.00009  -0.00014  -0.00023  -3.14102
   D13        1.08495   0.00001  -0.00152  -0.00001  -0.00153   1.08342
   D14       -3.09803   0.00001  -0.00154   0.00007  -0.00146  -3.09949
   D15       -1.09347  -0.00003  -0.00158  -0.00025  -0.00183  -1.09529
         Item               Value     Threshold  Converged?
 Maximum Force            0.000067     0.000450     YES
 RMS     Force            0.000023     0.000300     YES
 Maximum Displacement     0.001335     0.001800     YES
 RMS     Displacement     0.000426     0.001200     YES
 Predicted change in Energy=-7.295547D-08
 Optimization completed.
    -- Stationary point found.
                           ----------------------------
                           !   Optimized Parameters   !
                           ! (Angstroms and Degrees)  !
 --------------------------                            --------------------------
 ! Name  Definition              Value          Derivative Info.                !
 --------------------------------------------------------------------------------
 ! R1    R(1,2)                  1.4004         -DE/DX =    0.0001              !
 ! R2    R(1,3)                  1.5411         -DE/DX =    0.0                 !
 ! R3    R(1,5)                  1.1044         -DE/DX =    0.0                 !
 ! R4    R(1,6)                  1.1074         -DE/DX =    0.0                 !
 ! R5    R(2,7)                  0.9492         -DE/DX =    0.0                 !
 ! R6    R(3,4)                  1.4004         -DE/DX =    0.0001              !
 ! R7    R(3,8)                  1.1044         -DE/DX =    0.0                 !
 ! R8    R(3,9)                  1.1074         -DE/DX =    0.0                 !
 ! R9    R(4,10)                 0.9493         -DE/DX =    0.0                 !
 ! A1    A(2,1,3)              112.1953         -DE/DX =    0.0                 !
 ! A2    A(2,1,5)              103.065          -DE/DX =    0.0                 !
 ! A3    A(2,1,6)              110.8418         -DE/DX =    0.0                 !
 ! A4    A(3,1,5)              111.7223         -DE/DX =    0.0                 !
 ! A5    A(3,1,6)              111.0766         -DE/DX =    0.0                 !
 ! A6    A(5,1,6)              107.5892         -DE/DX =    0.0                 !
 ! A7    A(1,2,7)              107.3078         -DE/DX =    0.0                 !
 ! A8    A(1,3,4)              112.1967         -DE/DX =    0.0                 !
 ! A9    A(1,3,8)              111.7212         -DE/DX =    0.0                 !
 ! A10   A(1,3,9)              111.0755         -DE/DX =    0.0                 !
 ! A11   A(4,3,8)              103.0648         -DE/DX =    0.0                 !
 ! A12   A(4,3,9)              110.843          -DE/DX =    0.0                 !
 ! A13   A(8,3,9)              107.589          -DE/DX =    0.0                 !
 ! A14   A(3,4,10)             107.3105         -DE/DX =    0.0                 !
 ! D1    D(3,1,2,7)            -62.1571         -DE/DX =    0.0                 !
 ! D2    D(5,1,2,7)            177.5095         -DE/DX =    0.0                 !
 ! D3    D(6,1,2,7)             62.6567         -DE/DX =    0.0                 !
 ! D4    D(2,1,3,4)           -179.9562         -DE/DX =    0.0                 !
 ! D5    D(2,1,3,8)             64.8707         -DE/DX =    0.0                 !
 ! D6    D(2,1,3,9)            -55.2702         -DE/DX =    0.0                 !
 ! D7    D(5,1,3,4)            -64.783          -DE/DX =    0.0                 !
 ! D8    D(5,1,3,8)           -179.9561         -DE/DX =    0.0                 !
 ! D9    D(5,1,3,9)             59.9029         -DE/DX =    0.0                 !
 ! D10   D(6,1,3,4)             55.3596         -DE/DX =    0.0                 !
 ! D11   D(6,1,3,8)            -59.8135         -DE/DX =    0.0                 !
 ! D12   D(6,1,3,9)           -179.9544         -DE/DX =    0.0                 !
 ! D13   D(1,3,4,10)            62.1633         -DE/DX =    0.0                 !
 ! D14   D(8,3,4,10)          -177.504          -DE/DX =    0.0                 !
 ! D15   D(9,3,4,10)           -62.6511         -DE/DX =    0.0                 !
 --------------------------------------------------------------------------------
 GradGradGradGradGradGradGradGradGradGradGradGradGradGradGradGradGradGrad

                          Input orientation:                          
 ---------------------------------------------------------------------
 Center     Atomic      Atomic             Coordinates (Angstroms)
 Number     Number       Type             X           Y           Z
 ---------------------------------------------------------------------
      1          6           0        2.263323    2.314969    2.122196
      2          8           0        1.232905    2.780844    2.948190
      3          6           0        1.858822    1.046545    1.345980
      4          8           0        2.889566    0.580079    0.520714
      5          1           0        3.082994    2.114213    2.834675
      6          1           0        2.606367    3.111103    1.433123
      7          1           0        0.502905    3.010734    2.386651
      8          1           0        1.039680    1.247493    0.632952
      9          1           0        1.515010    0.250701    2.035013
     10          1           0        3.619119    0.349908    1.082725
 ---------------------------------------------------------------------
                    Distance matrix (angstroms):
                    1          2          3          4          5
     1  C    0.000000
     2  O    1.400381   0.000000
     3  C    1.541114   2.442671   0.000000
     4  O    2.442697   3.671584   1.400388   0.000000
     5  H    1.104441   1.969800   2.203344   2.783055   0.000000
     6  H    1.107398   2.071448   2.197458   2.705323   1.784744
     7  H    1.911307   0.949250   2.603756   3.884064   2.767911
     8  H    2.203328   2.783672   1.104438   1.969801   3.126327
     9  H    2.197448   2.704644   1.107402   2.071472   2.563339
    10  H    2.603872   3.883739   1.911348   0.949254   2.543527
                    6          7          8          9         10
     6  H    0.000000
     7  H    2.311675   0.000000
     8  H    2.562777   2.544132   0.000000
     9  H    3.120133   2.960707   1.784743   0.000000
    10  H    2.961865   4.300117   2.767935   2.311703   0.000000
 Stoichiometry    C2H6O2
 Framework group  C1[X(C2H6O2)]
 Deg. of freedom    24
 Full point group                 C1      NOp   1
 Largest Abelian subgroup         C1      NOp   1
 Largest concise Abelian subgroup C1      NOp   1
                         Standard orientation:                         
 ---------------------------------------------------------------------
 Center     Atomic      Atomic             Coordinates (Angstroms)
 Number     Number       Type             X           Y           Z
 ---------------------------------------------------------------------
      1          6           0       -0.580413   -0.502262    0.068036
      2          8           0       -1.829759    0.106706   -0.103317
      3          6           0        0.580399    0.502312   -0.067537
      4          8           0        1.829810   -0.106811    0.102838
      5          1           0       -0.560289   -1.260890   -0.734378
      6          1           0       -0.532598   -1.037795    1.036151
      7          1           0       -1.927363    0.750293    0.587584
      8          1           0        0.560708    1.260468    0.735330
      9          1           0        0.532102    1.038420   -1.035316
     10          1           0        1.927120   -0.749951   -0.588527
 ---------------------------------------------------------------------
 Rotational constants (GHZ):     29.2583510      3.9408668      3.6914761

 **********************************************************************

            Population analysis using the SCF density.

 **********************************************************************

 Orbital symmetries:
       Occupied  (A) (A) (A) (A) (A) (A) (A) (A) (A) (A) (A) (A)
                 (A)
       Virtual   (A) (A) (A) (A) (A) (A) (A) (A) (A)
 The electronic state is 1-A.
 Alpha  occ. eigenvalues --   -1.46934  -1.35333  -1.04743  -0.84147  -0.67022
 Alpha  occ. eigenvalues --   -0.66235  -0.61540  -0.56382  -0.53952  -0.50901
 Alpha  occ. eigenvalues --   -0.44238  -0.43915  -0.40457
 Alpha virt. eigenvalues --    0.10706   0.12271   0.13055   0.13302   0.14861
 Alpha virt. eigenvalues --    0.15063   0.16414   0.19726   0.20454
          Condensed to atoms (all electrons):
               1          2          3          4          5          6
     1  C    3.974943   0.000000   0.000000   0.000000   0.000000   0.000000
     2  O    0.000000   6.301210   0.000000   0.000000   0.000000   0.000000
     3  C    0.000000   0.000000   3.974945   0.000000   0.000000   0.000000
     4  O    0.000000   0.000000   0.000000   6.301212   0.000000   0.000000
     5  H    0.000000   0.000000   0.000000   0.000000   0.946063   0.000000
     6  H    0.000000   0.000000   0.000000   0.000000   0.000000   0.962015
     7  H    0.000000   0.000000   0.000000   0.000000   0.000000   0.000000
     8  H    0.000000   0.000000   0.000000   0.000000   0.000000   0.000000
     9  H    0.000000   0.000000   0.000000   0.000000   0.000000   0.000000
    10  H    0.000000   0.000000   0.000000   0.000000   0.000000   0.000000
               7          8          9         10
     1  C    0.000000   0.000000   0.000000   0.000000
     2  O    0.000000   0.000000   0.000000   0.000000
     3  C    0.000000   0.000000   0.000000   0.000000
     4  O    0.000000   0.000000   0.000000   0.000000
     5  H    0.000000   0.000000   0.000000   0.000000
     6  H    0.000000   0.000000   0.000000   0.000000
     7  H    0.815769   0.000000   0.000000   0.000000
     8  H    0.000000   0.946068   0.000000   0.000000
     9  H    0.000000   0.000000   0.962011   0.000000
    10  H    0.000000   0.000000   0.000000   0.815765
 Mulliken charges:
               1
     1  C    0.025057
     2  O   -0.301210
     3  C    0.025055
     4  O   -0.301212
     5  H    0.053937
     6  H    0.037985
     7  H    0.184231
     8  H    0.053932
     9  H    0.037989
    10  H    0.184235
 Sum of Mulliken charges =   0.00000
 Mulliken charges with hydrogens summed into heavy atoms:
               1
     1  C    0.116979
     2  O   -0.116979
     3  C    0.116976
     4  O   -0.116976
 Charge=              0.0000 electrons
 Dipole moment (field-independent basis, Debye):
    X=             -0.0005    Y=              0.0007    Z=              0.0002  Tot=              0.0009
 N-N= 9.980102536306D+01 E-N=-1.623136566912D+02  KE=-1.848609645634D+01
 1\1\GINC-GTX1080DELTA\FOpt\RPM3\ZDO\C2H6O2\MVEROT\17-Apr-2022\0\\#n PM
 3 Opt\\Optimisation de geometrie\\0,1\C,2.2633228438,2.3149693143,2.12
 21958719\O,1.2329048884,2.7808439814,2.9481902259\C,1.8588219628,1.046
 5446801,1.3459801688\O,2.8895657766,0.5800792382,0.5207140214\H,3.0829
 936308,2.1142129472,2.8346753964\H,2.6063671184,3.1111031947,1.4331230
 206\H,0.5029050558,3.0107339347,2.3866513355\H,1.0396796861,1.24749324
 24,0.6329518198\H,1.5150100016,0.2507012219,2.0350129111\H,3.619119035
 7,0.3499082449,1.0827252285\\Version=AM64L-G09RevD.01\State=1-A\HF=-0.
 1568501\RMSD=5.853e-09\RMSF=3.743e-05\Dipole=-0.0003521,0.0000463,0.00
 0016\PG=C01 [X(C2H6O2)]\\@


 WE HAVE LEARNED THAT NOTHING IS SIMPLE AND
 RATIONAL EXCEPT WHAT WE OURSELVES HAVE INVENTED;
 THAT GOD THINKS IN TERMS NEITHER OF EUCLID OR RIEMANN; THAT SCIENCE HAS "EXPLAINED" NOTHING;
 THAT THE MORE WE KNOW THE MORE FANTASTIC THE WORLD BECOMES
 AND THE PROFOUNDER THE SURROUNDING DARKNESS.
   --  ALDOUS HUXLEY
 Job cpu time:       0 days  0 hours  0 minutes  3.4 seconds.
 File lengths (MBytes):  RWF=     72 Int=      0 D2E=      0 Chk=      2 Scr=      2
 Normal termination of Gaussian 09 at Sun Apr 17 23:35:43 2022.
