 Entering Gaussian System, Link 0=g09
 Input=/scratch/mverot/pbenzo-orbs-zindo/pbenzo-orbs-zindo.com
 Output=/scratch/mverot/pbenzo-orbs-zindo/pbenzo-orbs-zindo.log
 Initial command:
 /opt/g09/l1.exe "/scratch/mverot/pbenzo-orbs-zindo/Gau-2713911.inp" -scrdir="/scratch/mverot/pbenzo-orbs-zindo/"
 Entering Link 1 = /opt/g09/l1.exe PID=   2713913.
  
 Copyright (c) 1988,1990,1992,1993,1995,1998,2003,2009,2013,
            Gaussian, Inc.  All Rights Reserved.
  
 This is part of the Gaussian(R) 09 program.  It is based on
 the Gaussian(R) 03 system (copyright 2003, Gaussian, Inc.),
 the Gaussian(R) 98 system (copyright 1998, Gaussian, Inc.),
 the Gaussian(R) 94 system (copyright 1995, Gaussian, Inc.),
 the Gaussian 92(TM) system (copyright 1992, Gaussian, Inc.),
 the Gaussian 90(TM) system (copyright 1990, Gaussian, Inc.),
 the Gaussian 88(TM) system (copyright 1988, Gaussian, Inc.),
 the Gaussian 86(TM) system (copyright 1986, Carnegie Mellon
 University), and the Gaussian 82(TM) system (copyright 1983,
 Carnegie Mellon University). Gaussian is a federally registered
 trademark of Gaussian, Inc.
  
 This software contains proprietary and confidential information,
 including trade secrets, belonging to Gaussian, Inc.
  
 This software is provided under written license and may be
 used, copied, transmitted, or stored only in accord with that
 written license.
  
 The following legend is applicable only to US Government
 contracts under FAR:
  
                    RESTRICTED RIGHTS LEGEND
  
 Use, reproduction and disclosure by the US Government is
 subject to restrictions as set forth in subparagraphs (a)
 and (c) of the Commercial Computer Software - Restricted
 Rights clause in FAR 52.227-19.
  
 Gaussian, Inc.
 340 Quinnipiac St., Bldg. 40, Wallingford CT 06492
  
  
 ---------------------------------------------------------------
 Warning -- This program may not be used in any manner that
 competes with the business of Gaussian, Inc. or will provide
 assistance to any competitor of Gaussian, Inc.  The licensee
 of this program is prohibited from giving any competitor of
 Gaussian, Inc. access to this program.  By using this program,
 the user acknowledges that Gaussian, Inc. is engaged in the
 business of creating and licensing software in the field of
 computational chemistry and represents and warrants to the
 licensee that it is not a competitor of Gaussian, Inc. and that
 it will not use this program in any manner prohibited above.
 ---------------------------------------------------------------
  

 Cite this work as:
 Gaussian 09, Revision D.01,
 M. J. Frisch, G. W. Trucks, H. B. Schlegel, G. E. Scuseria, 
 M. A. Robb, J. R. Cheeseman, G. Scalmani, V. Barone, B. Mennucci, 
 G. A. Petersson, H. Nakatsuji, M. Caricato, X. Li, H. P. Hratchian, 
 A. F. Izmaylov, J. Bloino, G. Zheng, J. L. Sonnenberg, M. Hada, 
 M. Ehara, K. Toyota, R. Fukuda, J. Hasegawa, M. Ishida, T. Nakajima, 
 Y. Honda, O. Kitao, H. Nakai, T. Vreven, J. A. Montgomery, Jr., 
 J. E. Peralta, F. Ogliaro, M. Bearpark, J. J. Heyd, E. Brothers, 
 K. N. Kudin, V. N. Staroverov, T. Keith, R. Kobayashi, J. Normand, 
 K. Raghavachari, A. Rendell, J. C. Burant, S. S. Iyengar, J. Tomasi, 
 M. Cossi, N. Rega, J. M. Millam, M. Klene, J. E. Knox, J. B. Cross, 
 V. Bakken, C. Adamo, J. Jaramillo, R. Gomperts, R. E. Stratmann, 
 O. Yazyev, A. J. Austin, R. Cammi, C. Pomelli, J. W. Ochterski, 
 R. L. Martin, K. Morokuma, V. G. Zakrzewski, G. A. Voth, 
 P. Salvador, J. J. Dannenberg, S. Dapprich, A. D. Daniels, 
 O. Farkas, J. B. Foresman, J. V. Ortiz, J. Cioslowski, 
 and D. J. Fox, Gaussian, Inc., Wallingford CT, 2013.
 
 ******************************************
 Gaussian 09:  AM64L-G09RevD.01 24-Apr-2013
                11-Apr-2022 
 ******************************************
 %chk=pbenzo-orbs-zindo
 ------------------------------------
 #n ZINDO(NSTATE=10) pop=full gfinput
 ------------------------------------
 1/38=1/1;
 2/12=2,17=6,18=5,40=1/2;
 3/5=2,16=1,24=10,25=1,41=400000/1,2,8,3;
 4/5=3,35=1/1;
 5/5=2,35=1,38=5/2;
 8/6=1,108=10/1;
 9/41=10,42=1,49=10/14;
 6/7=3/1;
 99/5=1,9=1/99;
 ----------
 UV-spectra
 ----------
 Symbolic Z-matrix:
 Charge =  0 Multiplicity = 1
 O                     2.68849   0.        0. 
 O                    -2.68849   0.        0. 
 C                     1.45291   0.        0. 
 C                    -1.45291   0.        0. 
 C                     0.66906   0.       -1.25478 
 C                     0.66906   0.        1.25478 
 C                    -0.66906   0.       -1.25478 
 C                    -0.66906   0.        1.25478 
 H                     1.25784   0.       -2.18723 
 H                     1.25784   0.        2.18723 
 H                    -1.25784   0.       -2.18723 
 H                    -1.25784   0.        2.18723 
 
                          Input orientation:                          
 ---------------------------------------------------------------------
 Center     Atomic      Atomic             Coordinates (Angstroms)
 Number     Number       Type             X           Y           Z
 ---------------------------------------------------------------------
      1          8           0        2.688495    0.000000    0.000000
      2          8           0       -2.688495    0.000000    0.000000
      3          6           0        1.452908    0.000000    0.000000
      4          6           0       -1.452908    0.000000    0.000000
      5          6           0        0.669060    0.000000   -1.254776
      6          6           0        0.669060    0.000000    1.254776
      7          6           0       -0.669060    0.000000   -1.254776
      8          6           0       -0.669060    0.000000    1.254776
      9          1           0        1.257835    0.000000   -2.187230
     10          1           0        1.257835    0.000000    2.187230
     11          1           0       -1.257835    0.000000   -2.187230
     12          1           0       -1.257835    0.000000    2.187230
 ---------------------------------------------------------------------
                    Distance matrix (angstroms):
                    1          2          3          4          5
     1  O    0.000000
     2  O    5.376990   0.000000
     3  C    1.235587   4.141403   0.000000
     4  C    4.141403   1.235587   2.905817   0.000000
     5  C    2.377516   3.584360   1.479487   2.465200   0.000000
     6  C    2.377516   3.584360   1.479487   2.465200   2.509552
     7  C    3.584360   2.377516   2.465200   1.479487   1.338119
     8  C    3.584360   2.377516   2.465200   1.479487   2.844014
     9  H    2.613573   4.511928   2.195912   3.483117   1.102782
    10  H    2.613573   4.511928   2.195912   3.483117   3.492000
    11  H    4.511928   2.613573   3.483117   2.195912   2.140653
    12  H    4.511928   2.613573   3.483117   2.195912   3.944658
                    6          7          8          9         10
     6  C    0.000000
     7  C    2.844014   0.000000
     8  C    1.338119   2.509552   0.000000
     9  H    3.492000   2.140653   3.944658   0.000000
    10  H    1.102782   3.944658   2.140653   4.374460   0.000000
    11  H    3.944658   1.102782   3.492000   2.515670   5.046236
    12  H    2.140653   3.492000   1.102782   5.046236   2.515670
                   11         12
    11  H    0.000000
    12  H    4.374460   0.000000
 Stoichiometry    C6H4O2
 Framework group  D2H[C2"(OC.CO),SG(C4H4)]
 Deg. of freedom     6
 Full point group                 D2H     NOp   8
 Largest Abelian subgroup         D2H     NOp   8
 Largest concise Abelian subgroup D2      NOp   4
                         Standard orientation:                         
 ---------------------------------------------------------------------
 Center     Atomic      Atomic             Coordinates (Angstroms)
 Number     Number       Type             X           Y           Z
 ---------------------------------------------------------------------
      1          8           0        0.000000    0.000000    2.688495
      2          8           0        0.000000    0.000000   -2.688495
      3          6           0        0.000000    0.000000    1.452908
      4          6           0        0.000000    0.000000   -1.452908
      5          6           0        0.000000    1.254776    0.669060
      6          6           0       -0.000000   -1.254776    0.669060
      7          6           0        0.000000    1.254776   -0.669060
      8          6           0       -0.000000   -1.254776   -0.669060
      9          1           0        0.000000    2.187230    1.257835
     10          1           0       -0.000000   -2.187230    1.257835
     11          1           0        0.000000    2.187230   -1.257835
     12          1           0       -0.000000   -2.187230   -1.257835
 ---------------------------------------------------------------------
 Rotational constants (GHZ):      5.3276384      1.6315700      1.2490522
 Standard basis: VSTO-6G (5D, 7F)
 AO basis set in the form of general basis input (Overlap normalization):
      1 0
 S   6 1.00       0.000000000000
      0.1432869836D+03 -0.4151277819D-02
      0.2627737596D+02 -0.2067024148D-01
      0.7384509550D+01 -0.5150303337D-01
      0.1056001261D+01  0.3346271174D+00
      0.4792783190D+00  0.5621061301D+00
      0.2285651220D+00  0.1712994697D+00
 P   6 1.00       0.000000000000
      0.3037204728D+02  0.7924233646D-02
      0.7920412296D+01  0.5144104825D-01
      0.2833998986D+01  0.1898400060D+00
      0.1184665748D+01  0.4049863191D+00
      0.5417098800D+00  0.4012362861D+00
      0.2561013179D+00  0.1051855189D+00
 ****
      2 0
 S   6 1.00       0.000000000000
      0.1432869836D+03 -0.4151277819D-02
      0.2627737596D+02 -0.2067024148D-01
      0.7384509550D+01 -0.5150303337D-01
      0.1056001261D+01  0.3346271174D+00
      0.4792783190D+00  0.5621061301D+00
      0.2285651220D+00  0.1712994697D+00
 P   6 1.00       0.000000000000
      0.3037204728D+02  0.7924233646D-02
      0.7920412296D+01  0.5144104825D-01
      0.2833998986D+01  0.1898400060D+00
      0.1184665748D+01  0.4049863191D+00
      0.5417098800D+00  0.4012362861D+00
      0.2561013179D+00  0.1051855189D+00
 ****
      3 0
 S   6 1.00       0.000000000000
      0.7310560386D+02 -0.4151277819D-02
      0.1340682447D+02 -0.2067024148D-01
      0.3767606913D+01 -0.5150303337D-01
      0.5387761534D+00  0.3346271174D+00
      0.2445297546D+00  0.5621061301D+00
      0.1166148582D+00  0.1712994697D+00
 P   6 1.00       0.000000000000
      0.1549594249D+02  0.7924233646D-02
      0.4041026682D+01  0.5144104825D-01
      0.1445917850D+01  0.1898400060D+00
      0.6044212998D+00  0.4049863191D+00
      0.2763825918D+00  0.4012362861D+00
      0.1306639377D+00  0.1051855189D+00
 ****
      4 0
 S   6 1.00       0.000000000000
      0.7310560386D+02 -0.4151277819D-02
      0.1340682447D+02 -0.2067024148D-01
      0.3767606913D+01 -0.5150303337D-01
      0.5387761534D+00  0.3346271174D+00
      0.2445297546D+00  0.5621061301D+00
      0.1166148582D+00  0.1712994697D+00
 P   6 1.00       0.000000000000
      0.1549594249D+02  0.7924233646D-02
      0.4041026682D+01  0.5144104825D-01
      0.1445917850D+01  0.1898400060D+00
      0.6044212998D+00  0.4049863191D+00
      0.2763825918D+00  0.4012362861D+00
      0.1306639377D+00  0.1051855189D+00
 ****
      5 0
 S   6 1.00       0.000000000000
      0.7310560386D+02 -0.4151277819D-02
      0.1340682447D+02 -0.2067024148D-01
      0.3767606913D+01 -0.5150303337D-01
      0.5387761534D+00  0.3346271174D+00
      0.2445297546D+00  0.5621061301D+00
      0.1166148582D+00  0.1712994697D+00
 P   6 1.00       0.000000000000
      0.1549594249D+02  0.7924233646D-02
      0.4041026682D+01  0.5144104825D-01
      0.1445917850D+01  0.1898400060D+00
      0.6044212998D+00  0.4049863191D+00
      0.2763825918D+00  0.4012362861D+00
      0.1306639377D+00  0.1051855189D+00
 ****
      6 0
 S   6 1.00       0.000000000000
      0.7310560386D+02 -0.4151277819D-02
      0.1340682447D+02 -0.2067024148D-01
      0.3767606913D+01 -0.5150303337D-01
      0.5387761534D+00  0.3346271174D+00
      0.2445297546D+00  0.5621061301D+00
      0.1166148582D+00  0.1712994697D+00
 P   6 1.00       0.000000000000
      0.1549594249D+02  0.7924233646D-02
      0.4041026682D+01  0.5144104825D-01
      0.1445917850D+01  0.1898400060D+00
      0.6044212998D+00  0.4049863191D+00
      0.2763825918D+00  0.4012362861D+00
      0.1306639377D+00  0.1051855189D+00
 ****
      7 0
 S   6 1.00       0.000000000000
      0.7310560386D+02 -0.4151277819D-02
      0.1340682447D+02 -0.2067024148D-01
      0.3767606913D+01 -0.5150303337D-01
      0.5387761534D+00  0.3346271174D+00
      0.2445297546D+00  0.5621061301D+00
      0.1166148582D+00  0.1712994697D+00
 P   6 1.00       0.000000000000
      0.1549594249D+02  0.7924233646D-02
      0.4041026682D+01  0.5144104825D-01
      0.1445917850D+01  0.1898400060D+00
      0.6044212998D+00  0.4049863191D+00
      0.2763825918D+00  0.4012362861D+00
      0.1306639377D+00  0.1051855189D+00
 ****
      8 0
 S   6 1.00       0.000000000000
      0.7310560386D+02 -0.4151277819D-02
      0.1340682447D+02 -0.2067024148D-01
      0.3767606913D+01 -0.5150303337D-01
      0.5387761534D+00  0.3346271174D+00
      0.2445297546D+00  0.5621061301D+00
      0.1166148582D+00  0.1712994697D+00
 P   6 1.00       0.000000000000
      0.1549594249D+02  0.7924233646D-02
      0.4041026682D+01  0.5144104825D-01
      0.1445917850D+01  0.1898400060D+00
      0.6044212998D+00  0.4049863191D+00
      0.2763825918D+00  0.4012362861D+00
      0.1306639377D+00  0.1051855189D+00
 ****
      9 0
 S   6 1.00       0.000000000000
      0.3326836535D+02  0.9163596281D-02
      0.6099718369D+01  0.4936149294D-01
      0.1706481387D+01  0.1685383049D+00
      0.5862224134D+00  0.3705627997D+00
      0.2276473177D+00  0.4164915298D+00
      0.9375773694D-01  0.1303340841D+00
 ****
     10 0
 S   6 1.00       0.000000000000
      0.3326836535D+02  0.9163596281D-02
      0.6099718369D+01  0.4936149294D-01
      0.1706481387D+01  0.1685383049D+00
      0.5862224134D+00  0.3705627997D+00
      0.2276473177D+00  0.4164915298D+00
      0.9375773694D-01  0.1303340841D+00
 ****
     11 0
 S   6 1.00       0.000000000000
      0.3326836535D+02  0.9163596281D-02
      0.6099718369D+01  0.4936149294D-01
      0.1706481387D+01  0.1685383049D+00
      0.5862224134D+00  0.3705627997D+00
      0.2276473177D+00  0.4164915298D+00
      0.9375773694D-01  0.1303340841D+00
 ****
     12 0
 S   6 1.00       0.000000000000
      0.3326836535D+02  0.9163596281D-02
      0.6099718369D+01  0.4936149294D-01
      0.1706481387D+01  0.1685383049D+00
      0.5862224134D+00  0.3705627997D+00
      0.2276473177D+00  0.4164915298D+00
      0.9375773694D-01  0.1303340841D+00
 ****

 There are     8 symmetry adapted cartesian basis functions of AG  symmetry.
 There are     1 symmetry adapted cartesian basis functions of B1G symmetry.
 There are     3 symmetry adapted cartesian basis functions of B2G symmetry.
 There are     6 symmetry adapted cartesian basis functions of B3G symmetry.
 There are     1 symmetry adapted cartesian basis functions of AU  symmetry.
 There are     8 symmetry adapted cartesian basis functions of B1U symmetry.
 There are     6 symmetry adapted cartesian basis functions of B2U symmetry.
 There are     3 symmetry adapted cartesian basis functions of B3U symmetry.
 There are     8 symmetry adapted basis functions of AG  symmetry.
 There are     1 symmetry adapted basis functions of B1G symmetry.
 There are     3 symmetry adapted basis functions of B2G symmetry.
 There are     6 symmetry adapted basis functions of B3G symmetry.
 There are     1 symmetry adapted basis functions of AU  symmetry.
 There are     8 symmetry adapted basis functions of B1U symmetry.
 There are     6 symmetry adapted basis functions of B2U symmetry.
 There are     3 symmetry adapted basis functions of B3U symmetry.
    36 basis functions,   216 primitive gaussians,    36 cartesian basis functions
    20 alpha electrons       20 beta electrons
       nuclear repulsion energy       161.7108934859 Hartrees.
 Integral buffers will be    131072 words long.
 Regular integral format.
 Two-electron integral symmetry is turned off.
 Do NDO integrals.
 One-electron integrals computed using PRISM.
 Generate ZINDO/S integrals.
 NDO Nuclear repulsion=   113.702136286455 Hartrees.
 NBasis=    36 RedAO= T EigKep=  7.07D-01  NBF=     8     1     3     6     1     8     6     3
 NBsUse=    36 1.00D-06 EigRej= -1.00D+00 NBFU=     8     1     3     6     1     8     6     3
 DipDrv:  will hold  3 matrices at once.
 Simple Huckel Guess.
 Initial guess orbital symmetries:
       Occupied  (AG) (B1U) (B2U) (AG) (B3G) (B1U) (AG) (B2U) (B1U)
                 (B3U) (AG) (B2U) (B2G) (B3G) (B1U) (AG) (B3U)
                 (B1G) (B2U) (B3G)
       Virtual   (B2G) (AU) (B3U) (B2G) (B2U) (AG) (B1U) (B3G)
                 (B3G) (B1U) (B2U) (AG) (B1U) (AG) (B3G) (B1U)
 The electronic state of the initial guess is 1-AG.
 Overlap will be assumed to be unity.
 Requested convergence on RMS density matrix=1.00D-08 within 128 cycles.
 Requested convergence on MAX density matrix=1.00D-06.
 Requested convergence on             energy=1.00D-06.
 No special actions if energy rises.
 SCF Done:  E(RZINDO/S) =  -60.1085623161     A.U. after   10 cycles
            NFock= 10  Conv=0.65D-08     -V/T= 0.8097
 Range of M.O.s used for correlation:     1    36
 NBasis=    36 NAE=    20 NBE=    20 NFC=     0 NFV=     0
 NROrb=     36 NOA=    20 NOB=    20 NVA=    16 NVB=    16
 Orbital symmetries:
       Occupied  (AG) (B1U) (AG) (B2U) (B1U) (B3G) (AG) (B2U) (AG)
                 (B1U) (B2U) (B1U) (B3U) (AG) (B3G) (B2G) (B1G)
                 (B2U) (B3U) (B3G)
       Virtual   (B2G) (AU) (B3U) (B1U) (B2G) (AG) (B3G) (B2U)
                 (AG) (B1U) (B3G) (B1U) (B2U) (B3G) (AG) (B1U)
    80 initial guesses have been made.
 Convergence on wavefunction:    0.001000000000000
 Iteration     1 Dimension    80 NMult     0 NNew     80
 CISAX will form    80 AO SS matrices at one time.
 New state      2 was old state      3
 New state      3 was old state      4
 New state      4 was old state      2
 New state      5 was old state     11
 New state      6 was old state      5
 New state      7 was old state      9
 New state      8 was old state      7
 New state      9 was old state      6
 New state     10 was old state     13
 Iteration     2 Dimension   160 NMult    80 NNew     80
 Iteration     3 Dimension   168 NMult   160 NNew      8
 Iteration     4 Dimension   171 NMult   168 NNew      3
 ***********************************************************************
 Excited states from <AA,BB:AA,BB> singles matrix:
 ***********************************************************************
 
 Ground to excited state transition densities written to RWF  633
 Ground to excited state transition electric dipole moments (Au):
       state          X           Y           Z        Dip. S.      Osc.
         1        -0.0000     -0.0000      0.0000      0.0000      0.0000
         2         0.0000      0.0000     -0.0000      0.0000      0.0000
         3         0.0000     -0.0000      0.0000      0.0000      0.0000
         4        -0.0000     -0.0000     -2.7557      7.5936      0.9073
         5         0.0000      0.0000      0.0000      0.0000      0.0000
         6         0.1381     -0.0000      0.0000      0.0191      0.0028
         7        -0.0000     -0.0000     -0.0000      0.0000      0.0000
         8         0.0000     -0.0000     -0.0000      0.0000      0.0000
         9         0.0000      0.0000     -0.0000      0.0000      0.0000
        10        -0.0000      0.7960      0.0000      0.6337      0.1037
 Ground to excited state transition velocity dipole moments (Au):
       state          X           Y           Z        Dip. S.      Osc.
         1         0.0000      0.0000     -0.0000      0.0000      0.0000
         2        -0.0000     -0.0000      0.0000      0.0000      0.0000
         3        -0.0000      0.0000     -0.0000      0.0000      0.0000
         4         0.0000      0.0000      0.1869      0.0349      0.1299
         5        -0.0000     -0.0000     -0.0000      0.0000      0.0000
         6        -0.0551      0.0000     -0.0000      0.0030      0.0091
         7         0.0000      0.0000      0.0000      0.0000      0.0000
         8        -0.0000      0.0000      0.0000      0.0000      0.0000
         9        -0.0000     -0.0000      0.0000      0.0000      0.0000
        10         0.0000     -0.0985     -0.0000      0.0097      0.0264
 Ground to excited state transition magnetic dipole moments (Au):
       state          X           Y           Z
         1         0.0000     -0.0000     -0.9676
         2        -0.0000      0.0000     -0.0000
         3        -1.0865      0.0000     -0.0000
         4        -0.0000     -0.0000     -0.0000
         5         0.0000      0.0000      1.1304
         6         0.0000      0.0000     -0.0000
         7        -0.0000     -0.0000     -0.0000
         8        -0.0000     -0.3231      0.0000
         9        -0.7803      0.0000      0.0000
        10        -0.0000      0.0000     -0.0000
 Ground to excited state transition velocity quadrupole moments (Au):
       state          XX          YY          ZZ          XY          XZ          YZ
         1        -0.0000     -0.0000      0.0000      0.0279      0.0000      0.0000
         2         0.0000      0.0000     -0.0000      0.0000      0.0000     -0.0000
         3        -0.0000     -0.0000      0.0000      0.0000      0.0000     -0.2106
         4         0.0000      0.0000     -0.0000      0.0000     -0.0000     -0.0000
         5         0.0000      0.0000     -0.0000      0.1098     -0.0000      0.0000
         6         0.0000      0.0000     -0.0000      0.0000      0.0000      0.0000
         7        -0.0000     -0.0000      0.0000      0.0000     -0.0000     -0.0000
         8         0.0000      0.0000     -0.0000     -0.0000      0.2369     -0.0000
         9         0.0000      0.0000     -0.0000     -0.0000      0.0000     -0.3859
        10        -0.0000     -0.0000      0.0000     -0.0000     -0.0000      0.0000
 <0|del|b> * <b|rxdel|0> + <0|del|b> * <b|delr+rdel|0>
 Rotatory Strengths (R) in cgs (10**-40 erg-esu-cm/Gauss)
       state          XX          YY          ZZ    R(velocity)    E-M Angle
         1         0.0000      0.0000     -0.0000      0.0000       90.00
         2        -0.0000     -0.0000      0.0000     -0.0000       90.00
         3         0.0000      0.0000      0.0000      0.0000       90.00
         4        -0.0000     -0.0000     -0.0000     -0.0000       90.00
         5        -0.0000     -0.0000     -0.0000     -0.0000       90.00
         6         0.0000     -0.0000     -0.0000     -0.0000       90.00
         7        -0.0000     -0.0000     -0.0000     -0.0000       90.00
         8        -0.0000      0.0000     -0.0000     -0.0000       90.00
         9        -0.0000      0.0000      0.0000      0.0000       90.00
        10        -0.0000      0.0000     -0.0000     -0.0000       90.00
 1/2[<0|r|b>*<b|rxdel|0> + (<0|rxdel|b>*<b|r|0>)*]
 Rotatory Strengths (R) in cgs (10**-40 erg-esu-cm/Gauss)
       state          XX          YY          ZZ     R(length)
         1         0.0000     -0.0000      0.0000      0.0000
         2         0.0000     -0.0000     -0.0000     -0.0000
         3         0.0000      0.0000      0.0000      0.0000
         4        -0.0000     -0.0000     -0.0000     -0.0000
         5        -0.0000     -0.0000     -0.0000     -0.0000
         6        -0.0000      0.0000      0.0000     -0.0000
         7        -0.0000     -0.0000     -0.0000     -0.0000
         8         0.0000     -0.0000      0.0000     -0.0000
         9         0.0000     -0.0000      0.0000      0.0000
        10        -0.0000     -0.0000      0.0000     -0.0000
  1/2[<0|del|b>*<b|r|0> + (<0|r|b>*<b|del|0>)*] (Au)
       state          X           Y           Z        Dip. S.   Osc.(frdel)
         1        -0.0000     -0.0000     -0.0000      0.0000      0.0000
         2        -0.0000     -0.0000     -0.0000      0.0000      0.0000
         3        -0.0000     -0.0000     -0.0000      0.0000      0.0000
         4        -0.0000     -0.0000     -0.5150      0.5150      0.3434
         5        -0.0000     -0.0000     -0.0000      0.0000      0.0000
         6        -0.0076     -0.0000     -0.0000      0.0076      0.0051
         7        -0.0000     -0.0000     -0.0000      0.0000      0.0000
         8        -0.0000     -0.0000     -0.0000      0.0000      0.0000
         9        -0.0000     -0.0000     -0.0000      0.0000      0.0000
        10        -0.0000     -0.0784     -0.0000      0.0784      0.0523

 Excitation energies and oscillator strengths:
 
 Excited State   1:      Singlet-B1G    2.3734 eV  522.39 nm  f=0.0000  <S**2>=0.000
      18 -> 23        -0.28748
      20 -> 21         0.63200
      20 -> 25        -0.11286
 This state for optimization and/or second-order correction.
 Total Energy, E(CIS) =  -60.0213406790    
 Copying the excited state density for this state as the 1-particle RhoCI density.
 
 Excited State   2:      Singlet-AU     2.4178 eV  512.80 nm  f=0.0000  <S**2>=0.000
      18 -> 21         0.62689
      18 -> 25        -0.12596
      20 -> 23        -0.29339
 
 Excited State   3:      Singlet-B3G    3.9637 eV  312.80 nm  f=0.0000  <S**2>=0.000
      17 -> 21         0.70079
 
 Excited State   4:      Singlet-B1U    4.8767 eV  254.24 nm  f=0.9073  <S**2>=0.000
      17 -> 22        -0.11667
      19 -> 21         0.68576
 
 Excited State   5:      Singlet-B1G    5.7586 eV  215.30 nm  f=0.0000  <S**2>=0.000
      15 -> 21        -0.32485
      18 -> 23         0.46611
      20 -> 21         0.29092
      20 -> 25         0.29377
 
 Excited State   6:      Singlet-B3U    6.0823 eV  203.84 nm  f=0.0028  <S**2>=0.000
      15 -> 22        -0.13534
      20 -> 22         0.68328
 
 Excited State   7:      Singlet-AU     6.0994 eV  203.27 nm  f=0.0000  <S**2>=0.000
      18 -> 21         0.31577
      18 -> 25         0.28288
      20 -> 23         0.55847
 
 Excited State   8:      Singlet-B2G    6.4355 eV  192.66 nm  f=0.0000  <S**2>=0.000
      14 -> 21         0.32321
      18 -> 22         0.61786
 
 Excited State   9:      Singlet-B3G    6.4568 eV  192.02 nm  f=0.0000  <S**2>=0.000
      18 -> 24        -0.12016
      19 -> 22         0.66531
      20 -> 26         0.15110
 
 Excited State  10:      Singlet-B2U    6.6770 eV  185.69 nm  f=0.1037  <S**2>=0.000
      17 -> 23         0.64674
      18 -> 26         0.15099
      20 -> 24        -0.23305
 SavETr:  write IOETrn=   770 NScale= 10 NData=  16 NLR=1 NState=   10 LETran=     190.

 **********************************************************************

            Population analysis using the SCF density.

 **********************************************************************

 Orbital symmetries:
       Occupied  (AG) (B1U) (AG) (B2U) (B1U) (B3G) (AG) (B2U) (AG)
                 (B1U) (B2U) (B1U) (B3U) (AG) (B3G) (B2G) (B1G)
                 (B2U) (B3U) (B3G)
       Virtual   (B2G) (AU) (B3U) (B1U) (B2G) (AG) (B3G) (B2U)
                 (AG) (B1U) (B3G) (B1U) (B2U) (B3G) (AG) (B1U)
 The electronic state is 1-AG.
 Alpha  occ. eigenvalues --   -1.66502  -1.58151  -1.44422  -1.26611  -1.00808
 Alpha  occ. eigenvalues --   -0.98510  -0.93310  -0.74186  -0.71026  -0.64694
 Alpha  occ. eigenvalues --   -0.61058  -0.58233  -0.56757  -0.53866  -0.53088
 Alpha  occ. eigenvalues --   -0.50339  -0.39567  -0.39433  -0.38826  -0.38791
 Alpha virt. eigenvalues --   -0.08767   0.00565   0.02047   0.05835   0.07744
 Alpha virt. eigenvalues --    0.09260   0.10019   0.17110   0.17764   0.20292
 Alpha virt. eigenvalues --    0.28758   0.32047   0.34448   0.40434   0.42768
 Alpha virt. eigenvalues --    0.48146
     Molecular Orbital Coefficients:
                           1         2         3         4         5
                        (AG)--O  (B1U)--O   (AG)--O  (B2U)--O  (B1U)--O
     Eigenvalues --    -1.66502  -1.58151  -1.44422  -1.26611  -1.00808
   1 1   O  1S          0.33074   0.49800   0.42850   0.00000   0.32269
   2        2PX         0.00000   0.00000   0.00000  -0.00000   0.00000
   3        2PY        -0.00000   0.00000   0.00000   0.05200   0.00000
   4        2PZ        -0.13224  -0.18374  -0.13033  -0.00000   0.03419
   5 2   O  1S          0.33074  -0.49800   0.42850   0.00000  -0.32269
   6        2PX         0.00000  -0.00000   0.00000   0.00000   0.00000
   7        2PY         0.00000  -0.00000  -0.00000   0.05200  -0.00000
   8        2PZ         0.13224  -0.18374   0.13033   0.00000   0.03419
   9 3   C  1S          0.40519   0.36571   0.02649   0.00000  -0.27943
  10        2PX        -0.00000  -0.00000   0.00000   0.00000  -0.00000
  11        2PY        -0.00000   0.00000  -0.00000   0.21026   0.00000
  12        2PZ         0.01846   0.19396   0.34411  -0.00000   0.27375
  13 4   C  1S          0.40519  -0.36571   0.02649   0.00000   0.27943
  14        2PX        -0.00000  -0.00000   0.00000  -0.00000  -0.00000
  15        2PY        -0.00000  -0.00000  -0.00000   0.21026  -0.00000
  16        2PZ        -0.01846   0.19396  -0.34411   0.00000   0.27375
  17 5   C  1S          0.29219   0.10407  -0.25141   0.41995  -0.25676
  18        2PX        -0.00000  -0.00000   0.00000   0.00000   0.00000
  19        2PY        -0.10380  -0.04707   0.06350   0.05354   0.07150
  20        2PZ        -0.02462   0.08726   0.14235  -0.10026  -0.17512
  21 6   C  1S          0.29219   0.10407  -0.25141  -0.41995  -0.25676
  22        2PX        -0.00000  -0.00000   0.00000  -0.00000   0.00000
  23        2PY         0.10380   0.04707  -0.06350   0.05354  -0.07150
  24        2PZ        -0.02462   0.08726   0.14235   0.10026  -0.17512
  25 7   C  1S          0.29219  -0.10407  -0.25141   0.41995   0.25676
  26        2PX        -0.00000  -0.00000   0.00000  -0.00000   0.00000
  27        2PY        -0.10380   0.04707   0.06350   0.05354  -0.07150
  28        2PZ         0.02462   0.08726  -0.14235   0.10026  -0.17512
  29 8   C  1S          0.29219  -0.10407  -0.25141  -0.41995   0.25676
  30        2PX        -0.00000  -0.00000  -0.00000  -0.00000  -0.00000
  31        2PY         0.10380  -0.04707  -0.06350   0.05354   0.07150
  32        2PZ         0.02462   0.08726  -0.14235  -0.10026  -0.17512
  33 9   H  1S          0.08687   0.05272  -0.05142   0.19304  -0.13832
  34 10  H  1S          0.08687   0.05272  -0.05142  -0.19304  -0.13832
  35 11  H  1S          0.08687  -0.05272  -0.05142   0.19304   0.13832
  36 12  H  1S          0.08687  -0.05272  -0.05142  -0.19304   0.13832
                           6         7         8         9        10
                       (B3G)--O   (AG)--O  (B2U)--O   (AG)--O  (B1U)--O
     Eigenvalues --    -0.98510  -0.93310  -0.74186  -0.71026  -0.64694
   1 1   O  1S         -0.00000   0.07959  -0.00000   0.35786   0.20811
   2        2PX        -0.00000   0.00000  -0.00000   0.00000  -0.00000
   3        2PY         0.15372  -0.00000   0.27074   0.00000  -0.00000
   4        2PZ         0.00000   0.03624  -0.00000   0.33241   0.28888
   5 2   O  1S          0.00000   0.07959  -0.00000   0.35786  -0.20811
   6        2PX        -0.00000  -0.00000   0.00000  -0.00000  -0.00000
   7        2PY        -0.15372   0.00000   0.27074   0.00000   0.00000
   8        2PZ         0.00000  -0.03624   0.00000  -0.33241   0.28888
   9 3   C  1S          0.00000  -0.22650  -0.00000  -0.19817  -0.25117
  10        2PX         0.00000  -0.00000  -0.00000   0.00000  -0.00000
  11        2PY         0.35498  -0.00000   0.38855   0.00000  -0.00000
  12        2PZ        -0.00000   0.17036   0.00000  -0.07491  -0.03380
  13 4   C  1S         -0.00000  -0.22650   0.00000  -0.19817   0.25117
  14        2PX         0.00000  -0.00000   0.00000  -0.00000  -0.00000
  15        2PY        -0.35498   0.00000   0.38855   0.00000   0.00000
  16        2PZ        -0.00000  -0.17036  -0.00000   0.07491  -0.03380
  17 5   C  1S          0.29017   0.16091  -0.01839   0.00744   0.14047
  18        2PX        -0.00000  -0.00000  -0.00000   0.00000  -0.00000
  19        2PY         0.00189   0.34488  -0.17894  -0.06854   0.23880
  20        2PZ         0.21364  -0.07226   0.32466  -0.28659   0.07286
  21 6   C  1S         -0.29017   0.16091   0.01839   0.00744   0.14047
  22        2PX        -0.00000  -0.00000   0.00000  -0.00000  -0.00000
  23        2PY         0.00189  -0.34488  -0.17894   0.06854  -0.23880
  24        2PZ        -0.21364  -0.07226  -0.32466  -0.28659   0.07286
  25 7   C  1S         -0.29017   0.16091  -0.01839   0.00744  -0.14047
  26        2PX        -0.00000  -0.00000  -0.00000  -0.00000  -0.00000
  27        2PY        -0.00189   0.34488  -0.17894  -0.06854  -0.23880
  28        2PZ         0.21364   0.07226  -0.32466   0.28659   0.07286
  29 8   C  1S          0.29017   0.16091   0.01839   0.00744  -0.14047
  30        2PX        -0.00000  -0.00000   0.00000  -0.00000  -0.00000
  31        2PY        -0.00189  -0.34488  -0.17894   0.06854   0.23880
  32        2PZ        -0.21364   0.07226   0.32466   0.28659   0.07286
  33 9   H  1S          0.21292   0.23656   0.01018  -0.14625   0.26914
  34 10  H  1S         -0.21292   0.23656  -0.01018  -0.14625   0.26914
  35 11  H  1S         -0.21292   0.23656   0.01018  -0.14625  -0.26914
  36 12  H  1S          0.21292   0.23656  -0.01018  -0.14625  -0.26914
                          11        12        13        14        15
                       (B2U)--O  (B1U)--O  (B3U)--O   (AG)--O  (B3G)--O
     Eigenvalues --    -0.61058  -0.58233  -0.56757  -0.53866  -0.53088
   1 1   O  1S          0.00000   0.24427  -0.00000   0.16662   0.00000
   2        2PX         0.00000   0.00000   0.36866   0.00000   0.00000
   3        2PY        -0.01336   0.00000  -0.00000  -0.00000   0.36069
   4        2PZ         0.00000   0.44972  -0.00000   0.41100   0.00000
   5 2   O  1S         -0.00000  -0.24427  -0.00000   0.16662   0.00000
   6        2PX         0.00000   0.00000   0.36866   0.00000   0.00000
   7        2PY        -0.01336  -0.00000   0.00000   0.00000  -0.36069
   8        2PZ         0.00000   0.44972   0.00000  -0.41100  -0.00000
   9 3   C  1S         -0.00000   0.06297  -0.00000   0.00752  -0.00000
  10        2PX         0.00000   0.00000   0.40911   0.00000   0.00000
  11        2PY        -0.16678   0.00000   0.00000  -0.00000   0.28377
  12        2PZ        -0.00000  -0.33188   0.00000  -0.28096  -0.00000
  13 4   C  1S          0.00000  -0.06297   0.00000   0.00752   0.00000
  14        2PX         0.00000   0.00000   0.40911   0.00000   0.00000
  15        2PY        -0.16678  -0.00000   0.00000   0.00000  -0.28377
  16        2PZ        -0.00000  -0.33188   0.00000   0.28096   0.00000
  17 5   C  1S         -0.06717  -0.00058   0.00000  -0.01367  -0.07126
  18        2PX         0.00000   0.00000   0.31362   0.00000   0.00000
  19        2PY         0.28999  -0.19912   0.00000   0.00274  -0.27403
  20        2PZ         0.25232  -0.00310  -0.00000   0.30254  -0.01351
  21 6   C  1S          0.06717  -0.00058  -0.00000  -0.01367   0.07126
  22        2PX         0.00000   0.00000   0.31362   0.00000   0.00000
  23        2PY         0.28999   0.19912  -0.00000  -0.00274  -0.27403
  24        2PZ        -0.25232  -0.00310   0.00000   0.30254   0.01351
  25 7   C  1S         -0.06717   0.00058  -0.00000  -0.01367   0.07126
  26        2PX         0.00000   0.00000   0.31362   0.00000   0.00000
  27        2PY         0.28999   0.19912  -0.00000   0.00274   0.27403
  28        2PZ        -0.25232  -0.00310   0.00000  -0.30254  -0.01351
  29 8   C  1S          0.06717   0.00058  -0.00000  -0.01367  -0.07126
  30        2PX         0.00000   0.00000   0.31362   0.00000   0.00000
  31        2PY         0.28999  -0.19912  -0.00000  -0.00274   0.27403
  32        2PZ         0.25232  -0.00310   0.00000  -0.30254   0.01351
  33 9   H  1S          0.28936  -0.14943   0.00000   0.14296  -0.25365
  34 10  H  1S         -0.28936  -0.14943   0.00000   0.14296   0.25365
  35 11  H  1S          0.28936   0.14943  -0.00000   0.14296   0.25365
  36 12  H  1S         -0.28936   0.14943  -0.00000   0.14296  -0.25365
                          16        17        18        19        20
                       (B2G)--O  (B1G)--O  (B2U)--O  (B3U)--O  (B3G)--O
     Eigenvalues --    -0.50339  -0.39567  -0.39433  -0.38826  -0.38791
   1 1   O  1S          0.00000  -0.00000   0.00000  -0.00000  -0.00000
   2        2PX         0.55340  -0.00000   0.00000   0.50283  -0.00000
   3        2PY         0.00000  -0.00000   0.64914   0.00000   0.58233
   4        2PZ         0.00000  -0.00000   0.00000  -0.00000   0.00000
   5 2   O  1S          0.00000   0.00000  -0.00000   0.00000  -0.00000
   6        2PX        -0.55340  -0.00000   0.00000   0.50283  -0.00000
   7        2PY        -0.00000  -0.00000   0.64914  -0.00000  -0.58233
   8        2PZ        -0.00000  -0.00000  -0.00000  -0.00000   0.00000
   9 3   C  1S         -0.00000  -0.00000   0.00000  -0.00000   0.00000
  10        2PX         0.41812  -0.00000   0.00000   0.07902  -0.00000
  11        2PY         0.00000   0.00000  -0.14487  -0.00000  -0.21837
  12        2PZ        -0.00000   0.00000  -0.00000   0.00000   0.00000
  13 4   C  1S         -0.00000   0.00000   0.00000   0.00000  -0.00000
  14        2PX        -0.41812  -0.00000   0.00000   0.07902  -0.00000
  15        2PY         0.00000   0.00000  -0.14487   0.00000   0.21837
  16        2PZ         0.00000   0.00000   0.00000   0.00000  -0.00000
  17 5   C  1S         -0.00000   0.00000  -0.04461  -0.00000  -0.08761
  18        2PX         0.09728   0.50000   0.00000  -0.34707   0.00000
  19        2PY        -0.00000  -0.00000   0.08953   0.00000   0.18259
  20        2PZ         0.00000   0.00000  -0.13693  -0.00000  -0.03119
  21 6   C  1S          0.00000  -0.00000   0.04461   0.00000   0.08761
  22        2PX         0.09728  -0.50000  -0.00000  -0.34707   0.00000
  23        2PY        -0.00000  -0.00000   0.08953   0.00000   0.18259
  24        2PZ         0.00000  -0.00000   0.13693   0.00000   0.03119
  25 7   C  1S          0.00000   0.00000  -0.04461   0.00000   0.08761
  26        2PX        -0.09728   0.50000   0.00000  -0.34707   0.00000
  27        2PY         0.00000  -0.00000   0.08953  -0.00000  -0.18259
  28        2PZ        -0.00000  -0.00000   0.13693  -0.00000  -0.03119
  29 8   C  1S         -0.00000  -0.00000   0.04461  -0.00000  -0.08761
  30        2PX        -0.09728  -0.50000  -0.00000  -0.34707   0.00000
  31        2PY         0.00000  -0.00000   0.08953  -0.00000  -0.18259
  32        2PZ        -0.00000   0.00000  -0.13693   0.00000   0.03119
  33 9   H  1S          0.00000   0.00000  -0.00744   0.00000   0.12089
  34 10  H  1S          0.00000  -0.00000   0.00744  -0.00000  -0.12089
  35 11  H  1S          0.00000   0.00000  -0.00744  -0.00000  -0.12089
  36 12  H  1S         -0.00000   0.00000   0.00744   0.00000   0.12089
                          21        22        23        24        25
                       (B2G)--V   (AU)--V  (B3U)--V  (B1U)--V  (B2G)--V
     Eigenvalues --    -0.08767   0.00565   0.02047   0.05835   0.07744
   1 1   O  1S          0.00000   0.00000  -0.00000   0.04619  -0.00000
   2        2PX         0.39727  -0.00000  -0.33355  -0.00000  -0.18955
   3        2PY         0.00000   0.00000  -0.00000   0.00000   0.00000
   4        2PZ        -0.00000  -0.00000   0.00000  -0.11804   0.00000
   5 2   O  1S         -0.00000   0.00000   0.00000  -0.04619  -0.00000
   6        2PX        -0.39727  -0.00000  -0.33355  -0.00000   0.18955
   7        2PY        -0.00000   0.00000  -0.00000  -0.00000  -0.00000
   8        2PZ        -0.00000   0.00000   0.00000  -0.11804  -0.00000
   9 3   C  1S         -0.00000  -0.00000   0.00000  -0.33827   0.00000
  10        2PX        -0.37926   0.00000   0.57130   0.00000   0.42584
  11        2PY        -0.00000   0.00000   0.00000  -0.00000  -0.00000
  12        2PZ        -0.00000  -0.00000  -0.00000   0.10527  -0.00000
  13 4   C  1S          0.00000  -0.00000  -0.00000   0.33827   0.00000
  14        2PX         0.37926   0.00000   0.57130   0.00000  -0.42584
  15        2PY         0.00000  -0.00000  -0.00000   0.00000   0.00000
  16        2PZ        -0.00000  -0.00000   0.00000   0.10527   0.00000
  17 5   C  1S          0.00000  -0.00000  -0.00000   0.35758   0.00000
  18        2PX        -0.31491   0.50000  -0.17658   0.00000  -0.37599
  19        2PY        -0.00000  -0.00000   0.00000  -0.09206   0.00000
  20        2PZ         0.00000  -0.00000  -0.00000  -0.01559  -0.00000
  21 6   C  1S         -0.00000  -0.00000   0.00000   0.35758  -0.00000
  22        2PX        -0.31491  -0.50000  -0.17658  -0.00000  -0.37599
  23        2PY         0.00000   0.00000  -0.00000   0.09206  -0.00000
  24        2PZ        -0.00000   0.00000   0.00000  -0.01559  -0.00000
  25 7   C  1S         -0.00000   0.00000   0.00000  -0.35758  -0.00000
  26        2PX         0.31491  -0.50000  -0.17658  -0.00000   0.37599
  27        2PY         0.00000  -0.00000  -0.00000   0.09206   0.00000
  28        2PZ         0.00000  -0.00000  -0.00000  -0.01559   0.00000
  29 8   C  1S          0.00000   0.00000  -0.00000  -0.35758   0.00000
  30        2PX         0.31491   0.50000  -0.17658   0.00000   0.37599
  31        2PY        -0.00000   0.00000   0.00000  -0.09206  -0.00000
  32        2PZ         0.00000  -0.00000  -0.00000  -0.01559   0.00000
  33 9   H  1S         -0.00000   0.00000   0.00000  -0.20647  -0.00000
  34 10  H  1S          0.00000   0.00000  -0.00000  -0.20647   0.00000
  35 11  H  1S         -0.00000  -0.00000  -0.00000   0.20647   0.00000
  36 12  H  1S         -0.00000  -0.00000  -0.00000   0.20647  -0.00000
                          26        27        28        29        30
                        (AG)--V  (B3G)--V  (B2U)--V   (AG)--V  (B1U)--V
     Eigenvalues --     0.09260   0.10019   0.17110   0.17764   0.20292
   1 1   O  1S         -0.06555   0.00000   0.00000   0.05917  -0.07154
   2        2PX         0.00000  -0.00000   0.00000  -0.00000   0.00000
   3        2PY         0.00000   0.07856  -0.03242   0.00000  -0.00000
   4        2PZ         0.14807  -0.00000  -0.00000  -0.14664   0.15479
   5 2   O  1S         -0.06555   0.00000   0.00000   0.05917   0.07154
   6        2PX        -0.00000  -0.00000  -0.00000  -0.00000   0.00000
   7        2PY        -0.00000  -0.07856  -0.03242   0.00000   0.00000
   8        2PZ        -0.14807   0.00000   0.00000   0.14664   0.15479
   9 3   C  1S          0.43847  -0.00000  -0.00000  -0.21211   0.29400
  10        2PX        -0.00000  -0.00000  -0.00000   0.00000  -0.00000
  11        2PY        -0.00000  -0.26335   0.24215  -0.00000  -0.00000
  12        2PZ        -0.08650   0.00000  -0.00000  -0.01793   0.03333
  13 4   C  1S          0.43847  -0.00000  -0.00000  -0.21211  -0.29400
  14        2PX         0.00000   0.00000  -0.00000   0.00000  -0.00000
  15        2PY         0.00000   0.26335   0.24215  -0.00000  -0.00000
  16        2PZ         0.08650  -0.00000  -0.00000   0.01793   0.03333
  17 5   C  1S         -0.23865   0.37890  -0.24211  -0.12414   0.10450
  18        2PX         0.00000   0.00000  -0.00000  -0.00000   0.00000
  19        2PY         0.14014   0.04741  -0.11438  -0.26434   0.33636
  20        2PZ        -0.20459  -0.08050  -0.21810  -0.09024  -0.07965
  21 6   C  1S         -0.23865  -0.37890   0.24211  -0.12414   0.10450
  22        2PX         0.00000   0.00000  -0.00000   0.00000  -0.00000
  23        2PY        -0.14014   0.04741  -0.11438   0.26434  -0.33636
  24        2PZ        -0.20459   0.08050   0.21810  -0.09024  -0.07965
  25 7   C  1S         -0.23865  -0.37890  -0.24211  -0.12414  -0.10450
  26        2PX        -0.00000  -0.00000   0.00000   0.00000   0.00000
  27        2PY         0.14014  -0.04741  -0.11438  -0.26434  -0.33636
  28        2PZ         0.20459  -0.08050   0.21810   0.09024  -0.07965
  29 8   C  1S         -0.23865   0.37890   0.24211  -0.12414  -0.10450
  30        2PX        -0.00000  -0.00000   0.00000  -0.00000   0.00000
  31        2PY        -0.14014  -0.04741  -0.11438   0.26434   0.33636
  32        2PZ         0.20459   0.08050  -0.21810   0.09024  -0.07965
  33 9   H  1S          0.13627  -0.24484   0.31764   0.34844  -0.24756
  34 10  H  1S          0.13627   0.24484  -0.31764   0.34844  -0.24756
  35 11  H  1S          0.13627   0.24484   0.31764   0.34844   0.24756
  36 12  H  1S          0.13627  -0.24484  -0.31764   0.34844   0.24756
                          31        32        33        34        35
                       (B3G)--V  (B1U)--V  (B2U)--V  (B3G)--V   (AG)--V
     Eigenvalues --     0.28758   0.32047   0.34448   0.40434   0.42768
   1 1   O  1S          0.00000   0.10018   0.00000  -0.00000  -0.19245
   2        2PX        -0.00000  -0.00000   0.00000  -0.00000  -0.00000
   3        2PY        -0.03078   0.00000  -0.03707   0.00704  -0.00000
   4        2PZ        -0.00000  -0.19310  -0.00000   0.00000   0.37599
   5 2   O  1S         -0.00000  -0.10018   0.00000   0.00000  -0.19245
   6        2PX         0.00000   0.00000   0.00000  -0.00000   0.00000
   7        2PY         0.03078  -0.00000  -0.03707  -0.00704   0.00000
   8        2PZ        -0.00000  -0.19310   0.00000   0.00000  -0.37599
   9 3   C  1S         -0.00000  -0.13986  -0.00000  -0.00000   0.08510
  10        2PX         0.00000   0.00000  -0.00000   0.00000   0.00000
  11        2PY         0.21166  -0.00000   0.44427  -0.36280   0.00000
  12        2PZ        -0.00000  -0.22577  -0.00000   0.00000   0.50978
  13 4   C  1S          0.00000   0.13986  -0.00000  -0.00000   0.08510
  14        2PX        -0.00000  -0.00000   0.00000   0.00000   0.00000
  15        2PY        -0.21166  -0.00000   0.44427   0.36280   0.00000
  16        2PZ        -0.00000  -0.22577   0.00000   0.00000  -0.50978
  17 5   C  1S         -0.08656  -0.11798  -0.09047  -0.04463   0.05404
  18        2PX         0.00000   0.00000   0.00000   0.00000   0.00000
  19        2PY         0.33717   0.12848   0.33155  -0.16010  -0.14843
  20        2PZ         0.20322   0.36493  -0.06755   0.39424   0.01569
  21 6   C  1S          0.08656  -0.11798   0.09047   0.04463   0.05404
  22        2PX        -0.00000  -0.00000   0.00000  -0.00000  -0.00000
  23        2PY         0.33717  -0.12848   0.33155  -0.16010   0.14843
  24        2PZ        -0.20322   0.36493   0.06755  -0.39424   0.01569
  25 7   C  1S          0.08656   0.11798  -0.09047   0.04463   0.05404
  26        2PX         0.00000  -0.00000   0.00000  -0.00000  -0.00000
  27        2PY        -0.33717  -0.12848   0.33155   0.16010  -0.14843
  28        2PZ         0.20322   0.36493   0.06755   0.39424  -0.01569
  29 8   C  1S         -0.08656   0.11798   0.09047  -0.04463   0.05404
  30        2PX         0.00000   0.00000   0.00000   0.00000   0.00000
  31        2PY        -0.33717   0.12848   0.33155   0.16010   0.14843
  32        2PZ        -0.20322   0.36493  -0.06755  -0.39424  -0.01569
  33 9   H  1S         -0.25426  -0.16575  -0.16719  -0.03344   0.04519
  34 10  H  1S          0.25426  -0.16575   0.16719   0.03344   0.04519
  35 11  H  1S          0.25426   0.16575  -0.16719   0.03344   0.04519
  36 12  H  1S         -0.25426   0.16575   0.16719  -0.03344   0.04519
                          36
                       (B1U)--V
     Eigenvalues --     0.48146
   1 1   O  1S         -0.16616
   2        2PX         0.00000
   3        2PY        -0.00000
   4        2PZ         0.32278
   5 2   O  1S          0.16616
   6        2PX        -0.00000
   7        2PY         0.00000
   8        2PZ         0.32278
   9 3   C  1S          0.02646
  10        2PX        -0.00000
  11        2PY         0.00000
  12        2PZ         0.46151
  13 4   C  1S         -0.02646
  14        2PX        -0.00000
  15        2PY        -0.00000
  16        2PZ         0.46151
  17 5   C  1S         -0.02839
  18        2PX        -0.00000
  19        2PY        -0.08877
  20        2PZ         0.25815
  21 6   C  1S         -0.02839
  22        2PX        -0.00000
  23        2PY         0.08877
  24        2PZ         0.25815
  25 7   C  1S          0.02839
  26        2PX         0.00000
  27        2PY         0.08877
  28        2PZ         0.25815
  29 8   C  1S          0.02839
  30        2PX         0.00000
  31        2PY        -0.08877
  32        2PZ         0.25815
  33 9   H  1S         -0.04396
  34 10  H  1S         -0.04396
  35 11  H  1S          0.04396
  36 12  H  1S          0.04396
     Density Matrix:
                           1         2         3         4         5
   1 1   O  1S          1.82054
   2        2PX        -0.00000   1.38999
   3        2PY        -0.00000  -0.00000   1.98081
   4        2PZ         0.36049  -0.00000   0.00000   1.27167
   5 2   O  1S          0.00013   0.00000  -0.00000   0.00247   1.82054
   6        2PX         0.00000   0.16500  -0.00000   0.00000  -0.00000
   7        2PY        -0.00000   0.00000   0.00948   0.00000  -0.00000
   8        2PZ        -0.00247   0.00000   0.00000   0.01085  -0.36049
   9 3   C  1S          0.22547  -0.00000   0.00000  -0.49802   0.00521
  10        2PX        -0.00000   0.84388   0.00000  -0.00000   0.00000
  11        2PY        -0.00000   0.00000   0.10815  -0.00000   0.00000
  12        2PZ         0.38064   0.00000   0.00000  -0.73357  -0.00666
  13 4   C  1S          0.00521  -0.00000   0.00000  -0.01408   0.22547
  14        2PX        -0.00000  -0.08166   0.00000  -0.00000   0.00000
  15        2PY        -0.00000   0.00000  -0.01087   0.00000  -0.00000
  16        2PZ         0.00666   0.00000  -0.00000  -0.00761  -0.38064
  17 5   C  1S          0.00033  -0.00000  -0.08664   0.01846   0.00809
  18        2PX         0.00000  -0.01012  -0.00000   0.00000   0.00000
  19        2PY        -0.00609  -0.00000   0.03273  -0.02635  -0.00886
  20        2PZ        -0.00739   0.00000   0.00046   0.01759  -0.01281
  21 6   C  1S          0.00033   0.00000   0.08664   0.01846   0.00809
  22        2PX         0.00000  -0.01012   0.00000  -0.00000  -0.00000
  23        2PY         0.00609   0.00000   0.03273   0.02635   0.00886
  24        2PZ        -0.00739   0.00000  -0.00046   0.01759  -0.01281
  25 7   C  1S          0.00809   0.00000   0.04182  -0.03121   0.00033
  26        2PX        -0.00000  -0.22547  -0.00000  -0.00000  -0.00000
  27        2PY        -0.00886  -0.00000   0.00161   0.01153  -0.00609
  28        2PZ         0.01281  -0.00000   0.03876  -0.02705   0.00739
  29 8   C  1S          0.00809   0.00000  -0.04182  -0.03121   0.00033
  30        2PX        -0.00000  -0.22547  -0.00000   0.00000  -0.00000
  31        2PY         0.00886   0.00000   0.00161  -0.01153   0.00609
  32        2PZ         0.01281  -0.00000  -0.03876  -0.02705   0.00739
  33 9   H  1S         -0.00372   0.00000   0.03149   0.02012  -0.00823
  34 10  H  1S         -0.00372  -0.00000  -0.03149   0.02012  -0.00823
  35 11  H  1S         -0.00823   0.00000  -0.01509   0.03560  -0.00372
  36 12  H  1S         -0.00823  -0.00000   0.01509   0.03560  -0.00372
                           6         7         8         9        10
   6        2PX         1.38999
   7        2PY        -0.00000   1.98081
   8        2PZ         0.00000  -0.00000   1.27167
   9 3   C  1S         -0.00000   0.00000   0.01408   1.06878
  10        2PX        -0.08166  -0.00000   0.00000   0.00000   0.69688
  11        2PY        -0.00000  -0.01087  -0.00000  -0.00000   0.00000
  12        2PZ        -0.00000  -0.00000  -0.00761  -0.05446  -0.00000
  13 4   C  1S          0.00000   0.00000   0.49802  -0.04674  -0.00000
  14        2PX         0.84388   0.00000  -0.00000   0.00000  -0.00242
  15        2PY         0.00000   0.10815  -0.00000  -0.00000  -0.00000
  16        2PZ        -0.00000   0.00000  -0.73357  -0.01743  -0.00000
  17 5   C  1S         -0.00000   0.04182   0.03121   0.29640   0.00000
  18        2PX        -0.22547  -0.00000   0.00000  -0.00000   0.28312
  19        2PY         0.00000   0.00161  -0.01153  -0.42920  -0.00000
  20        2PZ        -0.00000  -0.03876  -0.02705   0.26317  -0.00000
  21 6   C  1S         -0.00000  -0.04182   0.03121   0.29640   0.00000
  22        2PX        -0.22547  -0.00000   0.00000   0.00000   0.28312
  23        2PY        -0.00000   0.00161   0.01153   0.42920   0.00000
  24        2PZ         0.00000   0.03876  -0.02705   0.26317  -0.00000
  25 7   C  1S          0.00000  -0.08664  -0.01846  -0.00155  -0.00000
  26        2PX        -0.01012   0.00000   0.00000  -0.00000   0.12041
  27        2PY        -0.00000   0.03273   0.02635   0.00965  -0.00000
  28        2PZ         0.00000  -0.00046   0.01759  -0.01375   0.00000
  29 8   C  1S         -0.00000   0.08664  -0.01846  -0.00155   0.00000
  30        2PX        -0.01012   0.00000  -0.00000   0.00000   0.12041
  31        2PY        -0.00000   0.03273  -0.02635  -0.00965  -0.00000
  32        2PZ         0.00000   0.00046   0.01759  -0.01375   0.00000
  33 9   H  1S         -0.00000  -0.01509  -0.03560  -0.01753   0.00000
  34 10  H  1S          0.00000   0.01509  -0.03560  -0.01753  -0.00000
  35 11  H  1S          0.00000   0.03149  -0.02012   0.05879  -0.00000
  36 12  H  1S          0.00000  -0.03149  -0.02012   0.05879   0.00000
                          11        12        13        14        15
  11        2PY         0.99641
  12        2PZ        -0.00000   0.91233
  13 4   C  1S         -0.00000   0.01743   1.06878
  14        2PX         0.00000  -0.00000  -0.00000   0.69688
  15        2PY        -0.02047   0.00000  -0.00000   0.00000   0.99641
  16        2PZ        -0.00000  -0.01696   0.05446  -0.00000  -0.00000
  17 5   C  1S          0.40147  -0.21016  -0.00155   0.00000  -0.00619
  18        2PX         0.00000  -0.00000   0.00000   0.12041  -0.00000
  19        2PY        -0.47313   0.30301   0.00965   0.00000  -0.00528
  20        2PZ         0.32327  -0.11952   0.01375   0.00000   0.00801
  21 6   C  1S         -0.40147  -0.21016  -0.00155  -0.00000   0.00619
  22        2PX        -0.00000   0.00000  -0.00000   0.12041   0.00000
  23        2PY        -0.47313  -0.30301  -0.00965   0.00000  -0.00528
  24        2PZ        -0.32327  -0.11952   0.01375  -0.00000  -0.00801
  25 7   C  1S         -0.00619   0.00848   0.29640  -0.00000   0.40147
  26        2PX         0.00000   0.00000   0.00000   0.28312  -0.00000
  27        2PY        -0.00528   0.02919  -0.42920  -0.00000  -0.47313
  28        2PZ        -0.00801  -0.01028  -0.26317  -0.00000  -0.32327
  29 8   C  1S          0.00619   0.00848   0.29640   0.00000  -0.40147
  30        2PX        -0.00000  -0.00000  -0.00000   0.28312  -0.00000
  31        2PY        -0.00528  -0.02919   0.42920  -0.00000  -0.47313
  32        2PZ         0.00801  -0.01028  -0.26317   0.00000   0.32327
  33 9   H  1S         -0.05086   0.01571   0.05879   0.00000   0.04032
  34 10  H  1S          0.05086   0.01571   0.05879  -0.00000  -0.04032
  35 11  H  1S          0.04032  -0.03571  -0.01753   0.00000  -0.05086
  36 12  H  1S         -0.04032  -0.03571  -0.01753  -0.00000   0.05086
                          16        17        18        19        20
  16        2PZ         0.91233
  17 5   C  1S         -0.00848   1.10271
  18        2PX        -0.00000  -0.00000   0.95657
  19        2PY        -0.02919   0.05089  -0.00000   0.95577
  20        2PZ        -0.01028   0.02036  -0.00000   0.00879   0.97605
  21 6   C  1S         -0.00848  -0.01790   0.00000   0.02535  -0.00673
  22        2PX        -0.00000  -0.00000  -0.04343   0.00000  -0.00000
  23        2PY         0.02919  -0.02535  -0.00000  -0.01404  -0.02535
  24        2PZ        -0.01028  -0.00673   0.00000   0.02535  -0.00263
  25 7   C  1S          0.21016   0.32894  -0.00000  -0.00706  -0.49952
  26        2PX         0.00000  -0.00000   0.91871   0.00000  -0.00000
  27        2PY        -0.30301  -0.00706   0.00000   0.10602   0.00959
  28        2PZ        -0.11952   0.49952   0.00000  -0.00959  -0.61445
  29 8   C  1S          0.21016  -0.01604  -0.00000   0.00005  -0.00111
  30        2PX         0.00000   0.00000  -0.08129  -0.00000   0.00000
  31        2PY         0.30301  -0.00005  -0.00000  -0.03179  -0.01344
  32        2PZ        -0.11952   0.00111   0.00000  -0.01344  -0.01016
  33 9   H  1S          0.03571   0.56655   0.00000   0.69023   0.42127
  34 10  H  1S          0.03571   0.04237   0.00000  -0.04475   0.00877
  35 11  H  1S         -0.01571  -0.02611   0.00000  -0.00432   0.04511
  36 12  H  1S         -0.01571   0.00385  -0.00000  -0.00343  -0.00624
                          21        22        23        24        25
  21 6   C  1S          1.10271
  22        2PX        -0.00000   0.95657
  23        2PY        -0.05089  -0.00000   0.95577
  24        2PZ         0.02036  -0.00000  -0.00879   0.97605
  25 7   C  1S         -0.01604   0.00000  -0.00005  -0.00111   1.10271
  26        2PX        -0.00000  -0.08129   0.00000   0.00000  -0.00000
  27        2PY         0.00005  -0.00000  -0.03179   0.01344   0.05089
  28        2PZ         0.00111  -0.00000   0.01344  -0.01016  -0.02036
  29 8   C  1S          0.32894   0.00000   0.00706  -0.49952  -0.01790
  30        2PX        -0.00000   0.91871  -0.00000   0.00000  -0.00000
  31        2PY         0.00706  -0.00000   0.10602  -0.00959  -0.02535
  32        2PZ         0.49952   0.00000   0.00959  -0.61445   0.00673
  33 9   H  1S          0.04237  -0.00000   0.04475   0.00877  -0.02611
  34 10  H  1S          0.56655  -0.00000  -0.69023   0.42127   0.00385
  35 11  H  1S          0.00385   0.00000   0.00343  -0.00624   0.56655
  36 12  H  1S         -0.02611   0.00000   0.00432   0.04511   0.04237
                          26        27        28        29        30
  26        2PX         0.95657
  27        2PY        -0.00000   0.95577
  28        2PZ        -0.00000  -0.00879   0.97605
  29 8   C  1S          0.00000   0.02535   0.00673   1.10271
  30        2PX        -0.04343  -0.00000  -0.00000   0.00000   0.95657
  31        2PY        -0.00000  -0.01404   0.02535  -0.05089   0.00000
  32        2PZ         0.00000  -0.02535  -0.00263  -0.02036  -0.00000
  33 9   H  1S          0.00000  -0.00432  -0.04511   0.00385  -0.00000
  34 10  H  1S         -0.00000  -0.00343   0.00624  -0.02611   0.00000
  35 11  H  1S          0.00000   0.69023  -0.42127   0.04237   0.00000
  36 12  H  1S         -0.00000  -0.04475  -0.00877   0.56655  -0.00000
                          31        32        33        34        35
  31        2PY         0.95577
  32        2PZ         0.00879   0.97605
  33 9   H  1S          0.00343   0.00624   0.94019
  34 10  H  1S          0.00432  -0.04511  -0.04157   0.94019
  35 11  H  1S          0.04475  -0.00877  -0.02366  -0.01114   0.94019
  36 12  H  1S         -0.69023  -0.42127  -0.01114  -0.02366  -0.04157
                          36
  36 12  H  1S          0.94019
    Full Mulliken population analysis:
                           1         2         3         4         5
   1 1   O  1S          1.82054
   2        2PX         0.00000   1.38999
   3        2PY         0.00000   0.00000   1.98081
   4        2PZ         0.00000   0.00000   0.00000   1.27167
   5 2   O  1S          0.00000   0.00000   0.00000   0.00000   1.82054
   6        2PX         0.00000   0.00000   0.00000   0.00000   0.00000
   7        2PY         0.00000   0.00000   0.00000   0.00000   0.00000
   8        2PZ         0.00000   0.00000   0.00000   0.00000   0.00000
   9 3   C  1S          0.00000   0.00000   0.00000   0.00000   0.00000
  10        2PX         0.00000   0.00000   0.00000   0.00000   0.00000
  11        2PY         0.00000   0.00000   0.00000   0.00000   0.00000
  12        2PZ         0.00000   0.00000   0.00000   0.00000   0.00000
  13 4   C  1S          0.00000   0.00000   0.00000   0.00000   0.00000
  14        2PX         0.00000   0.00000   0.00000   0.00000   0.00000
  15        2PY         0.00000   0.00000   0.00000   0.00000   0.00000
  16        2PZ         0.00000   0.00000   0.00000   0.00000   0.00000
  17 5   C  1S          0.00000   0.00000   0.00000   0.00000   0.00000
  18        2PX         0.00000   0.00000   0.00000   0.00000   0.00000
  19        2PY         0.00000   0.00000   0.00000   0.00000   0.00000
  20        2PZ         0.00000   0.00000   0.00000   0.00000   0.00000
  21 6   C  1S          0.00000   0.00000   0.00000   0.00000   0.00000
  22        2PX         0.00000   0.00000   0.00000   0.00000   0.00000
  23        2PY         0.00000   0.00000   0.00000   0.00000   0.00000
  24        2PZ         0.00000   0.00000   0.00000   0.00000   0.00000
  25 7   C  1S          0.00000   0.00000   0.00000   0.00000   0.00000
  26        2PX         0.00000   0.00000   0.00000   0.00000   0.00000
  27        2PY         0.00000   0.00000   0.00000   0.00000   0.00000
  28        2PZ         0.00000   0.00000   0.00000   0.00000   0.00000
  29 8   C  1S          0.00000   0.00000   0.00000   0.00000   0.00000
  30        2PX         0.00000   0.00000   0.00000   0.00000   0.00000
  31        2PY         0.00000   0.00000   0.00000   0.00000   0.00000
  32        2PZ         0.00000   0.00000   0.00000   0.00000   0.00000
  33 9   H  1S          0.00000   0.00000   0.00000   0.00000   0.00000
  34 10  H  1S          0.00000   0.00000   0.00000   0.00000   0.00000
  35 11  H  1S          0.00000   0.00000   0.00000   0.00000   0.00000
  36 12  H  1S          0.00000   0.00000   0.00000   0.00000   0.00000
                           6         7         8         9        10
   6        2PX         1.38999
   7        2PY         0.00000   1.98081
   8        2PZ         0.00000   0.00000   1.27167
   9 3   C  1S          0.00000   0.00000   0.00000   1.06878
  10        2PX         0.00000   0.00000   0.00000   0.00000   0.69688
  11        2PY         0.00000   0.00000   0.00000   0.00000   0.00000
  12        2PZ         0.00000   0.00000   0.00000   0.00000   0.00000
  13 4   C  1S          0.00000   0.00000   0.00000   0.00000   0.00000
  14        2PX         0.00000   0.00000   0.00000   0.00000   0.00000
  15        2PY         0.00000   0.00000   0.00000   0.00000   0.00000
  16        2PZ         0.00000   0.00000   0.00000   0.00000   0.00000
  17 5   C  1S          0.00000   0.00000   0.00000   0.00000   0.00000
  18        2PX         0.00000   0.00000   0.00000   0.00000   0.00000
  19        2PY         0.00000   0.00000   0.00000   0.00000   0.00000
  20        2PZ         0.00000   0.00000   0.00000   0.00000   0.00000
  21 6   C  1S          0.00000   0.00000   0.00000   0.00000   0.00000
  22        2PX         0.00000   0.00000   0.00000   0.00000   0.00000
  23        2PY         0.00000   0.00000   0.00000   0.00000   0.00000
  24        2PZ         0.00000   0.00000   0.00000   0.00000   0.00000
  25 7   C  1S          0.00000   0.00000   0.00000   0.00000   0.00000
  26        2PX         0.00000   0.00000   0.00000   0.00000   0.00000
  27        2PY         0.00000   0.00000   0.00000   0.00000   0.00000
  28        2PZ         0.00000   0.00000   0.00000   0.00000   0.00000
  29 8   C  1S          0.00000   0.00000   0.00000   0.00000   0.00000
  30        2PX         0.00000   0.00000   0.00000   0.00000   0.00000
  31        2PY         0.00000   0.00000   0.00000   0.00000   0.00000
  32        2PZ         0.00000   0.00000   0.00000   0.00000   0.00000
  33 9   H  1S          0.00000   0.00000   0.00000   0.00000   0.00000
  34 10  H  1S          0.00000   0.00000   0.00000   0.00000   0.00000
  35 11  H  1S          0.00000   0.00000   0.00000   0.00000   0.00000
  36 12  H  1S          0.00000   0.00000   0.00000   0.00000   0.00000
                          11        12        13        14        15
  11        2PY         0.99641
  12        2PZ         0.00000   0.91233
  13 4   C  1S          0.00000   0.00000   1.06878
  14        2PX         0.00000   0.00000   0.00000   0.69688
  15        2PY         0.00000   0.00000   0.00000   0.00000   0.99641
  16        2PZ         0.00000   0.00000   0.00000   0.00000   0.00000
  17 5   C  1S          0.00000   0.00000   0.00000   0.00000   0.00000
  18        2PX         0.00000   0.00000   0.00000   0.00000   0.00000
  19        2PY         0.00000   0.00000   0.00000   0.00000   0.00000
  20        2PZ         0.00000   0.00000   0.00000   0.00000   0.00000
  21 6   C  1S          0.00000   0.00000   0.00000   0.00000   0.00000
  22        2PX         0.00000   0.00000   0.00000   0.00000   0.00000
  23        2PY         0.00000   0.00000   0.00000   0.00000   0.00000
  24        2PZ         0.00000   0.00000   0.00000   0.00000   0.00000
  25 7   C  1S          0.00000   0.00000   0.00000   0.00000   0.00000
  26        2PX         0.00000   0.00000   0.00000   0.00000   0.00000
  27        2PY         0.00000   0.00000   0.00000   0.00000   0.00000
  28        2PZ         0.00000   0.00000   0.00000   0.00000   0.00000
  29 8   C  1S          0.00000   0.00000   0.00000   0.00000   0.00000
  30        2PX         0.00000   0.00000   0.00000   0.00000   0.00000
  31        2PY         0.00000   0.00000   0.00000   0.00000   0.00000
  32        2PZ         0.00000   0.00000   0.00000   0.00000   0.00000
  33 9   H  1S          0.00000   0.00000   0.00000   0.00000   0.00000
  34 10  H  1S          0.00000   0.00000   0.00000   0.00000   0.00000
  35 11  H  1S          0.00000   0.00000   0.00000   0.00000   0.00000
  36 12  H  1S          0.00000   0.00000   0.00000   0.00000   0.00000
                          16        17        18        19        20
  16        2PZ         0.91233
  17 5   C  1S          0.00000   1.10271
  18        2PX         0.00000   0.00000   0.95657
  19        2PY         0.00000   0.00000   0.00000   0.95577
  20        2PZ         0.00000   0.00000   0.00000   0.00000   0.97605
  21 6   C  1S          0.00000   0.00000   0.00000   0.00000   0.00000
  22        2PX         0.00000   0.00000   0.00000   0.00000   0.00000
  23        2PY         0.00000   0.00000   0.00000   0.00000   0.00000
  24        2PZ         0.00000   0.00000   0.00000   0.00000   0.00000
  25 7   C  1S          0.00000   0.00000   0.00000   0.00000   0.00000
  26        2PX         0.00000   0.00000   0.00000   0.00000   0.00000
  27        2PY         0.00000   0.00000   0.00000   0.00000   0.00000
  28        2PZ         0.00000   0.00000   0.00000   0.00000   0.00000
  29 8   C  1S          0.00000   0.00000   0.00000   0.00000   0.00000
  30        2PX         0.00000   0.00000   0.00000   0.00000   0.00000
  31        2PY         0.00000   0.00000   0.00000   0.00000   0.00000
  32        2PZ         0.00000   0.00000   0.00000   0.00000   0.00000
  33 9   H  1S          0.00000   0.00000   0.00000   0.00000   0.00000
  34 10  H  1S          0.00000   0.00000   0.00000   0.00000   0.00000
  35 11  H  1S          0.00000   0.00000   0.00000   0.00000   0.00000
  36 12  H  1S          0.00000   0.00000   0.00000   0.00000   0.00000
                          21        22        23        24        25
  21 6   C  1S          1.10271
  22        2PX         0.00000   0.95657
  23        2PY         0.00000   0.00000   0.95577
  24        2PZ         0.00000   0.00000   0.00000   0.97605
  25 7   C  1S          0.00000   0.00000   0.00000   0.00000   1.10271
  26        2PX         0.00000   0.00000   0.00000   0.00000   0.00000
  27        2PY         0.00000   0.00000   0.00000   0.00000   0.00000
  28        2PZ         0.00000   0.00000   0.00000   0.00000   0.00000
  29 8   C  1S          0.00000   0.00000   0.00000   0.00000   0.00000
  30        2PX         0.00000   0.00000   0.00000   0.00000   0.00000
  31        2PY         0.00000   0.00000   0.00000   0.00000   0.00000
  32        2PZ         0.00000   0.00000   0.00000   0.00000   0.00000
  33 9   H  1S          0.00000   0.00000   0.00000   0.00000   0.00000
  34 10  H  1S          0.00000   0.00000   0.00000   0.00000   0.00000
  35 11  H  1S          0.00000   0.00000   0.00000   0.00000   0.00000
  36 12  H  1S          0.00000   0.00000   0.00000   0.00000   0.00000
                          26        27        28        29        30
  26        2PX         0.95657
  27        2PY         0.00000   0.95577
  28        2PZ         0.00000   0.00000   0.97605
  29 8   C  1S          0.00000   0.00000   0.00000   1.10271
  30        2PX         0.00000   0.00000   0.00000   0.00000   0.95657
  31        2PY         0.00000   0.00000   0.00000   0.00000   0.00000
  32        2PZ         0.00000   0.00000   0.00000   0.00000   0.00000
  33 9   H  1S          0.00000   0.00000   0.00000   0.00000   0.00000
  34 10  H  1S          0.00000   0.00000   0.00000   0.00000   0.00000
  35 11  H  1S          0.00000   0.00000   0.00000   0.00000   0.00000
  36 12  H  1S          0.00000   0.00000   0.00000   0.00000   0.00000
                          31        32        33        34        35
  31        2PY         0.95577
  32        2PZ         0.00000   0.97605
  33 9   H  1S          0.00000   0.00000   0.94019
  34 10  H  1S          0.00000   0.00000   0.00000   0.94019
  35 11  H  1S          0.00000   0.00000   0.00000   0.00000   0.94019
  36 12  H  1S          0.00000   0.00000   0.00000   0.00000   0.00000
                          36
  36 12  H  1S          0.94019
     Gross orbital populations:
                           1
   1 1   O  1S          1.82054
   2        2PX         1.38999
   3        2PY         1.98081
   4        2PZ         1.27167
   5 2   O  1S          1.82054
   6        2PX         1.38999
   7        2PY         1.98081
   8        2PZ         1.27167
   9 3   C  1S          1.06878
  10        2PX         0.69688
  11        2PY         0.99641
  12        2PZ         0.91233
  13 4   C  1S          1.06878
  14        2PX         0.69688
  15        2PY         0.99641
  16        2PZ         0.91233
  17 5   C  1S          1.10271
  18        2PX         0.95657
  19        2PY         0.95577
  20        2PZ         0.97605
  21 6   C  1S          1.10271
  22        2PX         0.95657
  23        2PY         0.95577
  24        2PZ         0.97605
  25 7   C  1S          1.10271
  26        2PX         0.95657
  27        2PY         0.95577
  28        2PZ         0.97605
  29 8   C  1S          1.10271
  30        2PX         0.95657
  31        2PY         0.95577
  32        2PZ         0.97605
  33 9   H  1S          0.94019
  34 10  H  1S          0.94019
  35 11  H  1S          0.94019
  36 12  H  1S          0.94019
          Condensed to atoms (all electrons):
               1          2          3          4          5          6
     1  O    6.463014   0.000000   0.000000   0.000000   0.000000   0.000000
     2  O    0.000000   6.463014   0.000000   0.000000   0.000000   0.000000
     3  C    0.000000   0.000000   3.674407   0.000000   0.000000   0.000000
     4  C    0.000000   0.000000   0.000000   3.674407   0.000000   0.000000
     5  C    0.000000   0.000000   0.000000   0.000000   3.991096   0.000000
     6  C    0.000000   0.000000   0.000000   0.000000   0.000000   3.991096
     7  C    0.000000   0.000000   0.000000   0.000000   0.000000   0.000000
     8  C    0.000000   0.000000   0.000000   0.000000   0.000000   0.000000
     9  H    0.000000   0.000000   0.000000   0.000000   0.000000   0.000000
    10  H    0.000000   0.000000   0.000000   0.000000   0.000000   0.000000
    11  H    0.000000   0.000000   0.000000   0.000000   0.000000   0.000000
    12  H    0.000000   0.000000   0.000000   0.000000   0.000000   0.000000
               7          8          9         10         11         12
     1  O    0.000000   0.000000   0.000000   0.000000   0.000000   0.000000
     2  O    0.000000   0.000000   0.000000   0.000000   0.000000   0.000000
     3  C    0.000000   0.000000   0.000000   0.000000   0.000000   0.000000
     4  C    0.000000   0.000000   0.000000   0.000000   0.000000   0.000000
     5  C    0.000000   0.000000   0.000000   0.000000   0.000000   0.000000
     6  C    0.000000   0.000000   0.000000   0.000000   0.000000   0.000000
     7  C    3.991096   0.000000   0.000000   0.000000   0.000000   0.000000
     8  C    0.000000   3.991096   0.000000   0.000000   0.000000   0.000000
     9  H    0.000000   0.000000   0.940194   0.000000   0.000000   0.000000
    10  H    0.000000   0.000000   0.000000   0.940194   0.000000   0.000000
    11  H    0.000000   0.000000   0.000000   0.000000   0.940194   0.000000
    12  H    0.000000   0.000000   0.000000   0.000000   0.000000   0.940194
 Mulliken charges:
               1
     1  O   -0.463014
     2  O   -0.463014
     3  C    0.325593
     4  C    0.325593
     5  C    0.008904
     6  C    0.008904
     7  C    0.008904
     8  C    0.008904
     9  H    0.059806
    10  H    0.059806
    11  H    0.059806
    12  H    0.059806
 Sum of Mulliken charges =  -0.00000
 Mulliken charges with hydrogens summed into heavy atoms:
               1
     1  O   -0.463014
     2  O   -0.463014
     3  C    0.325593
     4  C    0.325593
     5  C    0.068711
     6  C    0.068711
     7  C    0.068711
     8  C    0.068711
 Charge=             -0.0000 electrons
 Dipole moment (field-independent basis, Debye):
    X=              0.0000    Y=             -0.0000    Z=             -0.0000  Tot=              0.0000
 N-N= 1.137021362865D+02 E-N= 0.000000000000D+00  KE=-3.158578566996D+02
 Symmetry AG   KE=-8.156146198603D+01
 Symmetry B1G  KE=-1.518730558573D+01
 Symmetry B2G  KE=-1.558363705486D+01
 Symmetry B3G  KE=-4.592177179008D+01
 Symmetry AU   KE= 4.624859853809D-16
 Symmetry B1U  KE=-6.419834377293D+01
 Symmetry B2U  KE=-6.250207635112D+01
 Symmetry B3U  KE=-3.090326015881D+01
 Orbital energies and kinetic energies (alpha):
                                 1                 2
   1         (AG)--O          -1.665018         -8.823404
   2         (B1U)--O         -1.581507         -8.736421
   3         (AG)--O          -1.444223         -8.601081
   4         (B2U)--O         -1.266107         -8.256005
   5         (B1U)--O         -1.008080         -8.127329
   6         (B3G)--O         -0.985098         -7.991808
   7         (AG)--O          -0.933104         -7.875183
   8         (B2U)--O         -0.741862         -8.000515
   9         (AG)--O          -0.710262         -7.799494
  10         (B1U)--O         -0.646940         -7.505484
  11         (B2U)--O         -0.610577         -7.407836
  12         (B1U)--O         -0.582333         -7.729938
  13         (B3U)--O         -0.567566         -7.837904
  14         (AG)--O          -0.538661         -7.681569
  15         (B3G)--O         -0.530879         -7.444078
  16         (B2G)--O         -0.503387         -7.791819
  17         (B1G)--O         -0.395669         -7.593653
  18         (B2U)--O         -0.394326         -7.586682
  19         (B3U)--O         -0.388259         -7.613726
  20         (B3G)--O         -0.387911         -7.525000
  21         (B2G)--V         -0.087671         -7.565489
  22         (AU)--V           0.005649         -7.405695
  23         (B3U)--V          0.020466         -7.556809
  24         (B1U)--V          0.058348         -7.163327
  25         (B2G)--V          0.077443         -7.434559
  26         (AG)--V           0.092603         -7.286190
  27         (B3G)--V          0.100189         -7.027812
  28         (B2U)--V          0.171103         -6.785794
  29         (AG)--V           0.177638         -6.678433
  30         (B1U)--V          0.202922         -6.955047
  31         (B3G)--V          0.287576         -6.842761
  32         (B1U)--V          0.320469         -6.991453
  33         (B2U)--V          0.344482         -7.017759
  34         (B3G)--V          0.404341         -7.059399
  35         (AG)--V           0.427681         -7.092478
  36         (B1U)--V          0.481459         -7.014945
 Total kinetic energy from orbitals=-3.158578566996D+02
 1\1\GINC-GTX1080DELTA\SP\RZINDO\STO-3G\C6H4O2\MVEROT\11-Apr-2022\0\\#n
  ZINDO(NSTATE=10) pop=full gfinput\\UV-spectra\\0,1\O,0,2.6884949,0.,0
 .\O,0,-2.6884949,0.,0.\C,0,1.4529083,0.,0.\C,0,-1.4529083,0.,0.\C,0,0.
 6690595,0.,-1.254776\C,0,0.6690595,0.,1.254776\C,0,-0.6690595,0.,-1.25
 4776\C,0,-0.6690595,0.,1.254776\H,0,1.2578352,0.,-2.18723\H,0,1.257835
 2,0.,2.18723\H,0,-1.2578352,0.,-2.18723\H,0,-1.2578352,0.,2.18723\\Ver
 sion=AM64L-G09RevD.01\State=1-AG\HF=-60.1085623\RMSD=6.548e-09\PG=D02H
  [C2"(O1C1.C1O1),SG(C4H4)]\\@


            ARSENIC

 FOR SMELTER FUMES HAVE I BEEN NAMED,
    I AM AN EVIL POISONOUS SMOKE...
 BUT WHEN FROM POISON I AM FREED,
    THROUGH ART AND SLEIGHT OF HAND,
 THEN CAN I CURE BOTH MAN AND BEAST,
    FROM DIRE DISEASE OFTTIMES DIRECT THEM;
 BUT PREPARE ME CORRECTLY, AND TAKE GREAT CARE
    THAT YOU FAITHFULLY KEEP WATCHFUL GUARD OVER ME;
 FOR ELSE I AM POISON, AND POISON REMAIN,
    THAT PIERCES THE HEART OF MANY A ONE.

 ATTRIBUTED TO THE PROBABLY MYTHICAL 15TH
 CENTURY MONK, BASILIUS VALENTINUS
 Job cpu time:       0 days  0 hours  0 minutes  1.5 seconds.
 File lengths (MBytes):  RWF=    142 Int=      0 D2E=      0 Chk=      3 Scr=      2
 Normal termination of Gaussian 09 at Mon Apr 11 19:19:53 2022.
