 Entering Gaussian System, Link 0=g09
 Input=/scratch/mverot/1-4-butanediol-open-opt/1-4-butanediol-open-opt.com
 Output=/scratch/mverot/1-4-butanediol-open-opt/1-4-butanediol-open-opt.log
 Initial command:
 /opt/g09/l1.exe "/scratch/mverot/1-4-butanediol-open-opt/Gau-1477050.inp" -scrdir="/scratch/mverot/1-4-butanediol-open-opt/"
 Entering Link 1 = /opt/g09/l1.exe PID=   1477052.
  
 Copyright (c) 1988,1990,1992,1993,1995,1998,2003,2009,2013,
            Gaussian, Inc.  All Rights Reserved.
  
 This is part of the Gaussian(R) 09 program.  It is based on
 the Gaussian(R) 03 system (copyright 2003, Gaussian, Inc.),
 the Gaussian(R) 98 system (copyright 1998, Gaussian, Inc.),
 the Gaussian(R) 94 system (copyright 1995, Gaussian, Inc.),
 the Gaussian 92(TM) system (copyright 1992, Gaussian, Inc.),
 the Gaussian 90(TM) system (copyright 1990, Gaussian, Inc.),
 the Gaussian 88(TM) system (copyright 1988, Gaussian, Inc.),
 the Gaussian 86(TM) system (copyright 1986, Carnegie Mellon
 University), and the Gaussian 82(TM) system (copyright 1983,
 Carnegie Mellon University). Gaussian is a federally registered
 trademark of Gaussian, Inc.
  
 This software contains proprietary and confidential information,
 including trade secrets, belonging to Gaussian, Inc.
  
 This software is provided under written license and may be
 used, copied, transmitted, or stored only in accord with that
 written license.
  
 The following legend is applicable only to US Government
 contracts under FAR:
  
                    RESTRICTED RIGHTS LEGEND
  
 Use, reproduction and disclosure by the US Government is
 subject to restrictions as set forth in subparagraphs (a)
 and (c) of the Commercial Computer Software - Restricted
 Rights clause in FAR 52.227-19.
  
 Gaussian, Inc.
 340 Quinnipiac St., Bldg. 40, Wallingford CT 06492
  
  
 ---------------------------------------------------------------
 Warning -- This program may not be used in any manner that
 competes with the business of Gaussian, Inc. or will provide
 assistance to any competitor of Gaussian, Inc.  The licensee
 of this program is prohibited from giving any competitor of
 Gaussian, Inc. access to this program.  By using this program,
 the user acknowledges that Gaussian, Inc. is engaged in the
 business of creating and licensing software in the field of
 computational chemistry and represents and warrants to the
 licensee that it is not a competitor of Gaussian, Inc. and that
 it will not use this program in any manner prohibited above.
 ---------------------------------------------------------------
  

 Cite this work as:
 Gaussian 09, Revision D.01,
 M. J. Frisch, G. W. Trucks, H. B. Schlegel, G. E. Scuseria, 
 M. A. Robb, J. R. Cheeseman, G. Scalmani, V. Barone, B. Mennucci, 
 G. A. Petersson, H. Nakatsuji, M. Caricato, X. Li, H. P. Hratchian, 
 A. F. Izmaylov, J. Bloino, G. Zheng, J. L. Sonnenberg, M. Hada, 
 M. Ehara, K. Toyota, R. Fukuda, J. Hasegawa, M. Ishida, T. Nakajima, 
 Y. Honda, O. Kitao, H. Nakai, T. Vreven, J. A. Montgomery, Jr., 
 J. E. Peralta, F. Ogliaro, M. Bearpark, J. J. Heyd, E. Brothers, 
 K. N. Kudin, V. N. Staroverov, T. Keith, R. Kobayashi, J. Normand, 
 K. Raghavachari, A. Rendell, J. C. Burant, S. S. Iyengar, J. Tomasi, 
 M. Cossi, N. Rega, J. M. Millam, M. Klene, J. E. Knox, J. B. Cross, 
 V. Bakken, C. Adamo, J. Jaramillo, R. Gomperts, R. E. Stratmann, 
 O. Yazyev, A. J. Austin, R. Cammi, C. Pomelli, J. W. Ochterski, 
 R. L. Martin, K. Morokuma, V. G. Zakrzewski, G. A. Voth, 
 P. Salvador, J. J. Dannenberg, S. Dapprich, A. D. Daniels, 
 O. Farkas, J. B. Foresman, J. V. Ortiz, J. Cioslowski, 
 and D. J. Fox, Gaussian, Inc., Wallingford CT, 2013.
 
 ******************************************
 Gaussian 09:  AM64L-G09RevD.01 24-Apr-2013
                17-Apr-2022 
 ******************************************
 %chk=1-4-butanediol-open-opt
 ----------
 #n PM3 Opt
 ----------
 1/14=-1,18=20,19=15,26=1,38=1/1,3;
 2/9=110,12=2,17=6,18=5,40=1/2;
 3/5=2,16=1,25=1,41=800000,71=1/1,2,3;
 4/35=1/1;
 5/5=2,35=1,38=5/2;
 6/7=2,8=2,9=2,10=2,28=1/1;
 7//1,2,3,16;
 1/14=-1,18=20,19=15,26=1/3(2);
 2/9=110/2;
 99//99;
 2/9=110/2;
 3/5=2,16=1,25=1,41=800000,71=1,135=20/1,2,3;
 4/5=5,16=3,35=1/1;
 5/5=2,35=1,38=5/2;
 7//1,2,3,16;
 1/14=-1,18=20,19=15,26=1/3(-5);
 2/9=110/2;
 6/7=2,8=2,9=2,10=2,19=2,28=1/1;
 99/9=1/99;
 -------------------------
 Optimisation de geometrie
 -------------------------
 Symbolic Z-matrix:
 Charge =  0 Multiplicity = 1
 C                     1.86044   1.2563    1.75226 
 C                     1.19501   1.01015   3.10498 
 O                     0.61456  -0.28906   3.15807 
 C                     3.17259   0.4746    1.58556 
 C                     4.40977   1.31124   1.90304 
 O                     4.94461   1.81958   0.68742 
 H                     2.0354    2.33026   1.61933 
 H                     1.16754   0.93821   0.96397 
 H                     0.38356   1.72792   3.25625 
 H                     1.90135   1.11531   3.93431 
 H                     1.31089  -0.94627   3.01125 
 H                     3.23222   0.11378   0.55156 
 H                     3.1716   -0.40732   2.2338 
 H                     5.17359   0.68166   2.37058 
 H                     4.19425   2.15114   2.57076 
 H                     5.8891    1.9983    0.83809 
 

 GradGradGradGradGradGradGradGradGradGradGradGradGradGradGradGradGradGrad
 Berny optimization.
 Initialization pass.
                           ----------------------------
                           !    Initial Parameters    !
                           ! (Angstroms and Degrees)  !
 --------------------------                            --------------------------
 ! Name  Definition              Value          Derivative Info.                !
 --------------------------------------------------------------------------------
 ! R1    R(1,2)                  1.5275         estimate D2E/DX2                !
 ! R2    R(1,4)                  1.5364         estimate D2E/DX2                !
 ! R3    R(1,7)                  1.0962         estimate D2E/DX2                !
 ! R4    R(1,8)                  1.0967         estimate D2E/DX2                !
 ! R5    R(2,3)                  1.424          estimate D2E/DX2                !
 ! R6    R(2,9)                  1.0939         estimate D2E/DX2                !
 ! R7    R(2,10)                 1.0944         estimate D2E/DX2                !
 ! R8    R(3,11)                 0.9687         estimate D2E/DX2                !
 ! R9    R(4,5)                  1.5269         estimate D2E/DX2                !
 ! R10   R(4,12)                 1.0968         estimate D2E/DX2                !
 ! R11   R(4,13)                 1.0945         estimate D2E/DX2                !
 ! R12   R(5,6)                  1.422          estimate D2E/DX2                !
 ! R13   R(5,14)                 1.0947         estimate D2E/DX2                !
 ! R14   R(5,15)                 1.0944         estimate D2E/DX2                !
 ! R15   R(6,16)                 0.973          estimate D2E/DX2                !
 ! A1    A(2,1,4)              112.7147         estimate D2E/DX2                !
 ! A2    A(2,1,7)              109.56           estimate D2E/DX2                !
 ! A3    A(2,1,8)              108.3351         estimate D2E/DX2                !
 ! A4    A(4,1,7)              110.4256         estimate D2E/DX2                !
 ! A5    A(4,1,8)              108.3025         estimate D2E/DX2                !
 ! A6    A(7,1,8)              107.3279         estimate D2E/DX2                !
 ! A7    A(1,2,3)              110.9542         estimate D2E/DX2                !
 ! A8    A(1,2,9)              109.8702         estimate D2E/DX2                !
 ! A9    A(1,2,10)             111.9892         estimate D2E/DX2                !
 ! A10   A(3,2,9)              106.9266         estimate D2E/DX2                !
 ! A11   A(3,2,10)             108.8141         estimate D2E/DX2                !
 ! A12   A(9,2,10)             108.1152         estimate D2E/DX2                !
 ! A13   A(2,3,11)             108.6836         estimate D2E/DX2                !
 ! A14   A(1,4,5)              112.995          estimate D2E/DX2                !
 ! A15   A(1,4,12)             108.4274         estimate D2E/DX2                !
 ! A16   A(1,4,13)             110.1769         estimate D2E/DX2                !
 ! A17   A(5,4,12)             109.4046         estimate D2E/DX2                !
 ! A18   A(5,4,13)             108.6079         estimate D2E/DX2                !
 ! A19   A(12,4,13)            107.0573         estimate D2E/DX2                !
 ! A20   A(4,5,6)              108.8369         estimate D2E/DX2                !
 ! A21   A(4,5,14)             109.8178         estimate D2E/DX2                !
 ! A22   A(4,5,15)             112.8183         estimate D2E/DX2                !
 ! A23   A(6,5,14)             107.9543         estimate D2E/DX2                !
 ! A24   A(6,5,15)             108.7404         estimate D2E/DX2                !
 ! A25   A(14,5,15)            108.5538         estimate D2E/DX2                !
 ! A26   A(5,6,16)             107.3602         estimate D2E/DX2                !
 ! D1    D(4,1,2,3)            -73.1206         estimate D2E/DX2                !
 ! D2    D(4,1,2,9)            168.8516         estimate D2E/DX2                !
 ! D3    D(4,1,2,10)            48.6869         estimate D2E/DX2                !
 ! D4    D(7,1,2,3)            163.4962         estimate D2E/DX2                !
 ! D5    D(7,1,2,9)             45.4684         estimate D2E/DX2                !
 ! D6    D(7,1,2,10)           -74.6963         estimate D2E/DX2                !
 ! D7    D(8,1,2,3)             46.7057         estimate D2E/DX2                !
 ! D8    D(8,1,2,9)            -71.3222         estimate D2E/DX2                !
 ! D9    D(8,1,2,10)           168.5132         estimate D2E/DX2                !
 ! D10   D(2,1,4,5)            -97.1911         estimate D2E/DX2                !
 ! D11   D(2,1,4,12)           141.3546         estimate D2E/DX2                !
 ! D12   D(2,1,4,13)            24.4934         estimate D2E/DX2                !
 ! D13   D(7,1,4,5)             25.7098         estimate D2E/DX2                !
 ! D14   D(7,1,4,12)           -95.7445         estimate D2E/DX2                !
 ! D15   D(7,1,4,13)           147.3942         estimate D2E/DX2                !
 ! D16   D(8,1,4,5)            142.9638         estimate D2E/DX2                !
 ! D17   D(8,1,4,12)            21.5095         estimate D2E/DX2                !
 ! D18   D(8,1,4,13)           -95.3517         estimate D2E/DX2                !
 ! D19   D(1,2,3,11)            59.2282         estimate D2E/DX2                !
 ! D20   D(9,2,3,11)           179.0289         estimate D2E/DX2                !
 ! D21   D(10,2,3,11)          -64.4171         estimate D2E/DX2                !
 ! D22   D(1,4,5,6)            -96.985          estimate D2E/DX2                !
 ! D23   D(1,4,5,14)           145.0361         estimate D2E/DX2                !
 ! D24   D(1,4,5,15)            23.8            estimate D2E/DX2                !
 ! D25   D(12,4,5,6)            23.9158         estimate D2E/DX2                !
 ! D26   D(12,4,5,14)          -94.0631         estimate D2E/DX2                !
 ! D27   D(12,4,5,15)          144.7008         estimate D2E/DX2                !
 ! D28   D(13,4,5,6)           140.4509         estimate D2E/DX2                !
 ! D29   D(13,4,5,14)           22.472          estimate D2E/DX2                !
 ! D30   D(13,4,5,15)          -98.7641         estimate D2E/DX2                !
 ! D31   D(4,5,6,16)          -155.6603         estimate D2E/DX2                !
 ! D32   D(14,5,6,16)          -36.5104         estimate D2E/DX2                !
 ! D33   D(15,5,6,16)           81.0799         estimate D2E/DX2                !
 --------------------------------------------------------------------------------
 Trust Radius=3.00D-01 FncErr=1.00D-07 GrdErr=1.00D-07
 Number of steps in this run=     84 maximum allowed number of steps=    100.
 GradGradGradGradGradGradGradGradGradGradGradGradGradGradGradGradGradGrad

                          Input orientation:                          
 ---------------------------------------------------------------------
 Center     Atomic      Atomic             Coordinates (Angstroms)
 Number     Number       Type             X           Y           Z
 ---------------------------------------------------------------------
      1          6           0        1.860440    1.256300    1.752260
      2          6           0        1.195010    1.010150    3.104980
      3          8           0        0.614560   -0.289060    3.158070
      4          6           0        3.172590    0.474600    1.585560
      5          6           0        4.409770    1.311240    1.903040
      6          8           0        4.944610    1.819580    0.687420
      7          1           0        2.035400    2.330260    1.619330
      8          1           0        1.167540    0.938210    0.963970
      9          1           0        0.383560    1.727920    3.256250
     10          1           0        1.901350    1.115310    3.934310
     11          1           0        1.310890   -0.946270    3.011250
     12          1           0        3.232220    0.113780    0.551560
     13          1           0        3.171600   -0.407320    2.233800
     14          1           0        5.173590    0.681660    2.370580
     15          1           0        4.194250    2.151140    2.570760
     16          1           0        5.889100    1.998300    0.838090
 ---------------------------------------------------------------------
                    Distance matrix (angstroms):
                    1          2          3          4          5
     1  C    0.000000
     2  C    1.527494   0.000000
     3  O    2.432418   1.423969   0.000000
     4  C    1.536418   2.550740   3.098303   0.000000
     5  C    2.554376   3.445286   4.305773   1.526884   0.000000
     6  O    3.311083   4.534234   5.412930   2.399100   1.422039
     7  H    1.096208   2.157800   3.353706   2.176652   2.599332
     8  H    1.096674   2.142394   2.574112   2.149775   3.396036
     9  H    2.159997   1.093859   2.032537   3.484351   4.267923
    10  H    2.186983   1.094424   2.056850   2.746486   3.233669
    11  H    2.595838   1.962089   0.968688   2.741786   3.990932
    12  H    2.151468   3.387279   3.715955   1.096769   2.155698
    13  H    2.172246   2.583618   2.721528   1.094531   2.143809
    14  H    3.418990   4.059107   4.727282   2.159428   1.094708
    15  H    2.630086   3.253105   4.371921   2.196633   1.094409
    16  H    4.197186   5.305630   6.199604   3.203092   1.947970
                    6          7          8          9         10
     6  O    0.000000
     7  H    3.097217   0.000000
     8  H    3.888387   1.766488   0.000000
     9  H    5.235501   2.402269   2.548100   0.000000
    10  H    4.505521   2.617863   3.064761   1.771650   0.000000
    11  H    5.123869   3.632906   2.786246   2.840996   2.334694
    12  H    2.420845   2.735927   2.261121   4.246841   3.770580
    13  H    3.239435   3.027023   2.727485   3.657570   2.612216
    14  H    2.044583   3.623602   4.253564   4.982315   3.652514
    15  H    2.054250   2.365996   3.635099   3.894916   2.861748
    16  H    0.972987   3.946079   4.840740   6.019267   5.125271
                   11         12         13         14         15
    11  H    0.000000
    12  H    3.296254   0.000000
    13  H    2.087376   1.762144   0.000000
    14  H    4.240409   2.720338   2.283101   0.000000
    15  H    4.254615   3.025476   2.775801   1.777231   0.000000
    16  H    5.861154   3.269943   3.888421   2.143367   2.428584
                   16
    16  H    0.000000
 Stoichiometry    C4H10O2
 Framework group  C1[X(C4H10O2)]
 Deg. of freedom    42
 Full point group                 C1      NOp   1
 Largest Abelian subgroup         C1      NOp   1
 Largest concise Abelian subgroup C1      NOp   1
                         Standard orientation:                         
 ---------------------------------------------------------------------
 Center     Atomic      Atomic             Coordinates (Angstroms)
 Number     Number       Type             X           Y           Z
 ---------------------------------------------------------------------
      1          6           0       -0.539818    0.674504   -0.461990
      2          6           0       -1.748685    0.491729    0.453692
      3          8           0       -2.640163   -0.487805   -0.069248
      4          6           0        0.441218   -0.505865   -0.392125
      5          6           0        1.614012   -0.251647    0.551961
      6          8           0        2.727196    0.198891   -0.209638
      7          1           0       -0.028960    1.611811   -0.212690
      8          1           0       -0.899233    0.762958   -1.494312
      9          1           0       -2.309072    1.428719    0.521112
     10          1           0       -1.455128    0.197198    1.466036
     11          1           0       -2.163872   -1.327021   -0.154221
     12          1           0        0.822006   -0.700429   -1.402099
     13          1           0       -0.080078   -1.411204   -0.065613
     14          1           0        1.900001   -1.184592    1.048157
     15          1           0        1.387240    0.495379    1.318941
     16          1           0        3.530465   -0.013833    0.296537
 ---------------------------------------------------------------------
 Rotational constants (GHZ):     10.3552615      1.4151203      1.3884146
 Standard basis: VSTO-6G (5D, 7F)
 There are    34 symmetry adapted cartesian basis functions of A   symmetry.
 There are    34 symmetry adapted basis functions of A   symmetry.
    34 basis functions,   204 primitive gaussians,    34 cartesian basis functions
    19 alpha electrons       19 beta electrons
       nuclear repulsion energy       172.0718162815 Hartrees.
 Integral buffers will be    131072 words long.
 Regular integral format.
 Two-electron integral symmetry is turned off.
 Do NDO integrals.
 One-electron integrals computed using PRISM.
 NBasis=    34 RedAO= F EigKep=  0.00D+00  NBF=    34
 NBsUse=    34 1.00D-04 EigRej=  0.00D+00 NBFU=    34
 Simple Huckel Guess.
 Overlap will be assumed to be unity.
 Keep J ints in memory in canonical form, NReq=895124.
 Requested convergence on RMS density matrix=1.00D-08 within 128 cycles.
 Requested convergence on MAX density matrix=1.00D-06.
 Requested convergence on             energy=1.00D-06.
 No special actions if energy rises.
 SCF Done:  E(RPM3) = -0.164665707142     A.U. after   13 cycles
            NFock= 12  Conv=0.65D-08     -V/T= 0.9938

 **********************************************************************

            Population analysis using the SCF density.

 **********************************************************************

 Orbital symmetries:
       Occupied  (A) (A) (A) (A) (A) (A) (A) (A) (A) (A) (A) (A)
                 (A) (A) (A) (A) (A) (A) (A)
       Virtual   (A) (A) (A) (A) (A) (A) (A) (A) (A) (A) (A) (A)
                 (A) (A) (A)
 The electronic state is 1-A.
 Alpha  occ. eigenvalues --   -1.47707  -1.37856  -1.21964  -1.01694  -0.86108
 Alpha  occ. eigenvalues --   -0.75800  -0.67628  -0.64559  -0.60769  -0.59334
 Alpha  occ. eigenvalues --   -0.56293  -0.53781  -0.51333  -0.49110  -0.46996
 Alpha  occ. eigenvalues --   -0.44906  -0.43695  -0.41008  -0.40923
 Alpha virt. eigenvalues --    0.11023   0.11781   0.12813   0.13043   0.13352
 Alpha virt. eigenvalues --    0.13895   0.14288   0.14808   0.15641   0.15968
 Alpha virt. eigenvalues --    0.17084   0.17794   0.18025   0.20015   0.20635
          Condensed to atoms (all electrons):
               1          2          3          4          5          6
     1  C    4.148285   0.000000   0.000000   0.000000   0.000000   0.000000
     2  C    0.000000   3.930801   0.000000   0.000000   0.000000   0.000000
     3  O    0.000000   0.000000   6.321456   0.000000   0.000000   0.000000
     4  C    0.000000   0.000000   0.000000   4.114235   0.000000   0.000000
     5  C    0.000000   0.000000   0.000000   0.000000   3.925572   0.000000
     6  O    0.000000   0.000000   0.000000   0.000000   0.000000   6.318758
     7  H    0.000000   0.000000   0.000000   0.000000   0.000000   0.000000
     8  H    0.000000   0.000000   0.000000   0.000000   0.000000   0.000000
     9  H    0.000000   0.000000   0.000000   0.000000   0.000000   0.000000
    10  H    0.000000   0.000000   0.000000   0.000000   0.000000   0.000000
    11  H    0.000000   0.000000   0.000000   0.000000   0.000000   0.000000
    12  H    0.000000   0.000000   0.000000   0.000000   0.000000   0.000000
    13  H    0.000000   0.000000   0.000000   0.000000   0.000000   0.000000
    14  H    0.000000   0.000000   0.000000   0.000000   0.000000   0.000000
    15  H    0.000000   0.000000   0.000000   0.000000   0.000000   0.000000
    16  H    0.000000   0.000000   0.000000   0.000000   0.000000   0.000000
               7          8          9         10         11         12
     1  C    0.000000   0.000000   0.000000   0.000000   0.000000   0.000000
     2  C    0.000000   0.000000   0.000000   0.000000   0.000000   0.000000
     3  O    0.000000   0.000000   0.000000   0.000000   0.000000   0.000000
     4  C    0.000000   0.000000   0.000000   0.000000   0.000000   0.000000
     5  C    0.000000   0.000000   0.000000   0.000000   0.000000   0.000000
     6  O    0.000000   0.000000   0.000000   0.000000   0.000000   0.000000
     7  H    0.930485   0.000000   0.000000   0.000000   0.000000   0.000000
     8  H    0.000000   0.933835   0.000000   0.000000   0.000000   0.000000
     9  H    0.000000   0.000000   0.943340   0.000000   0.000000   0.000000
    10  H    0.000000   0.000000   0.000000   0.975136   0.000000   0.000000
    11  H    0.000000   0.000000   0.000000   0.000000   0.813250   0.000000
    12  H    0.000000   0.000000   0.000000   0.000000   0.000000   0.927469
    13  H    0.000000   0.000000   0.000000   0.000000   0.000000   0.000000
    14  H    0.000000   0.000000   0.000000   0.000000   0.000000   0.000000
    15  H    0.000000   0.000000   0.000000   0.000000   0.000000   0.000000
    16  H    0.000000   0.000000   0.000000   0.000000   0.000000   0.000000
              13         14         15         16
     1  C    0.000000   0.000000   0.000000   0.000000
     2  C    0.000000   0.000000   0.000000   0.000000
     3  O    0.000000   0.000000   0.000000   0.000000
     4  C    0.000000   0.000000   0.000000   0.000000
     5  C    0.000000   0.000000   0.000000   0.000000
     6  O    0.000000   0.000000   0.000000   0.000000
     7  H    0.000000   0.000000   0.000000   0.000000
     8  H    0.000000   0.000000   0.000000   0.000000
     9  H    0.000000   0.000000   0.000000   0.000000
    10  H    0.000000   0.000000   0.000000   0.000000
    11  H    0.000000   0.000000   0.000000   0.000000
    12  H    0.000000   0.000000   0.000000   0.000000
    13  H    0.953209   0.000000   0.000000   0.000000
    14  H    0.000000   0.985066   0.000000   0.000000
    15  H    0.000000   0.000000   0.964987   0.000000
    16  H    0.000000   0.000000   0.000000   0.814118
 Mulliken charges:
               1
     1  C   -0.148285
     2  C    0.069199
     3  O   -0.321456
     4  C   -0.114235
     5  C    0.074428
     6  O   -0.318758
     7  H    0.069515
     8  H    0.066165
     9  H    0.056660
    10  H    0.024864
    11  H    0.186750
    12  H    0.072531
    13  H    0.046791
    14  H    0.014934
    15  H    0.035013
    16  H    0.185882
 Sum of Mulliken charges =   0.00000
 Mulliken charges with hydrogens summed into heavy atoms:
               1
     1  C   -0.012604
     2  C    0.150723
     3  O   -0.134706
     4  C    0.005088
     5  C    0.124375
     6  O   -0.132876
 Charge=              0.0000 electrons
 Dipole moment (field-independent basis, Debye):
    X=              1.6279    Y=             -0.8635    Z=              1.5506  Tot=              2.4083
 N-N= 1.720718162815D+02 E-N=-2.909056513673D+02  KE=-2.653804591552D+01
 Calling FoFJK, ICntrl=      2127 FMM=F ISym2X=0 I1Cent= 0 IOpClX= 0 NMat=1 NMatS=1 NMatT=0.
 ***** Axes restored to original set *****
 -------------------------------------------------------------------
 Center     Atomic                   Forces (Hartrees/Bohr)
 Number     Number              X              Y              Z
 -------------------------------------------------------------------
      1        6           0.010189871   -0.008942885    0.004366587
      2        6           0.002904607   -0.020796854   -0.008645563
      3        8           0.008389896    0.001669469    0.001621696
      4        6          -0.006201548    0.016432437    0.000603963
      5        6           0.007986682   -0.000677859   -0.014313889
      6        8           0.017496056    0.003261001    0.007684266
      7        1           0.000477381    0.006057556   -0.001753861
      8        1          -0.004604292    0.000704875   -0.006325626
      9        1          -0.007975667   -0.001080163    0.002422395
     10        1           0.005276480    0.002312107    0.005483976
     11        1          -0.010084246    0.016735194    0.001826524
     12        1           0.000478862   -0.004545841   -0.006295175
     13        1          -0.000952169   -0.007988262    0.004210809
     14        1           0.004277361   -0.003227988    0.005547337
     15        1          -0.002113729    0.005182830    0.004798248
     16        1          -0.025545545   -0.005095618   -0.001231686
 -------------------------------------------------------------------
 Cartesian Forces:  Max     0.025545545 RMS     0.008298762

 GradGradGradGradGradGradGradGradGradGradGradGradGradGradGradGradGradGrad
 Berny optimization.
 FormGI is forming the generalized inverse of G from B-inverse, IUseBI=4.
 Internal  Forces:  Max     0.025924066 RMS     0.005448894
 Search for a local minimum.
 Step number   1 out of a maximum of   84
 All quantities printed in internal units (Hartrees-Bohrs-Radians)
 Mixed Optimization -- RFO/linear search
 Second derivative matrix not updated -- first step.
 ITU=  0
     Eigenvalues ---    0.00284   0.00402   0.00410   0.01375   0.01400
     Eigenvalues ---    0.03505   0.03524   0.04828   0.04851   0.04960
     Eigenvalues ---    0.05175   0.05694   0.05697   0.08308   0.08364
     Eigenvalues ---    0.11438   0.11629   0.12193   0.12227   0.13715
     Eigenvalues ---    0.13869   0.16000   0.16000   0.21934   0.21941
     Eigenvalues ---    0.21995   0.22021   0.28839   0.29656   0.29713
     Eigenvalues ---    0.34042   0.34053   0.34105   0.34274   0.34294
     Eigenvalues ---    0.34306   0.34308   0.34370   0.41868   0.42155
     Eigenvalues ---    0.52771   0.53646
 RFO step:  Lambda=-7.02268028D-03 EMin= 2.84202242D-03
 Linear search not attempted -- first point.
 Iteration  1 RMS(Cart)=  0.06286768 RMS(Int)=  0.00140035
 Iteration  2 RMS(Cart)=  0.00222854 RMS(Int)=  0.00013517
 Iteration  3 RMS(Cart)=  0.00000207 RMS(Int)=  0.00013516
 Iteration  4 RMS(Cart)=  0.00000000 RMS(Int)=  0.00013516
 Variable       Old X    -DE/DX   Delta X   Delta X   Delta X     New X
                                 (Linear)    (Quad)   (Total)
    R1        2.88655   0.00323   0.00000   0.01065   0.01065   2.89720
    R2        2.90341  -0.00571   0.00000  -0.01935  -0.01935   2.88406
    R3        2.07153   0.00622   0.00000   0.01788   0.01788   2.08941
    R4        2.07241   0.00725   0.00000   0.02086   0.02086   2.09328
    R5        2.69091  -0.01597   0.00000  -0.03752  -0.03752   2.65339
    R6        2.06709   0.00554   0.00000   0.01580   0.01580   2.08290
    R7        2.06816   0.00778   0.00000   0.02223   0.02223   2.09039
    R8        1.83056  -0.01888   0.00000  -0.03474  -0.03474   1.79582
    R9        2.88539   0.00191   0.00000   0.00629   0.00629   2.89168
   R10        2.07259   0.00746   0.00000   0.02146   0.02146   2.09405
   R11        2.06836   0.00893   0.00000   0.02552   0.02552   2.09389
   R12        2.68726  -0.00920   0.00000  -0.02146  -0.02146   2.66580
   R13        2.06870   0.00721   0.00000   0.02061   0.02061   2.08931
   R14        2.06813   0.00732   0.00000   0.02091   0.02091   2.08904
   R15        1.83868  -0.02592   0.00000  -0.04848  -0.04848   1.79020
    A1        1.96724  -0.00181   0.00000  -0.00486  -0.00505   1.96220
    A2        1.91218  -0.00006   0.00000  -0.01052  -0.01058   1.90161
    A3        1.89080   0.00186   0.00000   0.02390   0.02380   1.91460
    A4        1.92729   0.00050   0.00000  -0.00675  -0.00684   1.92045
    A5        1.89023   0.00096   0.00000   0.01600   0.01585   1.90608
    A6        1.87323  -0.00140   0.00000  -0.01748  -0.01733   1.85589
    A7        1.93652   0.00818   0.00000   0.03621   0.03610   1.97262
    A8        1.91760   0.00294   0.00000   0.02014   0.02050   1.93810
    A9        1.95458  -0.00344   0.00000  -0.00808  -0.00838   1.94620
   A10        1.86622  -0.00780   0.00000  -0.06124  -0.06126   1.80496
   A11        1.89916  -0.00075   0.00000   0.01068   0.01038   1.90954
   A12        1.88697   0.00045   0.00000  -0.00119  -0.00127   1.88569
   A13        1.89689  -0.00974   0.00000  -0.05834  -0.05834   1.83855
   A14        1.97213  -0.00197   0.00000  -0.00598  -0.00602   1.96611
   A15        1.89242   0.00080   0.00000   0.00889   0.00886   1.90127
   A16        1.92295   0.00023   0.00000  -0.00524  -0.00525   1.91770
   A17        1.90947   0.00144   0.00000   0.01601   0.01598   1.92546
   A18        1.89557   0.00077   0.00000   0.00067   0.00064   1.89621
   A19        1.86850  -0.00124   0.00000  -0.01475  -0.01473   1.85378
   A20        1.89956  -0.00258   0.00000  -0.00983  -0.01011   1.88945
   A21        1.91668   0.00157   0.00000   0.01668   0.01661   1.93329
   A22        1.96905  -0.00110   0.00000  -0.01930  -0.01948   1.94957
   A23        1.88416   0.00261   0.00000   0.03253   0.03243   1.91659
   A24        1.89788   0.00058   0.00000  -0.00901  -0.00935   1.88852
   A25        1.89462  -0.00090   0.00000  -0.00884  -0.00871   1.88591
   A26        1.87379  -0.00509   0.00000  -0.03047  -0.03047   1.84332
    D1       -1.27619  -0.00222   0.00000  -0.02575  -0.02574  -1.30193
    D2        2.94702   0.00055   0.00000   0.01499   0.01492   2.96193
    D3        0.84975   0.00024   0.00000   0.00813   0.00815   0.85790
    D4        2.85355  -0.00155   0.00000  -0.00589  -0.00591   2.84763
    D5        0.79357   0.00122   0.00000   0.03486   0.03475   0.82832
    D6       -1.30370   0.00091   0.00000   0.02799   0.02798  -1.27572
    D7        0.81517  -0.00090   0.00000   0.00730   0.00739   0.82256
    D8       -1.24481   0.00187   0.00000   0.04805   0.04805  -1.19676
    D9        2.94111   0.00156   0.00000   0.04118   0.04128   2.98239
   D10       -1.69631   0.00186   0.00000   0.07856   0.07856  -1.61774
   D11        2.46710   0.00076   0.00000   0.05595   0.05595   2.52306
   D12        0.42749   0.00166   0.00000   0.07148   0.07150   0.49899
   D13        0.44872   0.00086   0.00000   0.05644   0.05646   0.50518
   D14       -1.67106  -0.00024   0.00000   0.03383   0.03385  -1.63721
   D15        2.57251   0.00066   0.00000   0.04935   0.04939   2.62190
   D16        2.49519   0.00002   0.00000   0.04096   0.04092   2.53611
   D17        0.37541  -0.00108   0.00000   0.01835   0.01831   0.39372
   D18       -1.66420  -0.00018   0.00000   0.03387   0.03385  -1.63035
   D19        1.03373  -0.00127   0.00000  -0.01102  -0.01046   1.02326
   D20        3.12464   0.00215   0.00000  -0.00364  -0.00411   3.12053
   D21       -1.12429  -0.00186   0.00000  -0.03222  -0.03231  -1.15660
   D22       -1.69271   0.00135   0.00000   0.04323   0.04315  -1.64956
   D23        2.53136  -0.00119   0.00000   0.00002  -0.00004   2.53132
   D24        0.41539  -0.00041   0.00000   0.01253   0.01263   0.42802
   D25        0.41741   0.00207   0.00000   0.06186   0.06181   0.47922
   D26       -1.64171  -0.00047   0.00000   0.01866   0.01862  -1.62309
   D27        2.52551   0.00031   0.00000   0.03116   0.03129   2.55679
   D28        2.45133   0.00182   0.00000   0.05344   0.05338   2.50471
   D29        0.39221  -0.00072   0.00000   0.01024   0.01019   0.40240
   D30       -1.72376   0.00006   0.00000   0.02275   0.02286  -1.70090
   D31       -2.71678  -0.00185   0.00000  -0.03914  -0.03914  -2.75593
   D32       -0.63723   0.00007   0.00000  -0.00611  -0.00601  -0.64324
   D33        1.41511   0.00076   0.00000  -0.00353  -0.00362   1.41149
         Item               Value     Threshold  Converged?
 Maximum Force            0.025924     0.000450     NO 
 RMS     Force            0.005449     0.000300     NO 
 Maximum Displacement     0.160546     0.001800     NO 
 RMS     Displacement     0.063384     0.001200     NO 
 Predicted change in Energy=-3.749860D-03
 GradGradGradGradGradGradGradGradGradGradGradGradGradGradGradGradGradGrad

                          Input orientation:                          
 ---------------------------------------------------------------------
 Center     Atomic      Atomic             Coordinates (Angstroms)
 Number     Number       Type             X           Y           Z
 ---------------------------------------------------------------------
      1          6           0        1.866575    1.230071    1.712384
      2          6           0        1.236154    1.016415    3.093476
      3          8           0        0.629975   -0.242553    3.231607
      4          6           0        3.169038    0.453374    1.540454
      5          6           0        4.401648    1.279890    1.913408
      6          8           0        4.911132    1.869039    0.737250
      7          1           0        2.047452    2.310629    1.563443
      8          1           0        1.151870    0.922260    0.924043
      9          1           0        0.405002    1.720373    3.262365
     10          1           0        1.975909    1.159072    3.903454
     11          1           0        1.322113   -0.873767    3.071626
     12          1           0        3.243273    0.103469    0.491646
     13          1           0        3.149994   -0.458177    2.170102
     14          1           0        5.175543    0.641770    2.378465
     15          1           0        4.151713    2.088601    2.624458
     16          1           0        5.819089    2.065335    0.923047
 ---------------------------------------------------------------------
                    Distance matrix (angstroms):
                    1          2          3          4          5
     1  C    0.000000
     2  C    1.533132   0.000000
     3  O    2.450682   1.404114   0.000000
     4  C    1.526181   2.542624   3.129082   0.000000
     5  C    2.543519   3.388559   4.275628   1.530213   0.000000
     6  O    3.260138   4.447947   5.385996   2.384143   1.410680
     7  H    1.105669   2.161989   3.363146   2.169764   2.593672
     8  H    1.107715   2.173110   2.637047   2.160736   3.415816
     9  H    2.186099   1.102222   1.976016   3.494303   4.241095
    10  H    2.194945   1.106188   2.056081   2.739587   3.139919
    11  H    2.563223   1.892262   0.950305   2.741701   3.932333
    12  H    2.157483   3.410502   3.802163   1.108126   2.178808
    13  H    2.169528   2.586470   2.742951   1.108036   2.157175
    14  H    3.426227   4.021242   4.708722   2.182617   1.105617
    15  H    2.605919   3.141663   4.266797   2.194239   1.105475
    16  H    4.116198   5.178252   6.130473   3.162654   1.899178
                    6          7          8          9         10
     6  O    0.000000
     7  H    3.013015   0.000000
     8  H    3.881151   1.771572   0.000000
     9  H    5.167544   2.435648   2.581190   0.000000
    10  H    4.375436   2.608995   3.100324   1.787122   0.000000
    11  H    5.084620   3.597375   2.804783   2.758086   2.291685
    12  H    2.441171   2.729522   2.287215   4.283345   3.789584
    13  H    3.251247   3.041368   2.729609   3.670708   2.645464
    14  H    2.066323   3.637898   4.287652   4.970183   3.582017
    15  H    2.046089   2.367058   3.640168   3.818424   2.689606
    16  H    0.947332   3.833474   4.805159   5.907939   4.947138
                   11         12         13         14         15
    11  H    0.000000
    12  H    3.361866   0.000000
    13  H    2.080050   1.772389   0.000000
    14  H    4.198362   2.753819   2.314335   0.000000
    15  H    4.120950   3.052033   2.774160   1.789431   0.000000
    16  H    5.785975   3.266474   3.879089   2.135165   2.382327
                   16
    16  H    0.000000
 Stoichiometry    C4H10O2
 Framework group  C1[X(C4H10O2)]
 Deg. of freedom    42
 Full point group                 C1      NOp   1
 Largest Abelian subgroup         C1      NOp   1
 Largest concise Abelian subgroup C1      NOp   1
                         Standard orientation:                         
 ---------------------------------------------------------------------
 Center     Atomic      Atomic             Coordinates (Angstroms)
 Number     Number       Type             X           Y           Z
 ---------------------------------------------------------------------
      1          6           0       -0.519436    0.712800   -0.428062
      2          6           0       -1.705949    0.425948    0.499515
      3          8           0       -2.645111   -0.451653   -0.065574
      4          6           0        0.452142   -0.461272   -0.510642
      5          6           0        1.591082   -0.356280    0.505893
      6          8           0        2.694172    0.253437   -0.127715
      7          1           0        0.007446    1.615878   -0.068411
      8          1           0       -0.889357    0.951954   -1.444426
      9          1           0       -2.291485    1.340644    0.687592
     10          1           0       -1.370741    0.027043    1.475303
     11          1           0       -2.162183   -1.247372   -0.257125
     12          1           0        0.858987   -0.519632   -1.539727
     13          1           0       -0.090231   -1.411942   -0.338008
     14          1           0        1.878478   -1.357149    0.877446
     15          1           0        1.306608    0.263501    1.375963
     16          1           0        3.452949   -0.004369    0.377490
 ---------------------------------------------------------------------
 Rotational constants (GHZ):     10.1888890      1.4371238      1.4135434
 Standard basis: VSTO-6G (5D, 7F)
 There are    34 symmetry adapted cartesian basis functions of A   symmetry.
 There are    34 symmetry adapted basis functions of A   symmetry.
    34 basis functions,   204 primitive gaussians,    34 cartesian basis functions
    19 alpha electrons       19 beta electrons
       nuclear repulsion energy       172.4918976063 Hartrees.
 Integral buffers will be    131072 words long.
 Regular integral format.
 Two-electron integral symmetry is turned off.
 Do NDO integrals.
 One-electron integrals computed using PRISM.
 NBasis=    34 RedAO= F EigKep=  0.00D+00  NBF=    34
 NBsUse=    34 1.00D-04 EigRej=  0.00D+00 NBFU=    34
 Initial guess from the checkpoint file:  "1-4-butanediol-open-opt.chk"
 B after Tr=    -0.000000   -0.000000   -0.000000
         Rot=    0.998053   -0.062363    0.000407    0.001286 Ang=  -7.15 deg.
 Overlap will be assumed to be unity.
 Keep J ints in memory in canonical form, NReq=895124.
 Requested convergence on RMS density matrix=1.00D-08 within 128 cycles.
 Requested convergence on MAX density matrix=1.00D-06.
 Requested convergence on             energy=1.00D-06.
 No special actions if energy rises.
 SCF Done:  E(RPM3) = -0.168380025086     A.U. after   12 cycles
            NFock= 11  Conv=0.33D-08     -V/T= 0.9937
 Calling FoFJK, ICntrl=      2127 FMM=F ISym2X=0 I1Cent= 0 IOpClX= 0 NMat=1 NMatS=1 NMatT=0.
 ***** Axes restored to original set *****
 -------------------------------------------------------------------
 Center     Atomic                   Forces (Hartrees/Bohr)
 Number     Number              X              Y              Z
 -------------------------------------------------------------------
      1        6           0.001831497   -0.002619321    0.002073024
      2        6          -0.000899060    0.000281143   -0.002394863
      3        8           0.001908635    0.001809068    0.000256798
      4        6          -0.001854313    0.002892694    0.000986890
      5        6           0.000068939   -0.000593917   -0.003080557
      6        8           0.000954317   -0.000312414    0.001062700
      7        1          -0.000989605    0.000810161   -0.000968394
      8        1          -0.000518132    0.000982623    0.000271717
      9        1          -0.000812616    0.000039260    0.000431033
     10        1           0.001148796    0.001541318    0.000034649
     11        1          -0.000881879   -0.002970149   -0.000377255
     12        1           0.000903847   -0.001031284    0.000335045
     13        1          -0.000549646   -0.001512407   -0.000603539
     14        1          -0.000168093   -0.000056737    0.000831136
     15        1          -0.000118850   -0.000204973    0.002365579
     16        1          -0.000023837    0.000944935   -0.001223964
 -------------------------------------------------------------------
 Cartesian Forces:  Max     0.003080557 RMS     0.001328861

 GradGradGradGradGradGradGradGradGradGradGradGradGradGradGradGradGradGrad
 Berny optimization.
 Using GEDIIS/GDIIS optimizer.
 FormGI is forming the generalized inverse of G from B-inverse, IUseBI=4.
 Internal  Forces:  Max     0.004912241 RMS     0.000935319
 Search for a local minimum.
 Step number   2 out of a maximum of   84
 All quantities printed in internal units (Hartrees-Bohrs-Radians)
 Mixed Optimization -- En-DIIS/RFO-DIIS
 Update second derivatives using D2CorX and points    1    2
 DE= -3.71D-03 DEPred=-3.75D-03 R= 9.91D-01
 TightC=F SS=  1.41D+00  RLast= 2.61D-01 DXNew= 5.0454D-01 7.8278D-01
 Trust test= 9.91D-01 RLast= 2.61D-01 DXMaxT set to 5.05D-01
 ITU=  1  0
 Use linear search instead of GDIIS.
     Eigenvalues ---    0.00277   0.00400   0.00407   0.01370   0.01398
     Eigenvalues ---    0.03496   0.03525   0.04684   0.04776   0.04816
     Eigenvalues ---    0.05278   0.05610   0.05672   0.08301   0.08349
     Eigenvalues ---    0.11324   0.11942   0.12166   0.12212   0.13561
     Eigenvalues ---    0.13696   0.16000   0.17748   0.21606   0.21898
     Eigenvalues ---    0.21974   0.22137   0.28685   0.29674   0.29848
     Eigenvalues ---    0.33444   0.34047   0.34129   0.34161   0.34290
     Eigenvalues ---    0.34304   0.34363   0.34381   0.42007   0.42674
     Eigenvalues ---    0.52711   0.54942
 RFO step:  Lambda=-1.27121336D-03 EMin= 2.77410260D-03
 Quartic linear search produced a step of  0.04064.
 Iteration  1 RMS(Cart)=  0.10175922 RMS(Int)=  0.00349722
 Iteration  2 RMS(Cart)=  0.00495032 RMS(Int)=  0.00002214
 Iteration  3 RMS(Cart)=  0.00000896 RMS(Int)=  0.00002132
 Iteration  4 RMS(Cart)=  0.00000000 RMS(Int)=  0.00002132
 Variable       Old X    -DE/DX   Delta X   Delta X   Delta X     New X
                                 (Linear)    (Quad)   (Total)
    R1        2.89720  -0.00213   0.00043  -0.00665  -0.00622   2.89098
    R2        2.88406  -0.00081  -0.00079  -0.00414  -0.00493   2.87914
    R3        2.08941   0.00076   0.00073   0.00345   0.00418   2.09359
    R4        2.09328  -0.00013   0.00085   0.00097   0.00182   2.09510
    R5        2.65339   0.00059  -0.00152  -0.00104  -0.00257   2.65082
    R6        2.08290   0.00070   0.00064   0.00313   0.00377   2.08667
    R7        2.09039   0.00099   0.00090   0.00441   0.00532   2.09571
    R8        1.79582   0.00139  -0.00141   0.00036  -0.00105   1.79477
    R9        2.89168   0.00044   0.00026   0.00193   0.00219   2.89387
   R10        2.09405   0.00007   0.00087   0.00162   0.00249   2.09654
   R11        2.09389   0.00091   0.00104   0.00439   0.00542   2.09931
   R12        2.66580   0.00073  -0.00087   0.00037  -0.00051   2.66529
   R13        2.08931   0.00026   0.00084   0.00214   0.00298   2.09229
   R14        2.08904   0.00140   0.00085   0.00554   0.00639   2.09543
   R15        1.79020  -0.00007  -0.00197  -0.00334  -0.00531   1.78489
    A1        1.96220  -0.00101  -0.00021  -0.00293  -0.00315   1.95904
    A2        1.90161  -0.00022  -0.00043  -0.00554  -0.00596   1.89565
    A3        1.91460   0.00044   0.00097   0.00470   0.00565   1.92025
    A4        1.92045   0.00097  -0.00028   0.00720   0.00691   1.92736
    A5        1.90608   0.00058   0.00064   0.00783   0.00845   1.91453
    A6        1.85589  -0.00075  -0.00070  -0.01176  -0.01247   1.84343
    A7        1.97262   0.00079   0.00147   0.00725   0.00871   1.98132
    A8        1.93810   0.00074   0.00083   0.00628   0.00713   1.94522
    A9        1.94620  -0.00170  -0.00034  -0.01312  -0.01348   1.93273
   A10        1.80496  -0.00075  -0.00249  -0.00666  -0.00917   1.79580
   A11        1.90954   0.00095   0.00042   0.01000   0.01045   1.91999
   A12        1.88569   0.00005  -0.00005  -0.00339  -0.00343   1.88227
   A13        1.83855   0.00491  -0.00237   0.02750   0.02513   1.86368
   A14        1.96611   0.00012  -0.00024   0.00308   0.00281   1.96893
   A15        1.90127   0.00041   0.00036   0.00657   0.00690   1.90818
   A16        1.91770  -0.00001  -0.00021  -0.00022  -0.00043   1.91727
   A17        1.92546  -0.00006   0.00065   0.00260   0.00321   1.92866
   A18        1.89621   0.00012   0.00003   0.00061   0.00064   1.89684
   A19        1.85378  -0.00063  -0.00060  -0.01370  -0.01428   1.83950
   A20        1.88945   0.00038  -0.00041   0.00419   0.00376   1.89321
   A21        1.93329  -0.00014   0.00068  -0.00112  -0.00051   1.93278
   A22        1.94957  -0.00059  -0.00079  -0.00735  -0.00818   1.94139
   A23        1.91659   0.00039   0.00132   0.00979   0.01108   1.92767
   A24        1.88852   0.00054  -0.00038   0.00737   0.00699   1.89552
   A25        1.88591  -0.00056  -0.00035  -0.01231  -0.01273   1.87318
   A26        1.84332   0.00265  -0.00124   0.01489   0.01365   1.85697
    D1       -1.30193   0.00005  -0.00105   0.03265   0.03163  -1.27030
    D2        2.96193  -0.00000   0.00061   0.03232   0.03292   2.99485
    D3        0.85790   0.00058   0.00033   0.04124   0.04156   0.89946
    D4        2.84763  -0.00036  -0.00024   0.02936   0.02914   2.87677
    D5        0.82832  -0.00041   0.00141   0.02902   0.03042   0.85873
    D6       -1.27572   0.00018   0.00114   0.03795   0.03906  -1.23666
    D7        0.82256   0.00042   0.00030   0.04398   0.04431   0.86687
    D8       -1.19676   0.00037   0.00195   0.04365   0.04559  -1.15117
    D9        2.98239   0.00096   0.00168   0.05257   0.05424   3.03663
   D10       -1.61774   0.00073   0.00319   0.13278   0.13599  -1.48175
   D11        2.52306   0.00043   0.00227   0.12267   0.12494   2.64799
   D12        0.49899   0.00096   0.00291   0.13549   0.13841   0.63740
   D13        0.50518   0.00045   0.00229   0.12881   0.13111   0.63628
   D14       -1.63721   0.00015   0.00138   0.11869   0.12005  -1.51716
   D15        2.62190   0.00068   0.00201   0.13152   0.13352   2.75543
   D16        2.53611   0.00043   0.00166   0.12326   0.12493   2.66104
   D17        0.39372   0.00013   0.00074   0.11314   0.11387   0.50759
   D18       -1.63035   0.00066   0.00138   0.12597   0.12734  -1.50301
   D19        1.02326  -0.00091  -0.00043  -0.02651  -0.02686   0.99640
   D20        3.12053  -0.00008  -0.00017  -0.01934  -0.01953   3.10101
   D21       -1.15660   0.00001  -0.00131  -0.02227  -0.02363  -1.18023
   D22       -1.64956   0.00020   0.00175   0.05941   0.06116  -1.58840
   D23        2.53132  -0.00043  -0.00000   0.04539   0.04540   2.57673
   D24        0.42802   0.00077   0.00051   0.06675   0.06724   0.49526
   D25        0.47922   0.00078   0.00251   0.07190   0.07442   0.55364
   D26       -1.62309   0.00014   0.00076   0.05789   0.05867  -1.56442
   D27        2.55679   0.00134   0.00127   0.07925   0.08051   2.63730
   D28        2.50471   0.00006   0.00217   0.05723   0.05940   2.56411
   D29        0.40240  -0.00058   0.00041   0.04321   0.04364   0.44604
   D30       -1.70090   0.00062   0.00093   0.06458   0.06548  -1.63542
   D31       -2.75593  -0.00041  -0.00159  -0.02086  -0.02247  -2.77840
   D32       -0.64324  -0.00011  -0.00024  -0.01374  -0.01396  -0.65720
   D33        1.41149  -0.00025  -0.00015  -0.01877  -0.01892   1.39256
         Item               Value     Threshold  Converged?
 Maximum Force            0.004912     0.000450     NO 
 RMS     Force            0.000935     0.000300     NO 
 Maximum Displacement     0.274504     0.001800     NO 
 RMS     Displacement     0.103119     0.001200     NO 
 Predicted change in Energy=-7.841761D-04
 GradGradGradGradGradGradGradGradGradGradGradGradGradGradGradGradGradGrad

                          Input orientation:                          
 ---------------------------------------------------------------------
 Center     Atomic      Atomic             Coordinates (Angstroms)
 Number     Number       Type             X           Y           Z
 ---------------------------------------------------------------------
      1          6           0        1.847442    1.207963    1.662254
      2          6           0        1.278386    1.062606    3.074862
      3          8           0        0.726495   -0.201789    3.328720
      4          6           0        3.147883    0.434906    1.481938
      5          6           0        4.376796    1.225081    1.940730
      6          8           0        4.881252    1.946473    0.838739
      7          1           0        2.005422    2.284511    1.453725
      8          1           0        1.102610    0.865471    0.915868
      9          1           0        0.423175    1.741887    3.237618
     10          1           0        2.050045    1.299434    3.835350
     11          1           0        1.413053   -0.837989    3.167750
     12          1           0        3.252892    0.135762    0.418760
     13          1           0        3.103249   -0.516888    2.053087
     14          1           0        5.151415    0.545296    2.345372
     15          1           0        4.115478    1.943340    2.744082
     16          1           0        5.780886    2.149737    1.042377
 ---------------------------------------------------------------------
                    Distance matrix (angstroms):
                    1          2          3          4          5
     1  C    0.000000
     2  C    1.529841   0.000000
     3  O    2.453779   1.402756   0.000000
     4  C    1.523574   2.535041   3.111126   0.000000
     5  C    2.544696   3.303453   4.157785   1.531370   0.000000
     6  O    3.229176   4.331525   5.298777   2.388118   1.410413
     7  H    1.107880   2.156321   3.366445   2.174179   2.642533
     8  H    1.108678   2.175089   2.665026   2.165402   3.449631
     9  H    2.189836   1.104218   1.969309   3.494946   4.192866
    10  H    2.184436   1.109002   2.064492   2.737006   3.001480
    11  H    2.577039   1.907623   0.949749   2.733470   3.813871
    12  H    2.161292   3.436945   3.868397   1.109442   2.183156
    13  H    2.169081   2.620868   2.715784   1.110907   2.160787
    14  H    3.438316   3.974937   4.594021   2.184455   1.107193
    15  H    2.618228   2.989013   4.053219   2.191945   1.108855
    16  H    4.091842   5.058197   6.025273   3.172785   1.906173
                    6          7          8          9         10
     6  O    0.000000
     7  H    2.960215   0.000000
     8  H    3.930986   1.765795   0.000000
     9  H    5.066648   2.445449   2.572986   0.000000
    10  H    4.173017   2.577694   3.099892   1.788785   0.000000
    11  H    5.020550   3.610926   2.840620   2.764145   2.328094
    12  H    2.471156   2.691553   2.324501   4.304985   3.804479
    13  H    3.271709   3.067947   2.684537   3.699726   2.754037
    14  H    2.075145   3.703671   4.305673   4.958244   3.522393
    15  H    2.053473   2.496749   3.685314   3.730585   2.423117
    16  H    0.944525   3.800198   4.853000   5.804351   4.737393
                   11         12         13         14         15
    11  H    0.000000
    12  H    3.448209   0.000000
    13  H    2.049961   1.766174   0.000000
    14  H    4.070029   2.735680   2.325650   0.000000
    15  H    3.901075   3.068961   2.748600   1.785123   0.000000
    16  H    5.702778   3.291770   3.911798   2.160616   2.389976
                   16
    16  H    0.000000
 Stoichiometry    C4H10O2
 Framework group  C1[X(C4H10O2)]
 Deg. of freedom    42
 Full point group                 C1      NOp   1
 Largest Abelian subgroup         C1      NOp   1
 Largest concise Abelian subgroup C1      NOp   1
                         Standard orientation:                         
 ---------------------------------------------------------------------
 Center     Atomic      Atomic             Coordinates (Angstroms)
 Number     Number       Type             X           Y           Z
 ---------------------------------------------------------------------
      1          6           0       -0.517550    0.783439   -0.396880
      2          6           0       -1.649206    0.381946    0.551050
      3          8           0       -2.596050   -0.470000   -0.036655
      4          6           0        0.450583   -0.363694   -0.657809
      5          6           0        1.537106   -0.479298    0.415129
      6          8           0        2.647604    0.290806    0.011396
      7          1           0        0.017982    1.649929    0.038779
      8          1           0       -0.937126    1.144113   -1.357629
      9          1           0       -2.255289    1.255467    0.849248
     10          1           0       -1.243191   -0.080857    1.473467
     11          1           0       -2.122853   -1.231961   -0.348943
     12          1           0        0.907043   -0.237994   -1.661156
     13          1           0       -0.106193   -1.323830   -0.705289
     14          1           0        1.832233   -1.536277    0.562000
     15          1           0        1.178516   -0.097702    1.392553
     16          1           0        3.390851   -0.041687    0.490101
 ---------------------------------------------------------------------
 Rotational constants (GHZ):      9.5028366      1.4888501      1.4621917
 Standard basis: VSTO-6G (5D, 7F)
 There are    34 symmetry adapted cartesian basis functions of A   symmetry.
 There are    34 symmetry adapted basis functions of A   symmetry.
    34 basis functions,   204 primitive gaussians,    34 cartesian basis functions
    19 alpha electrons       19 beta electrons
       nuclear repulsion energy       172.9294346033 Hartrees.
 Integral buffers will be    131072 words long.
 Regular integral format.
 Two-electron integral symmetry is turned off.
 Do NDO integrals.
 One-electron integrals computed using PRISM.
 NBasis=    34 RedAO= F EigKep=  0.00D+00  NBF=    34
 NBsUse=    34 1.00D-04 EigRej=  0.00D+00 NBFU=    34
 Initial guess from the checkpoint file:  "1-4-butanediol-open-opt.chk"
 B after Tr=    -0.000000    0.000000    0.000000
         Rot=    0.997312   -0.073274    0.000026    0.000136 Ang=  -8.40 deg.
 Overlap will be assumed to be unity.
 Keep J ints in memory in canonical form, NReq=895124.
 Requested convergence on RMS density matrix=1.00D-08 within 128 cycles.
 Requested convergence on MAX density matrix=1.00D-06.
 Requested convergence on             energy=1.00D-06.
 No special actions if energy rises.
 SCF Done:  E(RPM3) = -0.169346280100     A.U. after   12 cycles
            NFock= 11  Conv=0.43D-08     -V/T= 0.9936
 Calling FoFJK, ICntrl=      2127 FMM=F ISym2X=0 I1Cent= 0 IOpClX= 0 NMat=1 NMatS=1 NMatT=0.
 ***** Axes restored to original set *****
 -------------------------------------------------------------------
 Center     Atomic                   Forces (Hartrees/Bohr)
 Number     Number              X              Y              Z
 -------------------------------------------------------------------
      1        6           0.000764572   -0.000098385    0.000244126
      2        6          -0.000542072    0.000580071    0.000023559
      3        8          -0.000501966    0.001101647    0.000713041
      4        6           0.000038244    0.000396070   -0.000002436
      5        6          -0.000548279    0.000488832   -0.000605138
      6        8          -0.002796063   -0.001435253   -0.000354174
      7        1           0.000251585   -0.000459371   -0.000684866
      8        1           0.000152993   -0.000101469    0.000715270
      9        1           0.000215835   -0.000334750   -0.000089364
     10        1          -0.000381631    0.000296347   -0.000043001
     11        1           0.001144289   -0.001173006   -0.000949180
     12        1           0.000703270    0.000356464    0.000636266
     13        1          -0.000839204    0.000032667   -0.000261956
     14        1          -0.000282196    0.000022313   -0.000450191
     15        1           0.000290534   -0.000685668    0.000494206
     16        1           0.002330089    0.001013491    0.000613838
 -------------------------------------------------------------------
 Cartesian Forces:  Max     0.002796063 RMS     0.000781537

 GradGradGradGradGradGradGradGradGradGradGradGradGradGradGradGradGradGrad
 Berny optimization.
 Using GEDIIS/GDIIS optimizer.
 FormGI is forming the generalized inverse of G from B-inverse, IUseBI=4.
 Internal  Forces:  Max     0.002569796 RMS     0.000523875
 Search for a local minimum.
 Step number   3 out of a maximum of   84
 All quantities printed in internal units (Hartrees-Bohrs-Radians)
 Mixed Optimization -- En-DIIS/RFO-DIIS
 Swapping is turned off.
 Update second derivatives using D2CorX and points    2    3
 DE= -9.66D-04 DEPred=-7.84D-04 R= 1.23D+00
 TightC=F SS=  1.41D+00  RLast= 4.50D-01 DXNew= 8.4853D-01 1.3497D+00
 Trust test= 1.23D+00 RLast= 4.50D-01 DXMaxT set to 8.49D-01
 ITU=  1  1  0
     Eigenvalues ---    0.00179   0.00368   0.00406   0.01323   0.01393
     Eigenvalues ---    0.03463   0.03591   0.04713   0.04793   0.04840
     Eigenvalues ---    0.05286   0.05625   0.05728   0.08376   0.08443
     Eigenvalues ---    0.11276   0.11970   0.12179   0.12264   0.13698
     Eigenvalues ---    0.13819   0.15996   0.18907   0.21670   0.21870
     Eigenvalues ---    0.22063   0.22753   0.28584   0.29688   0.30510
     Eigenvalues ---    0.33884   0.34051   0.34135   0.34157   0.34297
     Eigenvalues ---    0.34307   0.34346   0.34405   0.42003   0.43230
     Eigenvalues ---    0.53274   0.54748
 En-DIIS/RFO-DIIS IScMMF=        0 using points:     3    2
 RFO step:  Lambda=-7.93046077D-05.
 DidBck=F Rises=F RFO-DIIS coefs:    1.73190   -0.73190
 Iteration  1 RMS(Cart)=  0.16546175 RMS(Int)=  0.00925646
 Iteration  2 RMS(Cart)=  0.01274185 RMS(Int)=  0.00004979
 Iteration  3 RMS(Cart)=  0.00006456 RMS(Int)=  0.00001972
 Iteration  4 RMS(Cart)=  0.00000000 RMS(Int)=  0.00001972
 Variable       Old X    -DE/DX   Delta X   Delta X   Delta X     New X
                                 (Linear)    (Quad)   (Total)
    R1        2.89098  -0.00034  -0.00455   0.00047  -0.00408   2.88690
    R2        2.87914  -0.00105  -0.00360  -0.00612  -0.00972   2.86942
    R3        2.09359  -0.00028   0.00306  -0.00148   0.00158   2.09517
    R4        2.09510  -0.00055   0.00133  -0.00200  -0.00067   2.09443
    R5        2.65082  -0.00023  -0.00188  -0.00262  -0.00450   2.64633
    R6        2.08667  -0.00039   0.00276  -0.00201   0.00075   2.08742
    R7        2.09571  -0.00023   0.00389  -0.00126   0.00263   2.09834
    R8        1.79477   0.00177  -0.00077   0.00381   0.00304   1.79781
    R9        2.89387  -0.00121   0.00160  -0.00725  -0.00565   2.88822
   R10        2.09654  -0.00064   0.00182  -0.00259  -0.00077   2.09577
   R11        2.09931  -0.00013   0.00397  -0.00057   0.00340   2.10271
   R12        2.66529  -0.00059  -0.00037  -0.00363  -0.00400   2.66130
   R13        2.09229  -0.00038   0.00218  -0.00143   0.00075   2.09304
   R14        2.09543  -0.00015   0.00467  -0.00126   0.00341   2.09884
   R15        1.78489   0.00257  -0.00388   0.00685   0.00297   1.78786
    A1        1.95904  -0.00002  -0.00231   0.00041  -0.00191   1.95713
    A2        1.89565   0.00039  -0.00436   0.01150   0.00714   1.90279
    A3        1.92025  -0.00013   0.00413  -0.00534  -0.00122   1.91903
    A4        1.92736  -0.00016   0.00506  -0.00153   0.00351   1.93088
    A5        1.91453  -0.00008   0.00619  -0.00749  -0.00132   1.91322
    A6        1.84343   0.00000  -0.00912   0.00270  -0.00642   1.83701
    A7        1.98132  -0.00104   0.00637  -0.00864  -0.00227   1.97905
    A8        1.94522   0.00041   0.00522   0.00543   0.01066   1.95588
    A9        1.93273   0.00019  -0.00987   0.00261  -0.00725   1.92547
   A10        1.79580   0.00041  -0.00671   0.00456  -0.00216   1.79363
   A11        1.91999   0.00029   0.00765  -0.00349   0.00417   1.92416
   A12        1.88227  -0.00022  -0.00251  -0.00010  -0.00257   1.87970
   A13        1.86368  -0.00014   0.01839  -0.01252   0.00587   1.86955
   A14        1.96893   0.00004   0.00206  -0.00105   0.00099   1.96991
   A15        1.90818   0.00028   0.00505   0.00033   0.00537   1.91354
   A16        1.91727  -0.00037  -0.00031  -0.00358  -0.00391   1.91336
   A17        1.92866  -0.00042   0.00235  -0.00775  -0.00543   1.92324
   A18        1.89684   0.00044   0.00047   0.00846   0.00894   1.90578
   A19        1.83950   0.00002  -0.01045   0.00394  -0.00649   1.83300
   A20        1.89321  -0.00064   0.00275  -0.00619  -0.00344   1.88977
   A21        1.93278  -0.00003  -0.00038  -0.00198  -0.00241   1.93037
   A22        1.94139   0.00014  -0.00599   0.00264  -0.00338   1.93801
   A23        1.92767   0.00029   0.00811   0.00060   0.00870   1.93637
   A24        1.89552   0.00044   0.00512   0.00485   0.00998   1.90549
   A25        1.87318  -0.00016  -0.00931   0.00034  -0.00907   1.86411
   A26        1.85697   0.00027   0.00999  -0.00292   0.00707   1.86404
    D1       -1.27030   0.00041   0.02315   0.07665   0.09982  -1.17048
    D2        2.99485   0.00029   0.02409   0.07279   0.09687   3.09172
    D3        0.89946   0.00017   0.03042   0.06755   0.09798   0.99744
    D4        2.87677   0.00035   0.02132   0.07029   0.09162   2.96839
    D5        0.85873   0.00022   0.02226   0.06643   0.08867   0.94740
    D6       -1.23666   0.00010   0.02859   0.06119   0.08977  -1.14688
    D7        0.86687   0.00020   0.03243   0.06351   0.09595   0.96282
    D8       -1.15117   0.00008   0.03337   0.05965   0.09301  -1.05816
    D9        3.03663  -0.00005   0.03970   0.05441   0.09411   3.13074
   D10       -1.48175  -0.00013   0.09953   0.08621   0.18576  -1.29599
   D11        2.64799   0.00018   0.09144   0.09669   0.18812   2.83612
   D12        0.63740   0.00020   0.10130   0.09377   0.19508   0.83248
   D13        0.63628   0.00025   0.09596   0.10013   0.19609   0.83237
   D14       -1.51716   0.00056   0.08786   0.11061   0.19845  -1.31871
   D15        2.75543   0.00058   0.09773   0.10769   0.20541   2.96084
   D16        2.66104   0.00011   0.09143   0.09811   0.18955   2.85059
   D17        0.50759   0.00042   0.08334   0.10859   0.19192   0.69951
   D18       -1.50301   0.00044   0.09320   0.10568   0.19888  -1.30413
   D19        0.99640  -0.00055  -0.01966  -0.04394  -0.06357   0.93284
   D20        3.10101  -0.00033  -0.01429  -0.03896  -0.05326   3.04775
   D21       -1.18023  -0.00025  -0.01730  -0.03823  -0.05555  -1.23578
   D22       -1.58840   0.00010   0.04476   0.08064   0.12541  -1.46299
   D23        2.57673   0.00017   0.03323   0.08513   0.11839   2.69511
   D24        0.49526   0.00031   0.04922   0.08428   0.13347   0.62873
   D25        0.55364   0.00018   0.05447   0.07458   0.12906   0.68270
   D26       -1.56442   0.00025   0.04294   0.07907   0.12204  -1.44238
   D27        2.63730   0.00039   0.05892   0.07822   0.13712   2.77442
   D28        2.56411   0.00022   0.04347   0.07989   0.12336   2.68747
   D29        0.44604   0.00030   0.03194   0.08438   0.11634   0.56238
   D30       -1.63542   0.00044   0.04793   0.08353   0.13142  -1.50400
   D31       -2.77840  -0.00015  -0.01645  -0.02389  -0.04035  -2.81875
   D32       -0.65720  -0.00043  -0.01022  -0.02993  -0.04015  -0.69735
   D33        1.39256  -0.00020  -0.01385  -0.02628  -0.04011   1.35245
         Item               Value     Threshold  Converged?
 Maximum Force            0.002570     0.000450     NO 
 RMS     Force            0.000524     0.000300     NO 
 Maximum Displacement     0.512676     0.001800     NO 
 RMS     Displacement     0.168387     0.001200     NO 
 Predicted change in Energy=-5.725764D-04
 GradGradGradGradGradGradGradGradGradGradGradGradGradGradGradGradGradGrad

                          Input orientation:                          
 ---------------------------------------------------------------------
 Center     Atomic      Atomic             Coordinates (Angstroms)
 Number     Number       Type             X           Y           Z
 ---------------------------------------------------------------------
      1          6           0        1.823521    1.184526    1.597119
      2          6           0        1.332336    1.144874    3.043141
      3          8           0        0.920868   -0.128488    3.455808
      4          6           0        3.112133    0.403687    1.408971
      5          6           0        4.332405    1.124740    1.980783
      6          8           0        4.794185    2.042901    1.017954
      7          1           0        1.958756    2.241314    1.290265
      8          1           0        1.042606    0.782309    0.921265
      9          1           0        0.422904    1.754578    3.189308
     10          1           0        2.114686    1.536291    3.727022
     11          1           0        1.638310   -0.726694    3.275491
     12          1           0        3.264159    0.189404    0.331508
     13          1           0        3.017977   -0.594704    1.891123
     14          1           0        5.124900    0.398322    2.247285
     15          1           0        4.072273    1.672044    2.911565
     16          1           0        5.684462    2.260696    1.252622
 ---------------------------------------------------------------------
                    Distance matrix (angstroms):
                    1          2          3          4          5
     1  C    0.000000
     2  C    1.527682   0.000000
     3  O    2.448165   1.400376   0.000000
     4  C    1.518430   2.527359   3.045389   0.000000
     5  C    2.538754   3.182675   3.922354   1.528381   0.000000
     6  O    3.145963   4.110015   5.065633   2.381011   1.408297
     7  H    1.108716   2.160360   3.373834   2.172842   2.712520
     8  H    1.108325   2.172039   2.695975   2.159665   3.473127
     9  H    2.195849   1.104614   1.965943   3.496636   4.140221
    10  H    2.178303   1.110393   2.066458   2.766053   2.852542
    11  H    2.550294   1.910595   0.951360   2.633214   3.515995
    12  H    2.160435   3.463786   3.918331   1.109034   2.176261
    13  H    2.163058   2.682286   2.657717   1.112708   2.166159
    14  H    3.455421   3.946424   4.405898   2.180374   1.107590
    15  H    2.649968   2.793290   3.670077   2.188238   1.110660
    16  H    4.022895   4.836529   5.766633   3.176445   1.910150
                    6          7          8          9         10
     6  O    0.000000
     7  H    2.855377   0.000000
     8  H    3.958886   1.761870   0.000000
     9  H    4.889377   2.490406   2.544279   0.000000
    10  H    3.843880   2.541487   3.096791   1.788551   0.000000
    11  H    4.767250   3.585092   2.859079   2.764300   2.356250
    12  H    2.499527   2.614121   2.373741   4.323139   3.829479
    13  H    3.297619   3.086418   2.595935   3.733472   2.954251
    14  H    2.079728   3.786420   4.309396   4.983533   3.542030
    15  H    2.060207   2.723901   3.732532   3.660853   2.124981
    16  H    0.946096   3.725946   4.882852   5.629467   4.403489
                   11         12         13         14         15
    11  H    0.000000
    12  H    3.485637   0.000000
    13  H    1.958923   1.762904   0.000000
    14  H    3.805151   2.678844   2.356284   0.000000
    15  H    3.436649   3.083499   2.700182   1.780915   0.000000
    16  H    5.421056   3.316107   3.958678   2.184239   2.386997
                   16
    16  H    0.000000
 Stoichiometry    C4H10O2
 Framework group  C1[X(C4H10O2)]
 Deg. of freedom    42
 Full point group                 C1      NOp   1
 Largest Abelian subgroup         C1      NOp   1
 Largest concise Abelian subgroup C1      NOp   1
                         Standard orientation:                         
 ---------------------------------------------------------------------
 Center     Atomic      Atomic             Coordinates (Angstroms)
 Number     Number       Type             X           Y           Z
 ---------------------------------------------------------------------
      1          6           0       -0.511570    0.884387   -0.352525
      2          6           0       -1.566948    0.341034    0.609117
      3          8           0       -2.465959   -0.546169    0.004382
      4          6           0        0.443677   -0.197505   -0.824378
      5          6           0        1.448122   -0.612847    0.250113
      6          8           0        2.524611    0.294747    0.222816
      7          1           0        0.043007    1.705023    0.145724
      8          1           0       -1.003362    1.354138   -1.227658
      9          1           0       -2.229879    1.137838    0.990952
     10          1           0       -1.080529   -0.141089    1.483145
     11          1           0       -1.948917   -1.221115   -0.422467
     12          1           0        0.976590    0.146662   -1.734053
     13          1           0       -0.134567   -1.090848   -1.149478
     14          1           0        1.799135   -1.648799    0.075905
     15          1           0        0.982829   -0.596746    1.258482
     16          1           0        3.246803   -0.124103    0.667901
 ---------------------------------------------------------------------
 Rotational constants (GHZ):      8.3198253      1.6131441      1.5789884
 Standard basis: VSTO-6G (5D, 7F)
 There are    34 symmetry adapted cartesian basis functions of A   symmetry.
 There are    34 symmetry adapted basis functions of A   symmetry.
    34 basis functions,   204 primitive gaussians,    34 cartesian basis functions
    19 alpha electrons       19 beta electrons
       nuclear repulsion energy       174.1115573064 Hartrees.
 Integral buffers will be    131072 words long.
 Regular integral format.
 Two-electron integral symmetry is turned off.
 Do NDO integrals.
 One-electron integrals computed using PRISM.
 NBasis=    34 RedAO= F EigKep=  0.00D+00  NBF=    34
 NBsUse=    34 1.00D-04 EigRej=  0.00D+00 NBFU=    34
 Initial guess from the checkpoint file:  "1-4-butanediol-open-opt.chk"
 B after Tr=    -0.000000   -0.000000   -0.000000
         Rot=    0.996102   -0.088176    0.000930   -0.002064 Ang= -10.12 deg.
 Overlap will be assumed to be unity.
 Keep J ints in memory in canonical form, NReq=895124.
 Requested convergence on RMS density matrix=1.00D-08 within 128 cycles.
 Requested convergence on MAX density matrix=1.00D-06.
 Requested convergence on             energy=1.00D-06.
 No special actions if energy rises.
 SCF Done:  E(RPM3) = -0.169989469582     A.U. after   12 cycles
            NFock= 11  Conv=0.68D-08     -V/T= 0.9936
 Calling FoFJK, ICntrl=      2127 FMM=F ISym2X=0 I1Cent= 0 IOpClX= 0 NMat=1 NMatS=1 NMatT=0.
 ***** Axes restored to original set *****
 -------------------------------------------------------------------
 Center     Atomic                   Forces (Hartrees/Bohr)
 Number     Number              X              Y              Z
 -------------------------------------------------------------------
      1        6          -0.001762603    0.002086739   -0.001402481
      2        6          -0.000359118    0.001818222    0.000607117
      3        8          -0.001469829   -0.001411603    0.002118434
      4        6           0.001215632   -0.001888869   -0.001316573
      5        6           0.000339393   -0.000060348    0.001607303
      6        8          -0.000479577   -0.000032290   -0.001280589
      7        1           0.000801330   -0.000797789    0.000315797
      8        1           0.000020121   -0.000579184    0.000255460
      9        1           0.000644520   -0.000090910   -0.000705664
     10        1          -0.000211370   -0.000278568    0.000278567
     11        1           0.001254748   -0.000215472   -0.001436318
     12        1           0.000090140    0.000521545    0.000080400
     13        1          -0.000581451    0.000765842    0.001214112
     14        1           0.000129740    0.000067798   -0.001062007
     15        1          -0.000273111   -0.000192339   -0.000127167
     16        1           0.000641436    0.000287226    0.000853610
 -------------------------------------------------------------------
 Cartesian Forces:  Max     0.002118434 RMS     0.000968185

 GradGradGradGradGradGradGradGradGradGradGradGradGradGradGradGradGradGrad
 Berny optimization.
 Using GEDIIS/GDIIS optimizer.
 FormGI is forming the generalized inverse of G from B-inverse, IUseBI=4.
 Internal  Forces:  Max     0.001870807 RMS     0.000541062
 Search for a local minimum.
 Step number   4 out of a maximum of   84
 All quantities printed in internal units (Hartrees-Bohrs-Radians)
 Mixed Optimization -- En-DIIS/RFO-DIIS
 Swapping is turned off.
 Update second derivatives using D2CorX and points    3    4
 DE= -6.43D-04 DEPred=-5.73D-04 R= 1.12D+00
 TightC=F SS=  1.41D+00  RLast= 7.62D-01 DXNew= 1.4270D+00 2.2850D+00
 Trust test= 1.12D+00 RLast= 7.62D-01 DXMaxT set to 1.43D+00
 ITU=  1  1  1  0
     Eigenvalues ---    0.00125   0.00367   0.00409   0.01296   0.01394
     Eigenvalues ---    0.03468   0.03598   0.04723   0.04784   0.04982
     Eigenvalues ---    0.05283   0.05607   0.05828   0.08380   0.08459
     Eigenvalues ---    0.11207   0.12004   0.12203   0.12245   0.13704
     Eigenvalues ---    0.13911   0.15996   0.19688   0.21663   0.21863
     Eigenvalues ---    0.22060   0.22657   0.28970   0.30009   0.30463
     Eigenvalues ---    0.33850   0.34049   0.34130   0.34213   0.34296
     Eigenvalues ---    0.34310   0.34341   0.34427   0.42055   0.43614
     Eigenvalues ---    0.53317   0.54232
 En-DIIS/RFO-DIIS IScMMF=        0 using points:     4    3    2
 RFO step:  Lambda=-6.14047853D-05.
 DidBck=F Rises=F RFO-DIIS coefs:    1.37480   -0.51916    0.14436
 Iteration  1 RMS(Cart)=  0.08928669 RMS(Int)=  0.00310163
 Iteration  2 RMS(Cart)=  0.00411527 RMS(Int)=  0.00001455
 Iteration  3 RMS(Cart)=  0.00000775 RMS(Int)=  0.00001297
 Iteration  4 RMS(Cart)=  0.00000000 RMS(Int)=  0.00001297
 Variable       Old X    -DE/DX   Delta X   Delta X   Delta X     New X
                                 (Linear)    (Quad)   (Total)
    R1        2.88690   0.00087  -0.00063   0.00190   0.00127   2.88817
    R2        2.86942   0.00120  -0.00293   0.00512   0.00219   2.87160
    R3        2.09517  -0.00075  -0.00001  -0.00172  -0.00173   2.09344
    R4        2.09443   0.00004  -0.00051   0.00076   0.00025   2.09468
    R5        2.64633   0.00174  -0.00132   0.00565   0.00433   2.65066
    R6        2.08742  -0.00067  -0.00026  -0.00143  -0.00170   2.08572
    R7        2.09834  -0.00008   0.00022   0.00129   0.00150   2.09984
    R8        1.79781   0.00135   0.00129   0.00304   0.00433   1.80214
    R9        2.88822   0.00032  -0.00243   0.00298   0.00055   2.88877
   R10        2.09577  -0.00017  -0.00065   0.00021  -0.00044   2.09533
   R11        2.10271  -0.00011   0.00049   0.00105   0.00155   2.10426
   R12        2.66130   0.00051  -0.00143   0.00219   0.00076   2.66206
   R13        2.09304  -0.00021  -0.00015   0.00006  -0.00008   2.09296
   R14        2.09884  -0.00014   0.00036   0.00139   0.00174   2.10059
   R15        1.78786   0.00088   0.00188   0.00030   0.00218   1.79004
    A1        1.95713  -0.00058  -0.00026  -0.00719  -0.00747   1.94967
    A2        1.90279   0.00056   0.00354   0.00353   0.00706   1.90985
    A3        1.91903  -0.00000  -0.00127  -0.00016  -0.00146   1.91757
    A4        1.93088  -0.00027   0.00032  -0.00198  -0.00165   1.92923
    A5        1.91322   0.00009  -0.00171   0.00041  -0.00133   1.91189
    A6        1.83701   0.00027  -0.00061   0.00626   0.00565   1.84266
    A7        1.97905  -0.00089  -0.00211  -0.00280  -0.00493   1.97412
    A8        1.95588  -0.00029   0.00296   0.00031   0.00329   1.95917
    A9        1.92547   0.00047  -0.00077  -0.00322  -0.00402   1.92145
   A10        1.79363   0.00088   0.00051   0.00787   0.00840   1.80203
   A11        1.92416  -0.00016   0.00005  -0.00303  -0.00302   1.92114
   A12        1.87970   0.00002  -0.00047   0.00170   0.00123   1.88093
   A13        1.86955  -0.00187  -0.00143  -0.00611  -0.00754   1.86201
   A14        1.96991   0.00034  -0.00004   0.00018   0.00013   1.97004
   A15        1.91354  -0.00010   0.00101   0.00274   0.00376   1.91731
   A16        1.91336  -0.00056  -0.00140  -0.00972  -0.01114   1.90222
   A17        1.92324  -0.00017  -0.00250   0.00266   0.00017   1.92341
   A18        1.90578  -0.00009   0.00326  -0.00470  -0.00148   1.90430
   A19        1.83300   0.00059  -0.00037   0.00934   0.00899   1.84200
   A20        1.88977   0.00053  -0.00183   0.00409   0.00226   1.89203
   A21        1.93037  -0.00006  -0.00083  -0.00066  -0.00148   1.92890
   A22        1.93801  -0.00051  -0.00008  -0.00634  -0.00642   1.93159
   A23        1.93637  -0.00049   0.00166  -0.00331  -0.00165   1.93471
   A24        1.90549   0.00003   0.00273   0.00274   0.00547   1.91097
   A25        1.86411   0.00047  -0.00156   0.00334   0.00178   1.86589
   A26        1.86404  -0.00082   0.00068  -0.00215  -0.00148   1.86256
    D1       -1.17048   0.00034   0.03285   0.03589   0.06871  -1.10177
    D2        3.09172  -0.00001   0.03156   0.02749   0.05904  -3.13242
    D3        0.99744  -0.00017   0.03072   0.02733   0.05806   1.05549
    D4        2.96839   0.00068   0.03013   0.04075   0.07087   3.03926
    D5        0.94740   0.00034   0.02884   0.03235   0.06121   1.00861
    D6       -1.14688   0.00018   0.02801   0.03219   0.06022  -1.08666
    D7        0.96282   0.00005   0.02957   0.03137   0.06092   1.02375
    D8       -1.05816  -0.00030   0.02828   0.02297   0.05126  -1.00691
    D9        3.13074  -0.00046   0.02744   0.02281   0.05027  -3.10218
   D10       -1.29599  -0.00011   0.04999   0.02212   0.07210  -1.22389
   D11        2.83612  -0.00005   0.05247   0.01653   0.06900   2.90511
   D12        0.83248  -0.00040   0.05314   0.00922   0.06237   0.89484
   D13        0.83237   0.00001   0.05457   0.02023   0.07479   0.90717
   D14       -1.31871   0.00006   0.05705   0.01463   0.07169  -1.24702
   D15        2.96084  -0.00028   0.05771   0.00733   0.06506   3.02590
   D16        2.85059   0.00023   0.05301   0.02693   0.07992   2.93051
   D17        0.69951   0.00029   0.05549   0.02133   0.07682   0.77632
   D18       -1.30413  -0.00006   0.05616   0.01403   0.07019  -1.23394
[...]
   D25        0.75159   0.00000  -0.00013  -0.00000  -0.00013   0.75146
   D26       -1.34844   0.00000  -0.00017   0.00005  -0.00012  -1.34856
   D27        2.86417   0.00000  -0.00014   0.00003  -0.00011   2.86405
   D28        2.77868  -0.00000  -0.00016  -0.00005  -0.00021   2.77847
   D29        0.67865  -0.00000  -0.00019  -0.00001  -0.00020   0.67845
   D30       -1.39193  -0.00000  -0.00017  -0.00002  -0.00019  -1.39212
   D31        3.07296  -0.00000   0.00032  -0.00060  -0.00028   3.07269
   D32       -1.09967  -0.00000   0.00035  -0.00062  -0.00028  -1.09994
   D33        0.97414  -0.00000   0.00031  -0.00060  -0.00029   0.97385
         Item               Value     Threshold  Converged?
 Maximum Force            0.000017     0.000450     YES
 RMS     Force            0.000004     0.000300     YES
 Maximum Displacement     0.001174     0.001800     YES
 RMS     Displacement     0.000278     0.001200     YES
 Predicted change in Energy=-4.771680D-09
 Optimization completed.
    -- Stationary point found.
                           ----------------------------
                           !   Optimized Parameters   !
                           ! (Angstroms and Degrees)  !
 --------------------------                            --------------------------
 ! Name  Definition              Value          Derivative Info.                !
 --------------------------------------------------------------------------------
 ! R1    R(1,2)                  1.5297         -DE/DX =    0.0                 !
 ! R2    R(1,4)                  1.5218         -DE/DX =    0.0                 !
 ! R3    R(1,7)                  1.1068         -DE/DX =    0.0                 !
 ! R4    R(1,8)                  1.1076         -DE/DX =    0.0                 !
 ! R5    R(2,3)                  1.4035         -DE/DX =    0.0                 !
 ! R6    R(2,9)                  1.1023         -DE/DX =    0.0                 !
 ! R7    R(2,10)                 1.1142         -DE/DX =    0.0                 !
 ! R8    R(3,11)                 0.953          -DE/DX =    0.0                 !
 ! R9    R(4,5)                  1.5286         -DE/DX =    0.0                 !
 ! R10   R(4,12)                 1.1072         -DE/DX =    0.0                 !
 ! R11   R(4,13)                 1.1122         -DE/DX =    0.0                 !
 ! R12   R(5,6)                  1.4088         -DE/DX =    0.0                 !
 ! R13   R(5,14)                 1.1071         -DE/DX =    0.0                 !
 ! R14   R(5,15)                 1.1149         -DE/DX =    0.0                 !
 ! R15   R(6,16)                 0.9473         -DE/DX =    0.0                 !
 ! A1    A(2,1,4)              111.016          -DE/DX =    0.0                 !
 ! A2    A(2,1,7)              109.3109         -DE/DX =    0.0                 !
 ! A3    A(2,1,8)              110.3996         -DE/DX =    0.0                 !
 ! A4    A(4,1,7)              110.2483         -DE/DX =    0.0                 !
 ! A5    A(4,1,8)              109.8219         -DE/DX =    0.0                 !
 ! A6    A(7,1,8)              105.9197         -DE/DX =    0.0                 !
 ! A7    A(1,2,3)              113.4313         -DE/DX =    0.0                 !
 ! A8    A(1,2,9)              112.2072         -DE/DX =    0.0                 !
 ! A9    A(1,2,10)             109.4236         -DE/DX =    0.0                 !
 ! A10   A(3,2,9)              103.471          -DE/DX =    0.0                 !
 ! A11   A(3,2,10)             109.7138         -DE/DX =    0.0                 !
 ! A12   A(9,2,10)             108.3648         -DE/DX =    0.0                 !
 ! A13   A(2,3,11)             106.5372         -DE/DX =    0.0                 !
 ! A14   A(1,4,5)              112.1079         -DE/DX =    0.0                 !
 ! A15   A(1,4,12)             110.057          -DE/DX =    0.0                 !
 ! A16   A(1,4,13)             108.9837         -DE/DX =    0.0                 !
 ! A17   A(5,4,12)             110.6536         -DE/DX =    0.0                 !
 ! A18   A(5,4,13)             108.752          -DE/DX =    0.0                 !
 ! A19   A(12,4,13)            106.0828         -DE/DX =    0.0                 !
 ! A20   A(4,5,6)              108.2913         -DE/DX =    0.0                 !
 ! A21   A(4,5,14)             110.6954         -DE/DX =    0.0                 !
 ! A22   A(4,5,15)             109.5897         -DE/DX =    0.0                 !
 ! A23   A(6,5,14)             109.7256         -DE/DX =    0.0                 !
 ! A24   A(6,5,15)             110.857          -DE/DX =    0.0                 !
 ! A25   A(14,5,15)            107.6906         -DE/DX =    0.0                 !
 ! A26   A(5,6,16)             106.5129         -DE/DX =    0.0                 !
 ! D1    D(4,1,2,3)            -69.1834         -DE/DX =    0.0                 !
 ! D2    D(4,1,2,9)            173.9986         -DE/DX =    0.0                 !
 ! D3    D(4,1,2,10)            53.6806         -DE/DX =    0.0                 !
 ! D4    D(7,1,2,3)            168.9815         -DE/DX =    0.0                 !
 ! D5    D(7,1,2,9)             52.1636         -DE/DX =    0.0                 !
 ! D6    D(7,1,2,10)           -68.1545         -DE/DX =    0.0                 !
 ! D7    D(8,1,2,3)             52.8519         -DE/DX =    0.0                 !
 ! D8    D(8,1,2,9)            -63.966          -DE/DX =    0.0                 !
 ! D9    D(8,1,2,10)           175.7159         -DE/DX =    0.0                 !
 ! D10   D(2,1,4,5)            -66.3076         -DE/DX =    0.0                 !
 ! D11   D(2,1,4,12)           170.0782         -DE/DX =    0.0                 !
 ! D12   D(2,1,4,13)            54.1355         -DE/DX =    0.0                 !
 ! D13   D(7,1,4,5)             54.9787         -DE/DX =    0.0                 !
 ! D14   D(7,1,4,12)           -68.6355         -DE/DX =    0.0                 !
 ! D15   D(7,1,4,13)           175.4218         -DE/DX =    0.0                 !
 ! D16   D(8,1,4,5)            171.3212         -DE/DX =    0.0                 !
 ! D17   D(8,1,4,12)            47.707          -DE/DX =    0.0                 !
 ! D18   D(8,1,4,13)           -68.2357         -DE/DX =    0.0                 !
 ! D19   D(1,2,3,11)            46.8069         -DE/DX =    0.0                 !
 ! D20   D(9,2,3,11)           168.6365         -DE/DX =    0.0                 !
 ! D21   D(10,2,3,11)          -75.8969         -DE/DX =    0.0                 !
 ! D22   D(1,4,5,6)            -80.2159         -DE/DX =    0.0                 !
 ! D23   D(1,4,5,14)           159.4613         -DE/DX =    0.0                 !
 ! D24   D(1,4,5,15)            40.8256         -DE/DX =    0.0                 !
 ! D25   D(12,4,5,6)            43.0631         -DE/DX =    0.0                 !
 ! D26   D(12,4,5,14)          -77.2596         -DE/DX =    0.0                 !
 ! D27   D(12,4,5,15)          164.1046         -DE/DX =    0.0                 !
 ! D28   D(13,4,5,6)           159.2065         -DE/DX =    0.0                 !
 ! D29   D(13,4,5,14)           38.8838         -DE/DX =    0.0                 !
 ! D30   D(13,4,5,15)          -79.752          -DE/DX =    0.0                 !
 ! D31   D(4,5,6,16)           176.0678         -DE/DX =    0.0                 !
 ! D32   D(14,5,6,16)          -63.0064         -DE/DX =    0.0                 !
 ! D33   D(15,5,6,16)           55.8143         -DE/DX =    0.0                 !
 --------------------------------------------------------------------------------
 GradGradGradGradGradGradGradGradGradGradGradGradGradGradGradGradGradGrad

                          Input orientation:                          
 ---------------------------------------------------------------------
 Center     Atomic      Atomic             Coordinates (Angstroms)
 Number     Number       Type             X           Y           Z
 ---------------------------------------------------------------------
      1          6           0        1.809772    1.119855    1.549306
      2          6           0        1.420066    1.190325    3.026832
      3          8           0        1.029575   -0.047557    3.560682
      4          6           0        3.109742    0.350657    1.363827
      5          6           0        4.303090    1.080608    1.980143
      6          8           0        4.717881    2.085182    1.083828
      7          1           0        1.911540    2.146415    1.148251
      8          1           0        1.003157    0.641907    0.959659
      9          1           0        0.539659    1.831874    3.195356
     10          1           0        2.272001    1.601612    3.615536
     11          1           0        1.683479   -0.681975    3.281078
     12          1           0        3.284841    0.154679    0.288296
     13          1           0        3.012215   -0.646408    1.846791
     14          1           0        5.138044    0.377849    2.166184
     15          1           0        4.006241    1.521098    2.960330
     16          1           0        5.415177    2.559677    1.515131
 ---------------------------------------------------------------------
                    Distance matrix (angstroms):
                    1          2          3          4          5
     1  C    0.000000
     2  C    1.529679   0.000000
     3  O    2.452996   1.403507   0.000000
     4  C    1.521838   2.515081   3.051531   0.000000
     5  C    2.530572   3.069108   3.806148   1.528645   0.000000
     6  O    3.099294   3.930854   4.928183   2.381825   1.408759
     7  H    1.106809   2.164421   3.378047   2.169542   2.747272
     8  H    1.107586   2.178940   2.690981   2.164689   3.481868
     9  H    2.197643   1.102317   1.976295   3.486234   4.025488
    10  H    2.171417   1.114236   2.065524   2.708670   2.659188
    11  H    2.502314   1.907757   0.953024   2.603153   3.414893
    12  H    2.167381   3.471243   3.979402   1.107174   2.180946
    13  H    2.157325   2.702040   2.688290   1.112162   2.160261
    14  H    3.465329   3.901819   4.359486   2.181405   1.107082
    15  H    2.641299   2.608090   3.417842   2.173123   1.114861
    16  H    3.882422   4.485675   5.496859   3.196514   1.908041
                    6          7          8          9         10
     6  O    0.000000
     7  H    2.807749   0.000000
     8  H    3.987184   1.767561   0.000000
     9  H    4.688311   2.484277   2.574722   0.000000
    10  H    3.553268   2.552300   3.095913   1.797381   0.000000
    11  H    4.657539   3.549754   2.757623   2.763170   2.381805
    12  H    2.532453   2.567585   2.427798   4.335897   3.766960
    13  H    3.309531   3.082094   2.546188   3.751538   2.954652
    14  H    2.064708   3.817636   4.315405   4.931382   3.436921
    15  H    2.084678   2.839441   3.714051   3.488411   1.855632
    16  H    0.947306   3.546951   4.842759   5.208026   3.899891
                   11         12         13         14         15
    11  H    0.000000
    12  H    3.495869   0.000000
    13  H    1.955501   1.773408   0.000000
    14  H    3.781566   2.647759   2.381232   0.000000
    15  H    3.217396   3.086630   2.631755   1.794063   0.000000
    16  H    5.249043   3.439109   4.020349   2.293697   2.269878
                   16
    16  H    0.000000
 Stoichiometry    C4H10O2
 Framework group  C1[X(C4H10O2)]
 Deg. of freedom    42
 Full point group                 C1      NOp   1
 Largest Abelian subgroup         C1      NOp   1
 Largest concise Abelian subgroup C1      NOp   1
                         Standard orientation:                         
 ---------------------------------------------------------------------
 Center     Atomic      Atomic             Coordinates (Angstroms)
 Number     Number       Type             X           Y           Z
 ---------------------------------------------------------------------
      1          6           0       -0.506937    0.972751   -0.212960
      2          6           0       -1.474902    0.201524    0.686023
      3          8           0       -2.408748   -0.565436   -0.027795
      4          6           0        0.446647    0.025886   -0.927183
      5          6           0        1.395096   -0.676444    0.044379
      6          8           0        2.442361    0.211524    0.359578
      7          1           0        0.061328    1.698994    0.399146
      8          1           0       -1.066194    1.573898   -0.956331
      9          1           0       -2.104245    0.872702    1.293106
     10          1           0       -0.896638   -0.456039    1.375040
     11          1           0       -1.919024   -1.035646   -0.696621
     12          1           0        1.016804    0.574158   -1.701878
     13          1           0       -0.145890   -0.744344   -1.468062
     14          1           0        1.809674   -1.596869   -0.410124
     15          1           0        0.836901   -0.973747    0.962500
     16          1           0        2.978953   -0.224116    1.007403
 ---------------------------------------------------------------------
 Rotational constants (GHZ):      7.6575062      1.6937438      1.6712466

 **********************************************************************

            Population analysis using the SCF density.

 **********************************************************************

 Orbital symmetries:
       Occupied  (A) (A) (A) (A) (A) (A) (A) (A) (A) (A) (A) (A)
                 (A) (A) (A) (A) (A) (A) (A)
       Virtual   (A) (A) (A) (A) (A) (A) (A) (A) (A) (A) (A) (A)
                 (A) (A) (A)
 The electronic state is 1-A.
 Alpha  occ. eigenvalues --   -1.49586  -1.38471  -1.22328  -1.00816  -0.87778
 Alpha  occ. eigenvalues --   -0.73975  -0.68516  -0.64776  -0.61041  -0.59386
 Alpha  occ. eigenvalues --   -0.56618  -0.53983  -0.51300  -0.50256  -0.46156
 Alpha  occ. eigenvalues --   -0.45120  -0.44212  -0.41128  -0.39757
 Alpha virt. eigenvalues --    0.11119   0.11878   0.12535   0.13190   0.13274
 Alpha virt. eigenvalues --    0.13665   0.14245   0.14796   0.15574   0.15743
 Alpha virt. eigenvalues --    0.17085   0.17686   0.17873   0.20217   0.20891
          Condensed to atoms (all electrons):
               1          2          3          4          5          6
     1  C    4.147142   0.000000   0.000000   0.000000   0.000000   0.000000
     2  C    0.000000   3.943152   0.000000   0.000000   0.000000   0.000000
     3  O    0.000000   0.000000   6.314718   0.000000   0.000000   0.000000
     4  C    0.000000   0.000000   0.000000   4.110970   0.000000   0.000000
     5  C    0.000000   0.000000   0.000000   0.000000   3.938226   0.000000
     6  O    0.000000   0.000000   0.000000   0.000000   0.000000   6.308301
     7  H    0.000000   0.000000   0.000000   0.000000   0.000000   0.000000
     8  H    0.000000   0.000000   0.000000   0.000000   0.000000   0.000000
     9  H    0.000000   0.000000   0.000000   0.000000   0.000000   0.000000
    10  H    0.000000   0.000000   0.000000   0.000000   0.000000   0.000000
    11  H    0.000000   0.000000   0.000000   0.000000   0.000000   0.000000
    12  H    0.000000   0.000000   0.000000   0.000000   0.000000   0.000000
    13  H    0.000000   0.000000   0.000000   0.000000   0.000000   0.000000
    14  H    0.000000   0.000000   0.000000   0.000000   0.000000   0.000000
    15  H    0.000000   0.000000   0.000000   0.000000   0.000000   0.000000
    16  H    0.000000   0.000000   0.000000   0.000000   0.000000   0.000000
               7          8          9         10         11         12
     1  C    0.000000   0.000000   0.000000   0.000000   0.000000   0.000000
     2  C    0.000000   0.000000   0.000000   0.000000   0.000000   0.000000
     3  O    0.000000   0.000000   0.000000   0.000000   0.000000   0.000000
     4  C    0.000000   0.000000   0.000000   0.000000   0.000000   0.000000
     5  C    0.000000   0.000000   0.000000   0.000000   0.000000   0.000000
     6  O    0.000000   0.000000   0.000000   0.000000   0.000000   0.000000
     7  H    0.927673   0.000000   0.000000   0.000000   0.000000   0.000000
     8  H    0.000000   0.936731   0.000000   0.000000   0.000000   0.000000
     9  H    0.000000   0.000000   0.943313   0.000000   0.000000   0.000000
    10  H    0.000000   0.000000   0.000000   0.970612   0.000000   0.000000
    11  H    0.000000   0.000000   0.000000   0.000000   0.814688   0.000000
    12  H    0.000000   0.000000   0.000000   0.000000   0.000000   0.928800
    13  H    0.000000   0.000000   0.000000   0.000000   0.000000   0.000000
    14  H    0.000000   0.000000   0.000000   0.000000   0.000000   0.000000
    15  H    0.000000   0.000000   0.000000   0.000000   0.000000   0.000000
    16  H    0.000000   0.000000   0.000000   0.000000   0.000000   0.000000
              13         14         15         16
     1  C    0.000000   0.000000   0.000000   0.000000
     2  C    0.000000   0.000000   0.000000   0.000000
     3  O    0.000000   0.000000   0.000000   0.000000
     4  C    0.000000   0.000000   0.000000   0.000000
     5  C    0.000000   0.000000   0.000000   0.000000
     6  O    0.000000   0.000000   0.000000   0.000000
     7  H    0.000000   0.000000   0.000000   0.000000
     8  H    0.000000   0.000000   0.000000   0.000000
     9  H    0.000000   0.000000   0.000000   0.000000
    10  H    0.000000   0.000000   0.000000   0.000000
    11  H    0.000000   0.000000   0.000000   0.000000
    12  H    0.000000   0.000000   0.000000   0.000000
    13  H    0.955088   0.000000   0.000000   0.000000
    14  H    0.000000   0.977227   0.000000   0.000000
    15  H    0.000000   0.000000   0.968725   0.000000
    16  H    0.000000   0.000000   0.000000   0.814634
 Mulliken charges:
               1
     1  C   -0.147142
     2  C    0.056848
     3  O   -0.314718
     4  C   -0.110970
     5  C    0.061774
     6  O   -0.308301
     7  H    0.072327
     8  H    0.063269
     9  H    0.056687
    10  H    0.029388
    11  H    0.185312
    12  H    0.071200
    13  H    0.044912
    14  H    0.022773
    15  H    0.031275
    16  H    0.185366
 Sum of Mulliken charges =  -0.00000
 Mulliken charges with hydrogens summed into heavy atoms:
               1
     1  C   -0.011546
     2  C    0.142922
     3  O   -0.129406
     4  C    0.005142
     5  C    0.115822
     6  O   -0.122934
 Charge=             -0.0000 electrons
 Dipole moment (field-independent basis, Debye):
    X=              1.4104    Y=             -1.1014    Z=              0.2639  Tot=              1.8088
 N-N= 1.749415744556D+02 E-N=-2.964961226273D+02  KE=-2.662431510820D+01
 1\1\GINC-GTX1080DELTA\FOpt\RPM3\ZDO\C4H10O2\MVEROT\17-Apr-2022\0\\#n P
 M3 Opt\\Optimisation de geometrie\\0,1\C,1.8097720095,1.1198554416,1.5
 493063684\C,1.4200661303,1.1903253742,3.02683174\O,1.0295750533,-0.047
 5567806,3.5606821629\C,3.1097417993,0.3506565105,1.3638271335\C,4.3030
 900392,1.0806084232,1.9801430502\O,4.7178813016,2.0851824874,1.0838281
 938\H,1.9115396993,2.1464154218,1.1482512788\H,1.0031570676,0.64190722
 ,0.9596591551\H,0.5396588082,1.8318737417,3.1953559562\H,2.2720007407,
 1.6016123964,3.6155360468\H,1.6834785033,-0.6819752736,3.2810776355\H,
 3.2848409815,0.1546794491,0.2882956068\H,3.0122148243,-0.6464079568,1.
 8467912579\H,5.138044216,0.3778488176,2.1661835593\H,4.0062414036,1.52
 10975626,2.9603297032\H,5.4151774224,2.5596771647,1.5151311516\\Versio
 n=AM64L-G09RevD.01\State=1-A\HF=-0.170665\RMSD=6.277e-09\RMSF=3.321e-0
 6\Dipole=0.7022931,0.0356026,0.1093695\PG=C01 [X(C4H10O2)]\\@


 EVERYTHING'S GOT A MORAL, IF ONLY YOU CAN FIND IT.

                                    -- LEWIS CARROL, ALICE IN WONDERLAND
 Job cpu time:       0 days  0 hours  0 minutes 12.3 seconds.
 File lengths (MBytes):  RWF=     72 Int=      0 D2E=      0 Chk=      3 Scr=      2
 Normal termination of Gaussian 09 at Sun Apr 17 23:36:15 2022.
