 Entering Gaussian System, Link 0=g09
 Input=/scratch/mverot/anthracene-2-3-opt/anthracene-2-3-opt.com
 Output=/scratch/mverot/anthracene-2-3-opt/anthracene-2-3-opt.log
 Initial command:
 /opt/g09/l1.exe "/scratch/mverot/anthracene-2-3-opt/Gau-2804356.inp" -scrdir="/scratch/mverot/anthracene-2-3-opt/"
 Entering Link 1 = /opt/g09/l1.exe PID=   2804358.
  
 Copyright (c) 1988,1990,1992,1993,1995,1998,2003,2009,2013,
            Gaussian, Inc.  All Rights Reserved.
  
 This is part of the Gaussian(R) 09 program.  It is based on
 the Gaussian(R) 03 system (copyright 2003, Gaussian, Inc.),
 the Gaussian(R) 98 system (copyright 1998, Gaussian, Inc.),
 the Gaussian(R) 94 system (copyright 1995, Gaussian, Inc.),
 the Gaussian 92(TM) system (copyright 1992, Gaussian, Inc.),
 the Gaussian 90(TM) system (copyright 1990, Gaussian, Inc.),
 the Gaussian 88(TM) system (copyright 1988, Gaussian, Inc.),
 the Gaussian 86(TM) system (copyright 1986, Carnegie Mellon
 University), and the Gaussian 82(TM) system (copyright 1983,
 Carnegie Mellon University). Gaussian is a federally registered
 trademark of Gaussian, Inc.
  
 This software contains proprietary and confidential information,
 including trade secrets, belonging to Gaussian, Inc.
  
 This software is provided under written license and may be
 used, copied, transmitted, or stored only in accord with that
 written license.
  
 The following legend is applicable only to US Government
 contracts under FAR:
  
                    RESTRICTED RIGHTS LEGEND
  
 Use, reproduction and disclosure by the US Government is
 subject to restrictions as set forth in subparagraphs (a)
 and (c) of the Commercial Computer Software - Restricted
 Rights clause in FAR 52.227-19.
  
 Gaussian, Inc.
 340 Quinnipiac St., Bldg. 40, Wallingford CT 06492
  
  
 ---------------------------------------------------------------
 Warning -- This program may not be used in any manner that
 competes with the business of Gaussian, Inc. or will provide
 assistance to any competitor of Gaussian, Inc.  The licensee
 of this program is prohibited from giving any competitor of
 Gaussian, Inc. access to this program.  By using this program,
 the user acknowledges that Gaussian, Inc. is engaged in the
 business of creating and licensing software in the field of
 computational chemistry and represents and warrants to the
 licensee that it is not a competitor of Gaussian, Inc. and that
 it will not use this program in any manner prohibited above.
 ---------------------------------------------------------------
  

 Cite this work as:
 Gaussian 09, Revision D.01,
 M. J. Frisch, G. W. Trucks, H. B. Schlegel, G. E. Scuseria, 
 M. A. Robb, J. R. Cheeseman, G. Scalmani, V. Barone, B. Mennucci, 
 G. A. Petersson, H. Nakatsuji, M. Caricato, X. Li, H. P. Hratchian, 
 A. F. Izmaylov, J. Bloino, G. Zheng, J. L. Sonnenberg, M. Hada, 
 M. Ehara, K. Toyota, R. Fukuda, J. Hasegawa, M. Ishida, T. Nakajima, 
 Y. Honda, O. Kitao, H. Nakai, T. Vreven, J. A. Montgomery, Jr., 
 J. E. Peralta, F. Ogliaro, M. Bearpark, J. J. Heyd, E. Brothers, 
 K. N. Kudin, V. N. Staroverov, T. Keith, R. Kobayashi, J. Normand, 
 K. Raghavachari, A. Rendell, J. C. Burant, S. S. Iyengar, J. Tomasi, 
 M. Cossi, N. Rega, J. M. Millam, M. Klene, J. E. Knox, J. B. Cross, 
 V. Bakken, C. Adamo, J. Jaramillo, R. Gomperts, R. E. Stratmann, 
 O. Yazyev, A. J. Austin, R. Cammi, C. Pomelli, J. W. Ochterski, 
 R. L. Martin, K. Morokuma, V. G. Zakrzewski, G. A. Voth, 
 P. Salvador, J. J. Dannenberg, S. Dapprich, A. D. Daniels, 
 O. Farkas, J. B. Foresman, J. V. Ortiz, J. Cioslowski, 
 and D. J. Fox, Gaussian, Inc., Wallingford CT, 2013.
 
 ******************************************
 Gaussian 09:  AM64L-G09RevD.01 24-Apr-2013
                11-Apr-2022 
 ******************************************
 %chk=anthracene-2-3-opt
 ----------
 #n AM1 Opt
 ----------
 1/14=-1,18=20,19=15,26=1,38=1/1,3;
 2/9=110,12=2,17=6,18=5,40=1/2;
 3/5=2,16=1,25=1,41=700000,71=1/1,2,3;
 4/35=1/1;
 5/5=2,35=1,38=5/2;
 6/7=2,8=2,9=2,10=2,28=1/1;
 7//1,2,3,16;
 1/14=-1,18=20,19=15,26=1/3(2);
 2/9=110/2;
 99//99;
 2/9=110/2;
 3/5=2,16=1,25=1,41=700000,71=1,135=20/1,2,3;
 4/5=5,16=3,35=1/1;
 5/5=2,35=1,38=5/2;
 7//1,2,3,16;
 1/14=-1,18=20,19=15,26=1/3(-5);
 2/9=110/2;
 6/7=2,8=2,9=2,10=2,19=2,28=1/1;
 99/9=1/99;
 ---------------------
 Geometry optimization
 ---------------------
 Symbolic Z-matrix:
 Charge =  0 Multiplicity = 1
 C                     0.01771   1.45101  -0.01652 
 C                     1.29133   0.70404  -0.00695 
 C                    -1.25582   0.70392  -0.00756 
 O                     0.0138    2.67628  -0.03072 
 C                     0.01862  -1.4377    0.01468 
 C                    -1.25536  -0.69133   0.0138 
 O                     0.01546  -2.66302   0.02448 
 C                     1.29176  -0.68995   0.00394 
 C                     2.50495   1.40355  -0.01 
 C                    -2.46651  -1.39612   0.03367 
 C                     2.50582  -1.38872   0.00708 
 C                    -2.46748   1.40804  -0.01817 
 C                     3.71355   0.70508  -0.00474 
 C                     3.71399  -0.68951   0.00246 
 C                    -3.6689    0.70378  -0.00216 
 C                    -3.66839  -0.6925    0.02807 
 H                     2.51333   2.49229  -0.0163 
 H                    -2.45875  -2.483     0.05223 
 H                     2.51486  -2.47745   0.01356 
 H                    -2.46047   2.49493  -0.0369 
 H                     4.6553    1.24982  -0.00675 
 H                     4.65606  -1.23366   0.00519 
 O                    -4.86019   1.37178  -0.01423 
 H                    -4.69816   2.32736  -0.0597 
 O                    -4.85916  -1.36113   0.05143 
 H                    -4.6962   -2.31639   0.10026 
 

 GradGradGradGradGradGradGradGradGradGradGradGradGradGradGradGradGradGrad
 Berny optimization.
 Initialization pass.
                           ----------------------------
                           !    Initial Parameters    !
                           ! (Angstroms and Degrees)  !
 --------------------------                            --------------------------
 ! Name  Definition              Value          Derivative Info.                !
 --------------------------------------------------------------------------------
 ! R1    R(1,2)                  1.4765         estimate D2E/DX2                !
 ! R2    R(1,3)                  1.4765         estimate D2E/DX2                !
 ! R3    R(1,4)                  1.2254         estimate D2E/DX2                !
 ! R4    R(2,8)                  1.394          estimate D2E/DX2                !
 ! R5    R(2,9)                  1.4008         estimate D2E/DX2                !
 ! R6    R(3,6)                  1.3954         estimate D2E/DX2                !
 ! R7    R(3,12)                 1.4014         estimate D2E/DX2                !
 ! R8    R(5,6)                  1.4765         estimate D2E/DX2                !
 ! R9    R(5,7)                  1.2254         estimate D2E/DX2                !
 ! R10   R(5,8)                  1.4765         estimate D2E/DX2                !
 ! R11   R(6,10)                 1.4014         estimate D2E/DX2                !
 ! R12   R(8,11)                 1.4008         estimate D2E/DX2                !
 ! R13   R(9,13)                 1.3959         estimate D2E/DX2                !
 ! R14   R(9,17)                 1.0888         estimate D2E/DX2                !
 ! R15   R(10,16)                1.3927         estimate D2E/DX2                !
 ! R16   R(10,18)                1.0871         estimate D2E/DX2                !
 ! R17   R(11,14)                1.3959         estimate D2E/DX2                !
 ! R18   R(11,19)                1.0888         estimate D2E/DX2                !
 ! R19   R(12,15)                1.3927         estimate D2E/DX2                !
 ! R20   R(12,20)                1.0871         estimate D2E/DX2                !
 ! R21   R(13,14)                1.3946         estimate D2E/DX2                !
 ! R22   R(13,21)                1.088          estimate D2E/DX2                !
 ! R23   R(14,22)                1.0879         estimate D2E/DX2                !
 ! R24   R(15,16)                1.3966         estimate D2E/DX2                !
 ! R25   R(15,23)                1.3658         estimate D2E/DX2                !
 ! R26   R(16,25)                1.3658         estimate D2E/DX2                !
 ! R27   R(23,24)                0.9703         estimate D2E/DX2                !
 ! R28   R(25,26)                0.9703         estimate D2E/DX2                !
 ! A1    A(2,1,3)              119.2077         estimate D2E/DX2                !
 ! A2    A(2,1,4)              120.5762         estimate D2E/DX2                !
 ! A3    A(3,1,4)              120.2161         estimate D2E/DX2                !
 ! A4    A(1,2,8)              120.4107         estimate D2E/DX2                !
 ! A5    A(1,2,9)              119.6485         estimate D2E/DX2                !
 ! A6    A(8,2,9)              119.9408         estimate D2E/DX2                !
 ! A7    A(1,3,6)              120.3799         estimate D2E/DX2                !
 ! A8    A(1,3,12)             119.4366         estimate D2E/DX2                !
 ! A9    A(6,3,12)             120.1834         estimate D2E/DX2                !
 ! A10   A(6,5,7)              120.2157         estimate D2E/DX2                !
 ! A11   A(6,5,8)              119.2078         estimate D2E/DX2                !
 ! A12   A(7,5,8)              120.5765         estimate D2E/DX2                !
 ! A13   A(3,6,5)              120.3798         estimate D2E/DX2                !
 ! A14   A(3,6,10)             120.1841         estimate D2E/DX2                !
 ! A15   A(5,6,10)             119.4361         estimate D2E/DX2                !
 ! A16   A(2,8,5)              120.4111         estimate D2E/DX2                !
 ! A17   A(2,8,11)             119.941          estimate D2E/DX2                !
 ! A18   A(5,8,11)             119.6479         estimate D2E/DX2                !
 ! A19   A(2,9,13)             120.0164         estimate D2E/DX2                !
 ! A20   A(2,9,17)             120.3996         estimate D2E/DX2                !
 ! A21   A(13,9,17)            119.584          estimate D2E/DX2                !
 ! A22   A(6,10,16)            119.4507         estimate D2E/DX2                !
 ! A23   A(6,10,18)            119.7947         estimate D2E/DX2                !
 ! A24   A(16,10,18)           120.7545         estimate D2E/DX2                !
 ! A25   A(8,11,14)            120.0166         estimate D2E/DX2                !
 ! A26   A(8,11,19)            120.3991         estimate D2E/DX2                !
 ! A27   A(14,11,19)           119.5843         estimate D2E/DX2                !
 ! A28   A(3,12,15)            119.4511         estimate D2E/DX2                !
 ! A29   A(3,12,20)            119.795          estimate D2E/DX2                !
 ! A30   A(15,12,20)           120.7538         estimate D2E/DX2                !
 ! A31   A(9,13,14)            120.043          estimate D2E/DX2                !
 ! A32   A(9,13,21)            119.9284         estimate D2E/DX2                !
 ! A33   A(14,13,21)           120.0286         estimate D2E/DX2                !
 ! A34   A(11,14,13)           120.0419         estimate D2E/DX2                !
 ! A35   A(11,14,22)           119.9285         estimate D2E/DX2                !
 ! A36   A(13,14,22)           120.0296         estimate D2E/DX2                !
 ! A37   A(12,15,16)           120.3639         estimate D2E/DX2                !
 ! A38   A(12,15,23)           120.3304         estimate D2E/DX2                !
 ! A39   A(16,15,23)           119.3057         estimate D2E/DX2                !
 ! A40   A(10,16,15)           120.3647         estimate D2E/DX2                !
 ! A41   A(10,16,25)           120.3295         estimate D2E/DX2                !
 ! A42   A(15,16,25)           119.3058         estimate D2E/DX2                !
 ! A43   A(15,23,24)           109.6592         estimate D2E/DX2                !
 ! A44   A(16,25,26)           109.6571         estimate D2E/DX2                !
 ! D1    D(3,1,2,8)              0.3049         estimate D2E/DX2                !
 ! D2    D(3,1,2,9)           -179.749          estimate D2E/DX2                !
 ! D3    D(4,1,2,8)           -179.7492         estimate D2E/DX2                !
 ! D4    D(4,1,2,9)              0.1969         estimate D2E/DX2                !
 ! D5    D(2,1,3,6)              0.193          estimate D2E/DX2                !
 ! D6    D(2,1,3,12)          -179.9255         estimate D2E/DX2                !
 ! D7    D(4,1,3,6)           -179.753          estimate D2E/DX2                !
 ! D8    D(4,1,3,12)             0.1284         estimate D2E/DX2                !
 ! D9    D(1,2,8,5)             -0.3884         estimate D2E/DX2                !
 ! D10   D(1,2,8,11)           179.7225         estimate D2E/DX2                !
 ! D11   D(9,2,8,5)            179.6656         estimate D2E/DX2                !
 ! D12   D(9,2,8,11)            -0.2234         estimate D2E/DX2                !
 ! D13   D(1,2,9,13)          -179.8231         estimate D2E/DX2                !
 ! D14   D(1,2,9,17)             0.1871         estimate D2E/DX2                !
 ! D15   D(8,2,9,13)             0.1233         estimate D2E/DX2                !
 ! D16   D(8,2,9,17)          -179.8665         estimate D2E/DX2                !
 ! D17   D(1,3,6,5)             -0.5857         estimate D2E/DX2                !
 ! D18   D(1,3,6,10)           179.4592         estimate D2E/DX2                !
 ! D19   D(12,3,6,5)           179.5337         estimate D2E/DX2                !
 ! D20   D(12,3,6,10)           -0.4214         estimate D2E/DX2                !
 ! D21   D(1,3,12,15)         -179.6426         estimate D2E/DX2                !
 ! D22   D(1,3,12,20)            0.2452         estimate D2E/DX2                !
 ! D23   D(6,3,12,15)            0.239          estimate D2E/DX2                !
 ! D24   D(6,3,12,20)         -179.8731         estimate D2E/DX2                !
 ! D25   D(7,5,6,3)           -179.5137         estimate D2E/DX2                !
 ! D26   D(7,5,6,10)             0.4417         estimate D2E/DX2                !
 ! D27   D(8,5,6,3)              0.5001         estimate D2E/DX2                !
 ! D28   D(8,5,6,10)          -179.5445         estimate D2E/DX2                !
 ! D29   D(6,5,8,2)             -0.0023         estimate D2E/DX2                !
 ! D30   D(6,5,8,11)           179.8871         estimate D2E/DX2                !
 ! D31   D(7,5,8,2)           -179.9884         estimate D2E/DX2                !
 ! D32   D(7,5,8,11)            -0.099          estimate D2E/DX2                !
 ! D33   D(3,6,10,16)            0.1812         estimate D2E/DX2                !
 ! D34   D(3,6,10,18)         -179.88           estimate D2E/DX2                !
 ! D35   D(5,6,10,16)         -179.7743         estimate D2E/DX2                !
 ! D36   D(5,6,10,18)            0.1645         estimate D2E/DX2                !
 ! D37   D(2,8,11,14)            0.1493         estimate D2E/DX2                !
 ! D38   D(2,8,11,19)         -179.8775         estimate D2E/DX2                !
 ! D39   D(5,8,11,14)         -179.7406         estimate D2E/DX2                !
 ! D40   D(5,8,11,19)            0.2326         estimate D2E/DX2                !
 ! D41   D(2,9,13,14)            0.052          estimate D2E/DX2                !
 ! D42   D(2,9,13,21)         -179.9776         estimate D2E/DX2                !
 ! D43   D(17,9,13,14)        -179.9582         estimate D2E/DX2                !
 ! D44   D(17,9,13,21)           0.0122         estimate D2E/DX2                !
 ! D45   D(6,10,16,15)           0.2394         estimate D2E/DX2                !
 ! D46   D(6,10,16,25)        -179.7929         estimate D2E/DX2                !
 ! D47   D(18,10,16,15)       -179.6988         estimate D2E/DX2                !
 ! D48   D(18,10,16,25)          0.2689         estimate D2E/DX2                !
 ! D49   D(8,11,14,13)           0.0258         estimate D2E/DX2                !
 ! D50   D(8,11,14,22)         179.9828         estimate D2E/DX2                !
 ! D51   D(19,11,14,13)       -179.9476         estimate D2E/DX2                !
 ! D52   D(19,11,14,22)          0.0094         estimate D2E/DX2                !
 ! D53   D(3,12,15,16)           0.1815         estimate D2E/DX2                !
 ! D54   D(3,12,15,23)        -179.8981         estimate D2E/DX2                !
 ! D55   D(20,12,15,16)       -179.7053         estimate D2E/DX2                !
 ! D56   D(20,12,15,23)          0.2152         estimate D2E/DX2                !
 ! D57   D(9,13,14,11)          -0.1263         estimate D2E/DX2                !
 ! D58   D(9,13,14,22)         179.9168         estimate D2E/DX2                !
 ! D59   D(21,13,14,11)        179.9033         estimate D2E/DX2                !
 ! D60   D(21,13,14,22)         -0.0536         estimate D2E/DX2                !
 ! D61   D(12,15,16,10)         -0.4229         estimate D2E/DX2                !
 ! D62   D(12,15,16,25)        179.6091         estimate D2E/DX2                !
 ! D63   D(23,15,16,10)        179.6558         estimate D2E/DX2                !
 ! D64   D(23,15,16,25)         -0.3122         estimate D2E/DX2                !
 ! D65   D(12,15,23,24)          1.612          estimate D2E/DX2                !
 ! D66   D(16,15,23,24)       -178.4667         estimate D2E/DX2                !
 ! D67   D(10,16,25,26)          1.8729         estimate D2E/DX2                !
 ! D68   D(15,16,25,26)       -178.1591         estimate D2E/DX2                !
 --------------------------------------------------------------------------------
 Trust Radius=3.00D-01 FncErr=1.00D-07 GrdErr=1.00D-07
 Number of steps in this run=    150 maximum allowed number of steps=    156.
 GradGradGradGradGradGradGradGradGradGradGradGradGradGradGradGradGradGrad

                          Input orientation:                          
 ---------------------------------------------------------------------
 Center     Atomic      Atomic             Coordinates (Angstroms)
 Number     Number       Type             X           Y           Z
 ---------------------------------------------------------------------
      1          6           0        0.017710    1.451010   -0.016520
      2          6           0        1.291330    0.704040   -0.006950
      3          6           0       -1.255820    0.703920   -0.007560
      4          8           0        0.013800    2.676280   -0.030720
      5          6           0        0.018620   -1.437700    0.014680
      6          6           0       -1.255360   -0.691330    0.013800
      7          8           0        0.015460   -2.663020    0.024480
      8          6           0        1.291760   -0.689950    0.003940
      9          6           0        2.504950    1.403550   -0.010000
     10          6           0       -2.466510   -1.396120    0.033670
     11          6           0        2.505820   -1.388720    0.007080
     12          6           0       -2.467480    1.408040   -0.018170
     13          6           0        3.713550    0.705080   -0.004740
     14          6           0        3.713990   -0.689510    0.002460
     15          6           0       -3.668900    0.703780   -0.002160
     16          6           0       -3.668390   -0.692500    0.028070
     17          1           0        2.513330    2.492290   -0.016300
     18          1           0       -2.458750   -2.483000    0.052230
     19          1           0        2.514860   -2.477450    0.013560
     20          1           0       -2.460470    2.494930   -0.036900
     21          1           0        4.655300    1.249820   -0.006750
     22          1           0        4.656060   -1.233660    0.005190
     23          8           0       -4.860190    1.371780   -0.014230
     24          1           0       -4.698160    2.327360   -0.059700
     25          8           0       -4.859160   -1.361130    0.051430
     26          1           0       -4.696200   -2.316390    0.100260
 ---------------------------------------------------------------------
                    Distance matrix (angstroms):
                    1          2          3          4          5
     1  C    0.000000
     2  C    1.476538   0.000000
     3  C    1.476517   2.547150   0.000000
     4  O    1.225359   2.349974   2.345778   0.000000
     5  C    2.888879   2.491447   2.492234   4.114233   0.000000
     6  C    2.492237   2.903983   1.395414   3.599104   1.476514
     7  O    4.114235   3.600823   3.599092   5.339586   1.225363
     8  C    2.491452   1.394033   2.903992   3.600818   1.476527
     9  C    2.487701   1.400784   3.825295   2.797517   3.775599
    10  C    3.778891   4.305076   2.424384   4.768703   2.485550
    11  C    3.775621   2.419675   4.304566   4.768209   2.487694
    12  C    2.485562   3.824185   1.401434   2.786636   3.778890
    13  C    3.770382   2.422221   4.969371   4.192190   4.271345
    14  C    4.271378   2.794880   5.161469   5.002104   3.770371
    15  C    3.761602   4.960232   2.413086   4.177781   4.264273
    16  C    4.264265   5.152705   2.787786   4.991058   3.761588
    17  H    2.704142   2.165920   4.171910   2.506334   4.655036
    18  H    4.649088   4.921771   3.406916   5.721761   2.689131
    19  H    4.655047   3.408713   4.933517   5.728717   2.704126
    20  H    2.689156   4.157426   2.158648   2.480915   4.649100
    21  H    4.641962   3.407957   5.936274   4.855809   5.359293
    22  H    5.359311   3.882813   6.221310   6.069555   4.641936
    23  O    4.878544   6.187659   3.665728   5.045569   5.629991
    24  H    4.796799   6.205799   3.806308   4.724950   6.035663
    25  O    5.629974   6.488210   4.153549   6.328757   4.878519
    26  H    6.035552   6.707086   4.579314   6.864984   4.796764
                    6          7          8          9         10
     6  C    0.000000
     7  O    2.345775   0.000000
     8  C    2.547139   2.349972   0.000000
     9  C    4.304535   4.768201   2.419662   0.000000
    10  C    1.401431   2.786628   3.824154   5.705740   0.000000
    11  C    3.825294   2.797505   1.400797   2.792322   4.972407
    12  C    2.424379   4.768683   4.305106   4.972439   2.804639
    13  C    5.161431   5.002082   2.794862   1.395923   6.527607
    14  C    4.969363   4.192177   2.422230   2.417195   6.220840
    15  C    2.787788   4.991048   5.152734   6.213386   2.420042
    16  C    2.413072   4.177764   4.960209   6.519586   1.392705
    17  H    4.933494   5.728721   3.408709   1.088790   6.318310
    18  H    2.158635   2.480906   4.157365   6.304559   1.087066
    19  H    4.171904   2.506303   2.165923   3.881084   5.097423
    20  H    3.406921   5.721752   4.921825   5.084017   3.891695
    21  H    6.221285   6.069548   3.882811   2.155841   7.597553
    22  H    5.936252   4.855781   3.407952   3.403290   7.124479
    23  O    4.153554   6.328750   6.488262   7.365210   3.659682
    24  H    4.579385   6.865070   6.707261   7.262278   4.342037
    25  O    3.665709   5.045549   6.187613   7.866215   2.392972
    26  H    3.806268   4.725001   6.205663   8.105965   2.413058
                   11         12         13         14         15
    11  C    0.000000
    12  C    5.705806   0.000000
    13  C    2.417178   6.220889   0.000000
    14  C    1.395919   6.527688   1.394609   0.000000
    15  C    6.519648   1.392713   7.382451   7.513211   0.000000
    16  C    6.213375   2.420040   7.513145   7.382425   1.396607
    17  H    3.881088   5.097457   2.152854   3.400851   6.435754
    18  H    5.083940   3.891687   6.947258   6.428204   3.409250
    19  H    1.088787   6.318366   3.400837   2.152851   6.954089
    20  H    6.304658   1.087074   6.428306   6.947385   2.160955
    21  H    3.403285   7.124546   1.087952   2.155725   8.342091
    22  H    2.155824   7.597628   2.155722   1.087935   8.547437
    23  O    7.866315   2.392988   8.599628   8.818490   1.365848
    24  H    8.106235   2.413049   8.566894   8.936981   1.923200
    25  O    7.365165   3.659683   8.818375   8.599557   2.383997
    26  H    7.262117   4.341958   8.936677   8.566656   3.191749
                   16         17         18         19         20
    16  C    0.000000
    17  H    6.954029   0.000000
    18  H    2.160950   7.034187   0.000000
    19  H    6.435747   4.969830   4.973763   0.000000
    20  H    3.409252   4.973843   4.978728   7.034274   0.000000
    21  H    8.547376   2.476259   8.034123   4.298190   7.223946
    22  H    8.342053   4.298192   7.223821   2.476251   8.034249
    23  O    2.383994   7.458173   4.542099   8.319177   2.649648
    24  H    3.191815   7.213506   5.307264   8.667135   2.244071
    25  O    1.365850   8.319077   2.649634   7.458135   4.542105
    26  H    1.923181   8.666851   2.244159   7.213379   5.307175
                   21         22         23         24         25
    21  H    0.000000
    22  H    2.483509   0.000000
    23  O    9.516274   9.866494   0.000000
    24  H    9.415472  10.009321   0.970286   0.000000
    25  O    9.866377   9.516186   2.733699   3.693674   0.000000
    26  H   10.008989   9.415206   3.693589   4.646505   0.970290
                   26
    26  H    0.000000
 Stoichiometry    C14H8O4
 Framework group  C1[X(C14H8O4)]
 Deg. of freedom    72
 Full point group                 C1      NOp   1
 Largest Abelian subgroup         C1      NOp   1
 Largest concise Abelian subgroup C1      NOp   1
                         Standard orientation:                         
 ---------------------------------------------------------------------
 Center     Atomic      Atomic             Coordinates (Angstroms)
 Number     Number       Type             X           Y           Z
 ---------------------------------------------------------------------
      1          6           0        0.629803    1.444455    0.000119
      2          6           0        1.903186    0.697024    0.002784
      3          6           0       -0.643955    0.697712   -0.004021
      4          8           0        0.626272    2.669806    0.002314
      5          6           0        0.629825   -1.444414   -0.007356
      6          6           0       -0.643939   -0.697699   -0.001342
      7          8           0        0.626296   -2.669754   -0.013970
      8          6           0        1.903197   -0.696987   -0.004989
      9          6           0        3.117006    1.396131    0.012050
     10          6           0       -1.855332   -1.402312    0.006146
     11          6           0        3.117049   -1.396117   -0.008252
     12          6           0       -1.855388    1.402291   -0.008149
     13          6           0        4.325393    0.697274    0.010897
     14          6           0        4.325424   -0.697287   -0.000573
     15          6           0       -3.057041    0.698257   -0.004491
     16          6           0       -3.056997   -0.698303    0.007044
     17          1           0        3.125708    2.484856    0.020347
     18          1           0       -1.847923   -2.489346    0.010172
     19          1           0        3.125767   -2.484839   -0.016327
     20          1           0       -1.848026    2.489332   -0.012309
     21          1           0        5.267299    1.241697    0.018470
     22          1           0        5.267331   -1.241720   -0.002838
     23          8           0       -4.248110    1.366732   -0.010513
     24          1           0       -4.085701    2.322784   -0.042792
     25          8           0       -4.248009   -1.366812    0.018555
     26          1           0       -4.085437   -2.322691    0.054987
 ---------------------------------------------------------------------
 Rotational constants (GHZ):      0.9766187      0.2805453      0.2179441
 Standard basis: VSTO-6G (5D, 7F)
 There are    80 symmetry adapted cartesian basis functions of A   symmetry.
 There are    80 symmetry adapted basis functions of A   symmetry.
    80 basis functions,   480 primitive gaussians,    80 cartesian basis functions
    44 alpha electrons       44 beta electrons
       nuclear repulsion energy       663.7355349547 Hartrees.
 Integral buffers will be    131072 words long.
 Regular integral format.
 Two-electron integral symmetry is turned off.
 Do NDO integrals.
 One-electron integrals computed using PRISM.
 NBasis=    80 RedAO= F EigKep=  0.00D+00  NBF=    80
 NBsUse=    80 1.00D-04 EigRej=  0.00D+00 NBFU=    80
 Simple Huckel Guess.
 Overlap will be assumed to be unity.
 Keep J ints in memory in canonical form, NReq=933890.
 Requested convergence on RMS density matrix=1.00D-08 within 128 cycles.
 Requested convergence on MAX density matrix=1.00D-06.
 Requested convergence on             energy=1.00D-06.
 No special actions if energy rises.
 SCF Done:  E(RAM1) = -0.140871460396     A.U. after   15 cycles
            NFock= 14  Conv=0.40D-08     -V/T= 0.9977

 **********************************************************************

            Population analysis using the SCF density.

 **********************************************************************

 Orbital symmetries:
       Occupied  (A) (A) (A) (A) (A) (A) (A) (A) (A) (A) (A) (A)
                 (A) (A) (A) (A) (A) (A) (A) (A) (A) (A) (A) (A)
                 (A) (A) (A) (A) (A) (A) (A) (A) (A) (A) (A) (A)
                 (A) (A) (A) (A) (A) (A) (A) (A)
       Virtual   (A) (A) (A) (A) (A) (A) (A) (A) (A) (A) (A) (A)
                 (A) (A) (A) (A) (A) (A) (A) (A) (A) (A) (A) (A)
                 (A) (A) (A) (A) (A) (A) (A) (A) (A) (A) (A) (A)
 The electronic state is 1-A.
 Alpha  occ. eigenvalues --   -1.55197  -1.50218  -1.46506  -1.42946  -1.42102
 Alpha  occ. eigenvalues --   -1.36776  -1.23421  -1.18224  -1.16491  -1.12856
 Alpha  occ. eigenvalues --   -0.98739  -0.95363  -0.89002  -0.87079  -0.81156
 Alpha  occ. eigenvalues --   -0.76815  -0.73290  -0.69954  -0.67261  -0.66865
 Alpha  occ. eigenvalues --   -0.62457  -0.62127  -0.60762  -0.60623  -0.58060
 Alpha  occ. eigenvalues --   -0.57609  -0.56845  -0.56479  -0.55516  -0.55179
 Alpha  occ. eigenvalues --   -0.52755  -0.51884  -0.51506  -0.50207  -0.49020
 Alpha  occ. eigenvalues --   -0.48932  -0.46236  -0.46063  -0.41676  -0.40070
 Alpha  occ. eigenvalues --   -0.37983  -0.37529  -0.37263  -0.34330
 Alpha virt. eigenvalues --   -0.05108  -0.01872  -0.00760  -0.00407   0.04682
 Alpha virt. eigenvalues --    0.05143   0.08093   0.08285   0.09024   0.09351
 Alpha virt. eigenvalues --    0.09720   0.10239   0.12317   0.12603   0.12945
 Alpha virt. eigenvalues --    0.13329   0.13610   0.13777   0.14214   0.14479
 Alpha virt. eigenvalues --    0.14645   0.15580   0.16036   0.16190   0.16756
 Alpha virt. eigenvalues --    0.16993   0.17187   0.17990   0.18465   0.18631
 Alpha virt. eigenvalues --    0.18890   0.20041   0.20671   0.22254   0.22384
 Alpha virt. eigenvalues --    0.23135
          Condensed to atoms (all electrons):
               1          2          3          4          5          6
     1  C    3.691763   0.000000   0.000000   0.000000   0.000000   0.000000
     2  C    0.000000   4.107264   0.000000   0.000000   0.000000   0.000000
     3  C    0.000000   0.000000   4.105604   0.000000   0.000000   0.000000
     4  O    0.000000   0.000000   0.000000   6.284852   0.000000   0.000000
     5  C    0.000000   0.000000   0.000000   0.000000   3.691765   0.000000
     6  C    0.000000   0.000000   0.000000   0.000000   0.000000   4.105618
     7  O    0.000000   0.000000   0.000000   0.000000   0.000000   0.000000
     8  C    0.000000   0.000000   0.000000   0.000000   0.000000   0.000000
     9  C    0.000000   0.000000   0.000000   0.000000   0.000000   0.000000
    10  C    0.000000   0.000000   0.000000   0.000000   0.000000   0.000000
    11  C    0.000000   0.000000   0.000000   0.000000   0.000000   0.000000
    12  C    0.000000   0.000000   0.000000   0.000000   0.000000   0.000000
    13  C    0.000000   0.000000   0.000000   0.000000   0.000000   0.000000
    14  C    0.000000   0.000000   0.000000   0.000000   0.000000   0.000000
    15  C    0.000000   0.000000   0.000000   0.000000   0.000000   0.000000
    16  C    0.000000   0.000000   0.000000   0.000000   0.000000   0.000000
    17  H    0.000000   0.000000   0.000000   0.000000   0.000000   0.000000
    18  H    0.000000   0.000000   0.000000   0.000000   0.000000   0.000000
    19  H    0.000000   0.000000   0.000000   0.000000   0.000000   0.000000
    20  H    0.000000   0.000000   0.000000   0.000000   0.000000   0.000000
    21  H    0.000000   0.000000   0.000000   0.000000   0.000000   0.000000
    22  H    0.000000   0.000000   0.000000   0.000000   0.000000   0.000000
    23  O    0.000000   0.000000   0.000000   0.000000   0.000000   0.000000
    24  H    0.000000   0.000000   0.000000   0.000000   0.000000   0.000000
    25  O    0.000000   0.000000   0.000000   0.000000   0.000000   0.000000
    26  H    0.000000   0.000000   0.000000   0.000000   0.000000   0.000000
               7          8          9         10         11         12
     1  C    0.000000   0.000000   0.000000   0.000000   0.000000   0.000000
     2  C    0.000000   0.000000   0.000000   0.000000   0.000000   0.000000
     3  C    0.000000   0.000000   0.000000   0.000000   0.000000   0.000000
     4  O    0.000000   0.000000   0.000000   0.000000   0.000000   0.000000
     5  C    0.000000   0.000000   0.000000   0.000000   0.000000   0.000000
     6  C    0.000000   0.000000   0.000000   0.000000   0.000000   0.000000
     7  O    6.284856   0.000000   0.000000   0.000000   0.000000   0.000000
     8  C    0.000000   4.107270   0.000000   0.000000   0.000000   0.000000
     9  C    0.000000   0.000000   4.083421   0.000000   0.000000   0.000000
    10  C    0.000000   0.000000   0.000000   4.149185   0.000000   0.000000
    11  C    0.000000   0.000000   0.000000   0.000000   4.083418   0.000000
    12  C    0.000000   0.000000   0.000000   0.000000   0.000000   4.149205
    13  C    0.000000   0.000000   0.000000   0.000000   0.000000   0.000000
    14  C    0.000000   0.000000   0.000000   0.000000   0.000000   0.000000
    15  C    0.000000   0.000000   0.000000   0.000000   0.000000   0.000000
    16  C    0.000000   0.000000   0.000000   0.000000   0.000000   0.000000
    17  H    0.000000   0.000000   0.000000   0.000000   0.000000   0.000000
    18  H    0.000000   0.000000   0.000000   0.000000   0.000000   0.000000
    19  H    0.000000   0.000000   0.000000   0.000000   0.000000   0.000000
    20  H    0.000000   0.000000   0.000000   0.000000   0.000000   0.000000
    21  H    0.000000   0.000000   0.000000   0.000000   0.000000   0.000000
    22  H    0.000000   0.000000   0.000000   0.000000   0.000000   0.000000
    23  O    0.000000   0.000000   0.000000   0.000000   0.000000   0.000000
    24  H    0.000000   0.000000   0.000000   0.000000   0.000000   0.000000
    25  O    0.000000   0.000000   0.000000   0.000000   0.000000   0.000000
    26  H    0.000000   0.000000   0.000000   0.000000   0.000000   0.000000
              13         14         15         16         17         18
     1  C    0.000000   0.000000   0.000000   0.000000   0.000000   0.000000
     2  C    0.000000   0.000000   0.000000   0.000000   0.000000   0.000000
     3  C    0.000000   0.000000   0.000000   0.000000   0.000000   0.000000
     4  O    0.000000   0.000000   0.000000   0.000000   0.000000   0.000000
     5  C    0.000000   0.000000   0.000000   0.000000   0.000000   0.000000
     6  C    0.000000   0.000000   0.000000   0.000000   0.000000   0.000000
     7  O    0.000000   0.000000   0.000000   0.000000   0.000000   0.000000
     8  C    0.000000   0.000000   0.000000   0.000000   0.000000   0.000000
     9  C    0.000000   0.000000   0.000000   0.000000   0.000000   0.000000
    10  C    0.000000   0.000000   0.000000   0.000000   0.000000   0.000000
    11  C    0.000000   0.000000   0.000000   0.000000   0.000000   0.000000
    12  C    0.000000   0.000000   0.000000   0.000000   0.000000   0.000000
    13  C    4.117309   0.000000   0.000000   0.000000   0.000000   0.000000
    14  C    0.000000   4.117310   0.000000   0.000000   0.000000   0.000000
    15  C    0.000000   0.000000   3.920408   0.000000   0.000000   0.000000
    16  C    0.000000   0.000000   0.000000   3.920425   0.000000   0.000000
    17  H    0.000000   0.000000   0.000000   0.000000   0.841746   0.000000
    18  H    0.000000   0.000000   0.000000   0.000000   0.000000   0.835750
    19  H    0.000000   0.000000   0.000000   0.000000   0.000000   0.000000
    20  H    0.000000   0.000000   0.000000   0.000000   0.000000   0.000000
    21  H    0.000000   0.000000   0.000000   0.000000   0.000000   0.000000
    22  H    0.000000   0.000000   0.000000   0.000000   0.000000   0.000000
    23  O    0.000000   0.000000   0.000000   0.000000   0.000000   0.000000
    24  H    0.000000   0.000000   0.000000   0.000000   0.000000   0.000000
    25  O    0.000000   0.000000   0.000000   0.000000   0.000000   0.000000
    26  H    0.000000   0.000000   0.000000   0.000000   0.000000   0.000000
              19         20         21         22         23         24
     1  C    0.000000   0.000000   0.000000   0.000000   0.000000   0.000000
     2  C    0.000000   0.000000   0.000000   0.000000   0.000000   0.000000
     3  C    0.000000   0.000000   0.000000   0.000000   0.000000   0.000000
     4  O    0.000000   0.000000   0.000000   0.000000   0.000000   0.000000
     5  C    0.000000   0.000000   0.000000   0.000000   0.000000   0.000000
     6  C    0.000000   0.000000   0.000000   0.000000   0.000000   0.000000
     7  O    0.000000   0.000000   0.000000   0.000000   0.000000   0.000000
     8  C    0.000000   0.000000   0.000000   0.000000   0.000000   0.000000
     9  C    0.000000   0.000000   0.000000   0.000000   0.000000   0.000000
    10  C    0.000000   0.000000   0.000000   0.000000   0.000000   0.000000
    11  C    0.000000   0.000000   0.000000   0.000000   0.000000   0.000000
    12  C    0.000000   0.000000   0.000000   0.000000   0.000000   0.000000
    13  C    0.000000   0.000000   0.000000   0.000000   0.000000   0.000000
    14  C    0.000000   0.000000   0.000000   0.000000   0.000000   0.000000
    15  C    0.000000   0.000000   0.000000   0.000000   0.000000   0.000000
    16  C    0.000000   0.000000   0.000000   0.000000   0.000000   0.000000
    17  H    0.000000   0.000000   0.000000   0.000000   0.000000   0.000000
    18  H    0.000000   0.000000   0.000000   0.000000   0.000000   0.000000
    19  H    0.841746   0.000000   0.000000   0.000000   0.000000   0.000000
    20  H    0.000000   0.835753   0.000000   0.000000   0.000000   0.000000
    21  H    0.000000   0.000000   0.859071   0.000000   0.000000   0.000000
    22  H    0.000000   0.000000   0.000000   0.859070   0.000000   0.000000
    23  O    0.000000   0.000000   0.000000   0.000000   6.231172   0.000000
    24  H    0.000000   0.000000   0.000000   0.000000   0.000000   0.772419
    25  O    0.000000   0.000000   0.000000   0.000000   0.000000   0.000000
    26  H    0.000000   0.000000   0.000000   0.000000   0.000000   0.000000
              25         26
     1  C    0.000000   0.000000
     2  C    0.000000   0.000000
     3  C    0.000000   0.000000
     4  O    0.000000   0.000000
     5  C    0.000000   0.000000
     6  C    0.000000   0.000000
     7  O    0.000000   0.000000
     8  C    0.000000   0.000000
     9  C    0.000000   0.000000
    10  C    0.000000   0.000000
    11  C    0.000000   0.000000
    12  C    0.000000   0.000000
    13  C    0.000000   0.000000
    14  C    0.000000   0.000000
    15  C    0.000000   0.000000
    16  C    0.000000   0.000000
    17  H    0.000000   0.000000
    18  H    0.000000   0.000000
    19  H    0.000000   0.000000
    20  H    0.000000   0.000000
    21  H    0.000000   0.000000
    22  H    0.000000   0.000000
    23  O    0.000000   0.000000
    24  H    0.000000   0.000000
    25  O    6.231178   0.000000
    26  H    0.000000   0.772422
 Mulliken charges:
               1
     1  C    0.308237
     2  C   -0.107264
     3  C   -0.105604
     4  O   -0.284852
     5  C    0.308235
     6  C   -0.105618
     7  O   -0.284856
     8  C   -0.107270
     9  C   -0.083421
    10  C   -0.149185
    11  C   -0.083418
    12  C   -0.149205
    13  C   -0.117309
    14  C   -0.117310
    15  C    0.079592
    16  C    0.079575
    17  H    0.158254
    18  H    0.164250
    19  H    0.158254
    20  H    0.164247
    21  H    0.140929
    22  H    0.140930
    23  O   -0.231172
    24  H    0.227581
    25  O   -0.231178
    26  H    0.227578
 Sum of Mulliken charges =  -0.00000
 Mulliken charges with hydrogens summed into heavy atoms:
               1
     1  C    0.308237
     2  C   -0.107264
     3  C   -0.105604
     4  O   -0.284852
     5  C    0.308235
     6  C   -0.105618
     7  O   -0.284856
     8  C   -0.107270
     9  C    0.074833
    10  C    0.015065
    11  C    0.074836
    12  C    0.015042
    13  C    0.023620
    14  C    0.023620
    15  C    0.079592
    16  C    0.079575
    23  O   -0.003592
    25  O   -0.003600
 Charge=             -0.0000 electrons
 Dipole moment (field-independent basis, Debye):
    X=              1.7720    Y=              0.0003    Z=              0.0220  Tot=              1.7721
 N-N= 6.637355349547D+02 E-N=-1.198242916688D+03  KE=-6.228251810808D+01
 Calling FoFJK, ICntrl=      2127 FMM=F ISym2X=0 I1Cent= 0 IOpClX= 0 NMat=1 NMatS=1 NMatT=0.
 ***** Axes restored to original set *****
 -------------------------------------------------------------------
 Center     Atomic                   Forces (Hartrees/Bohr)
 Number     Number              X              Y              Z
 -------------------------------------------------------------------
      1        6          -0.000506386   -0.017006262    0.000211766
      2        6           0.000159788    0.005478303   -0.000040198
      3        6           0.001291506    0.001096300   -0.000039748
      4        8           0.000403191    0.035520444   -0.000449505
      5        6          -0.000520390    0.016994425   -0.000125522
      6        6           0.001298247   -0.001092988    0.000071001
      7        8           0.000425571   -0.035513909    0.000291985
      8        6           0.000179009   -0.005481852    0.000082722
      9        6           0.001834385   -0.009053104    0.000043759
     10        6           0.014363899    0.010569279   -0.000313378
     11        6           0.001814967    0.009059435   -0.000016017
     12        6           0.014368036   -0.010557388    0.000204414
     13        6          -0.007772674   -0.004639745   -0.000029473
     14        6          -0.007787161    0.004644467    0.000013609
     15        6          -0.001187388    0.022307877   -0.000681644
     16        6          -0.001176707   -0.022300437    0.000756517
     17        1          -0.002333418    0.009426494   -0.000096719
     18        1           0.000739438   -0.010493280    0.000209573
     19        1          -0.002327828   -0.009430632    0.000077856
     20        1           0.000733297    0.010487560   -0.000225770
     21        1           0.007515782    0.004659000   -0.000021927
     22        1           0.007529081   -0.004659128    0.000016853
     23        8          -0.018144654   -0.002786849    0.000238389
     24        1           0.003627743   -0.001190197    0.000100609
     25        8          -0.018149564    0.002769699   -0.000118321
     26        1           0.003622230    0.001192484   -0.000160832
 -------------------------------------------------------------------
 Cartesian Forces:  Max     0.035520444 RMS     0.009063597

 GradGradGradGradGradGradGradGradGradGradGradGradGradGradGradGradGradGrad
 Berny optimization.
 FormGI is forming the generalized inverse of G from B-inverse, IUseBI=4.
 Internal  Forces:  Max     0.035521801 RMS     0.006235370
 Search for a local minimum.
 Step number   1 out of a maximum of  150
 All quantities printed in internal units (Hartrees-Bohrs-Radians)
 Mixed Optimization -- RFO/linear search
 Second derivative matrix not updated -- first step.
 ITU=  0
     Eigenvalues ---    0.01076   0.01077   0.01077   0.01560   0.01645
     Eigenvalues ---    0.01774   0.01812   0.01888   0.01923   0.02105
     Eigenvalues ---    0.02109   0.02110   0.02114   0.02120   0.02128
     Eigenvalues ---    0.02144   0.02144   0.02145   0.02149   0.02153
     Eigenvalues ---    0.02154   0.02156   0.02166   0.16000   0.16000
     Eigenvalues ---    0.16000   0.16000   0.16000   0.16000   0.16000
     Eigenvalues ---    0.16000   0.22000   0.22589   0.23083   0.23999
     Eigenvalues ---    0.24505   0.24999   0.25000   0.25000   0.25000
     Eigenvalues ---    0.25000   0.25000   0.25000   0.25000   0.33250
     Eigenvalues ---    0.33977   0.34953   0.34953   0.34970   0.34971
     Eigenvalues ---    0.35050   0.35052   0.35153   0.35154   0.40172
     Eigenvalues ---    0.41707   0.41953   0.42037   0.45072   0.45630
     Eigenvalues ---    0.45841   0.45929   0.46225   0.46350   0.46460
     Eigenvalues ---    0.46741   0.51783   0.51783   0.53318   0.53319
     Eigenvalues ---    0.93046   0.93048
 RFO step:  Lambda=-1.12707126D-02 EMin= 1.07644666D-02
 Linear search not attempted -- first point.
 Iteration  1 RMS(Cart)=  0.02288694 RMS(Int)=  0.00020596
 Iteration  2 RMS(Cart)=  0.00038462 RMS(Int)=  0.00002110
 Iteration  3 RMS(Cart)=  0.00000007 RMS(Int)=  0.00002110
 Variable       Old X    -DE/DX   Delta X   Delta X   Delta X     New X
                                 (Linear)    (Quad)   (Total)
    R1        2.79025   0.00382   0.00000   0.01095   0.01096   2.80121
    R2        2.79021   0.00443   0.00000   0.01191   0.01191   2.80212
    R3        2.31559   0.03552   0.00000   0.03772   0.03772   2.35331
    R4        2.63434   0.01308   0.00000   0.02866   0.02867   2.66301
    R5        2.64710  -0.00114   0.00000  -0.00208  -0.00208   2.64502
    R6        2.63695   0.01110   0.00000   0.02144   0.02138   2.65833
    R7        2.64833   0.00055   0.00000   0.00047   0.00044   2.64877
    R8        2.79021   0.00443   0.00000   0.01192   0.01192   2.80212
    R9        2.31560   0.03551   0.00000   0.03771   0.03771   2.35331
   R10        2.79023   0.00383   0.00000   0.01097   0.01098   2.80121
   R11        2.64832   0.00055   0.00000   0.00048   0.00046   2.64878
   R12        2.64712  -0.00115   0.00000  -0.00210  -0.00210   2.64502
   R13        2.63791   0.00045   0.00000   0.00058   0.00058   2.63849
   R14        2.05752   0.00941   0.00000   0.02608   0.02608   2.08359
   R15        2.63183   0.01349   0.00000   0.02880   0.02883   2.66066
   R16        2.05426   0.01050   0.00000   0.02894   0.02894   2.08320
   R17        2.63791   0.00045   0.00000   0.00059   0.00059   2.63849
   R18        2.05751   0.00941   0.00000   0.02608   0.02608   2.08359
   R19        2.63185   0.01348   0.00000   0.02878   0.02881   2.66065
   R20        2.05427   0.01049   0.00000   0.02893   0.02893   2.08320
   R21        2.63543   0.00136   0.00000   0.00213   0.00213   2.63756
   R22        2.05593   0.00884   0.00000   0.02443   0.02443   2.08036
   R23        2.05590   0.00885   0.00000   0.02446   0.02446   2.08036
   R24        2.63921   0.01820   0.00000   0.03986   0.03991   2.67912
   R25        2.58108   0.01071   0.00000   0.02025   0.02025   2.60133
   R26        2.58108   0.01072   0.00000   0.02026   0.02026   2.60134
   R27        1.83357  -0.00057   0.00000  -0.00105  -0.00105   1.83253
   R28        1.83358  -0.00057   0.00000  -0.00105  -0.00105   1.83253
    A1        2.08057  -0.00947   0.00000  -0.03669  -0.03670   2.04386
    A2        2.10445   0.00414   0.00000   0.01605   0.01606   2.12051
    A3        2.09817   0.00533   0.00000   0.02063   0.02064   2.11881
    A4        2.10156   0.00459   0.00000   0.01770   0.01770   2.11926
    A5        2.08826  -0.00327   0.00000  -0.01411  -0.01410   2.07416
    A6        2.09336  -0.00133   0.00000  -0.00360  -0.00360   2.08976
    A7        2.10102   0.00488   0.00000   0.01900   0.01902   2.12004
    A8        2.08456  -0.00524   0.00000  -0.01668  -0.01662   2.06794
    A9        2.09760   0.00036   0.00000  -0.00233  -0.00240   2.09520
   A10        2.09816   0.00533   0.00000   0.02064   0.02065   2.11881
   A11        2.08057  -0.00947   0.00000  -0.03669  -0.03671   2.04386
   A12        2.10446   0.00414   0.00000   0.01605   0.01606   2.12052
   A13        2.10102   0.00488   0.00000   0.01900   0.01901   2.12004
   A14        2.09761   0.00036   0.00000  -0.00234  -0.00241   2.09520
   A15        2.08455  -0.00524   0.00000  -0.01666  -0.01661   2.06795
   A16        2.10157   0.00459   0.00000   0.01770   0.01770   2.11927
   A17        2.09336  -0.00133   0.00000  -0.00360  -0.00360   2.08976
   A18        2.08825  -0.00326   0.00000  -0.01410  -0.01409   2.07416
   A19        2.09468   0.00045   0.00000   0.00200   0.00200   2.09668
   A20        2.10137  -0.00270   0.00000  -0.01545  -0.01545   2.08592
   A21        2.08713   0.00225   0.00000   0.01345   0.01345   2.10059
   A22        2.08481   0.00372   0.00000   0.01506   0.01505   2.09986
   A23        2.09081  -0.00254   0.00000  -0.01151  -0.01151   2.07930
   A24        2.10756  -0.00118   0.00000  -0.00355  -0.00354   2.10402
   A25        2.09468   0.00045   0.00000   0.00199   0.00199   2.09668
   A26        2.10136  -0.00270   0.00000  -0.01545  -0.01545   2.08591
   A27        2.08714   0.00225   0.00000   0.01346   0.01346   2.10059
   A28        2.08481   0.00372   0.00000   0.01505   0.01505   2.09986
   A29        2.09082  -0.00254   0.00000  -0.01152  -0.01152   2.07930
   A30        2.10755  -0.00117   0.00000  -0.00353  -0.00353   2.10402
   A31        2.09515   0.00088   0.00000   0.00160   0.00160   2.09675
   A32        2.09315  -0.00072   0.00000  -0.00242  -0.00242   2.09073
   A33        2.09489  -0.00016   0.00000   0.00082   0.00082   2.09571
   A34        2.09513   0.00088   0.00000   0.00162   0.00162   2.09674
   A35        2.09315  -0.00072   0.00000  -0.00242  -0.00242   2.09073
   A36        2.09491  -0.00017   0.00000   0.00080   0.00080   2.09572
   A37        2.10075  -0.00408   0.00000  -0.01270  -0.01263   2.08812
   A38        2.10016   0.01223   0.00000   0.04534   0.04531   2.14547
   A39        2.08228  -0.00815   0.00000  -0.03264  -0.03268   2.04960
   A40        2.10076  -0.00408   0.00000  -0.01272  -0.01264   2.08812
   A41        2.10015   0.01223   0.00000   0.04535   0.04532   2.14546
   A42        2.08228  -0.00815   0.00000  -0.03264  -0.03267   2.04961
   A43        1.91391  -0.00692   0.00000  -0.04041  -0.04041   1.87350
   A44        1.91388  -0.00691   0.00000  -0.04037  -0.04037   1.87350
    D1        0.00532  -0.00005   0.00000  -0.00137  -0.00135   0.00397
    D2       -3.13721  -0.00005   0.00000  -0.00140  -0.00139  -3.13860
    D3       -3.13722  -0.00003   0.00000  -0.00033  -0.00031  -3.13753
    D4        0.00344  -0.00003   0.00000  -0.00036  -0.00035   0.00309
    D5        0.00337  -0.00005   0.00000  -0.00108  -0.00106   0.00231
    D6       -3.14029  -0.00005   0.00000  -0.00082  -0.00080  -3.14109
    D7       -3.13728  -0.00007   0.00000  -0.00211  -0.00210  -3.13938
    D8        0.00224  -0.00006   0.00000  -0.00185  -0.00184   0.00040
    D9       -0.00678   0.00006   0.00000   0.00222   0.00223  -0.00455
   D10        3.13675   0.00004   0.00000   0.00139   0.00140   3.13815
   D11        3.13576   0.00006   0.00000   0.00226   0.00227   3.13803
   D12       -0.00390   0.00004   0.00000   0.00143   0.00144  -0.00246
   D13       -3.13851  -0.00002   0.00000  -0.00069  -0.00070  -3.13920
   D14        0.00327  -0.00003   0.00000  -0.00105  -0.00105   0.00222
   D15        0.00215  -0.00002   0.00000  -0.00071  -0.00072   0.00143
   D16       -3.13926  -0.00003   0.00000  -0.00107  -0.00107  -3.14033
   D17       -0.01022   0.00004   0.00000   0.00225   0.00226  -0.00796
   D18        3.13215   0.00007   0.00000   0.00312   0.00314   3.13529
   D19        3.13345   0.00004   0.00000   0.00201   0.00201   3.13547
   D20       -0.00735   0.00007   0.00000   0.00287   0.00289  -0.00446
   D21       -3.13536  -0.00006   0.00000  -0.00196  -0.00196  -3.13731
   D22        0.00428  -0.00003   0.00000  -0.00116  -0.00117   0.00311
   D23        0.00417  -0.00005   0.00000  -0.00167  -0.00168   0.00250
   D24       -3.13938  -0.00002   0.00000  -0.00088  -0.00089  -3.14027
   D25       -3.13311  -0.00004   0.00000  -0.00104  -0.00102  -3.13413
   D26        0.00771  -0.00007   0.00000  -0.00190  -0.00188   0.00583
   D27        0.00873  -0.00006   0.00000  -0.00151  -0.00149   0.00724
   D28       -3.13364  -0.00009   0.00000  -0.00237  -0.00235  -3.13599
   D29       -0.00004  -0.00004   0.00000  -0.00093  -0.00092  -0.00096
   D30        3.13962  -0.00002   0.00000  -0.00010  -0.00009   3.13954
   D31       -3.14139  -0.00006   0.00000  -0.00141  -0.00139   3.14041
   D32       -0.00173  -0.00003   0.00000  -0.00057  -0.00056  -0.00228
   D33        0.00316  -0.00004   0.00000  -0.00128  -0.00128   0.00188
   D34       -3.13950  -0.00005   0.00000  -0.00164  -0.00166  -3.14116
   D35       -3.13765  -0.00001   0.00000  -0.00043  -0.00044  -3.13810
   D36        0.00287  -0.00002   0.00000  -0.00080  -0.00082   0.00205
   D37        0.00261  -0.00002   0.00000  -0.00093  -0.00094   0.00167
   D38       -3.13945  -0.00001   0.00000  -0.00049  -0.00050  -3.13995
   D39       -3.13706  -0.00005   0.00000  -0.00178  -0.00178  -3.13885
   D40        0.00406  -0.00004   0.00000  -0.00135  -0.00134   0.00272
   D41        0.00091  -0.00002   0.00000  -0.00052  -0.00052   0.00039
   D42       -3.14120  -0.00001   0.00000  -0.00008  -0.00008  -3.14128
   D43       -3.14086  -0.00000   0.00000  -0.00017  -0.00017  -3.14103
   D44        0.00021   0.00001   0.00000   0.00026   0.00027   0.00048
   D45        0.00418  -0.00005   0.00000  -0.00153  -0.00154   0.00264
   D46       -3.13798  -0.00011   0.00000  -0.00342  -0.00347  -3.14145
   D47       -3.13634  -0.00003   0.00000  -0.00115  -0.00115  -3.13749
   D48        0.00469  -0.00010   0.00000  -0.00305  -0.00308   0.00161
   D49        0.00045  -0.00001   0.00000  -0.00030  -0.00030   0.00016
   D50        3.14129   0.00001   0.00000   0.00044   0.00045  -3.14144
   D51       -3.14068  -0.00002   0.00000  -0.00073  -0.00073  -3.14141
   D52        0.00016   0.00000   0.00000   0.00002   0.00001   0.00018
   D53        0.00317  -0.00003   0.00000  -0.00113  -0.00114   0.00202
   D54       -3.13981  -0.00006   0.00000  -0.00161  -0.00164  -3.14146
   D55       -3.13645  -0.00006   0.00000  -0.00192  -0.00193  -3.13838
   D56        0.00376  -0.00008   0.00000  -0.00241  -0.00243   0.00132
   D57       -0.00220   0.00003   0.00000   0.00101   0.00101  -0.00119
   D58        3.14014   0.00000   0.00000   0.00026   0.00026   3.14040
   D59        3.13990   0.00001   0.00000   0.00057   0.00058   3.14048
   D60       -0.00094  -0.00001   0.00000  -0.00017  -0.00017  -0.00110
   D61       -0.00738   0.00010   0.00000   0.00280   0.00281  -0.00458
   D62        3.13477   0.00016   0.00000   0.00465   0.00460   3.13937
   D63        3.13559   0.00010   0.00000   0.00322   0.00322   3.13880
   D64       -0.00545   0.00016   0.00000   0.00507   0.00502  -0.00043
   D65        0.02813  -0.00008   0.00000  -0.00245  -0.00245   0.02569
   D66       -3.11483  -0.00010   0.00000  -0.00292  -0.00292  -3.11775
   D67        0.03269  -0.00008   0.00000  -0.00254  -0.00253   0.03016
   D68       -3.10946  -0.00014   0.00000  -0.00440  -0.00441  -3.11387
         Item               Value     Threshold  Converged?
 Maximum Force            0.035522     0.000450     NO 
 RMS     Force            0.006235     0.000300     NO 
 Maximum Displacement     0.100065     0.001800     NO 
 RMS     Displacement     0.022873     0.001200     NO 
 Predicted change in Energy=-5.809731D-03
 GradGradGradGradGradGradGradGradGradGradGradGradGradGradGradGradGradGrad

                          Input orientation:                          
 ---------------------------------------------------------------------
 Center     Atomic      Atomic             Coordinates (Angstroms)
 Number     Number       Type             X           Y           Z
 ---------------------------------------------------------------------
      1          6           0        0.025663    1.484020   -0.017355
      2          6           0        1.290819    0.711616   -0.007627
      3          6           0       -1.238805    0.709587   -0.006312
      4          8           0        0.023717    2.729223   -0.034175
      5          6           0        0.026600   -1.470704    0.018067
      6          6           0       -1.238346   -0.696975    0.015345
      7          8           0        0.025429   -2.715972    0.029315
      8          6           0        1.291262   -0.697517    0.006522
      9          6           0        2.505992    1.406192   -0.013903
     10          6           0       -2.451418   -1.398995    0.032954
     11          6           0        2.506871   -1.391339    0.011200
     12          6           0       -2.452351    1.410938   -0.015725
     13          6           0        3.713738    0.705644   -0.007905
     14          6           0        3.714178   -0.690042    0.003899
     15          6           0       -3.675835    0.714375   -0.000570
     16          6           0       -3.675357   -0.703089    0.026811
     17          1           0        2.501407    2.508728   -0.023764
     18          1           0       -2.433532   -2.501096    0.050243
     19          1           0        2.502973   -2.493881    0.020706
     20          1           0       -2.435187    2.513034   -0.033988
     21          1           0        4.666228    1.257621   -0.012596
     22          1           0        4.667014   -1.241428    0.007488
     23          8           0       -4.897809    1.348123   -0.008933
     24          1           0       -4.728438    2.302066   -0.049966
     25          8           0       -4.896903   -1.337516    0.043474
     26          1           0       -4.726763   -2.291216    0.086944
 ---------------------------------------------------------------------
                    Distance matrix (angstroms):
                    1          2          3          4          5
     1  C    0.000000
     2  C    1.482337   0.000000
     3  C    1.482818   2.529625   0.000000
     4  O    1.245319   2.382644   2.381946   0.000000
     5  C    2.954936   2.522187   2.521015   4.200253   0.000000
     6  C    2.521017   2.895053   1.406729   3.651587   1.482820
     7  O    4.200251   3.653893   3.651577   5.445566   1.245319
     8  C    2.522184   1.409204   2.895055   3.653885   1.482336
     9  C    2.481552   1.399686   3.809045   2.812919   3.798017
    10  C    3.801347   4.296587   2.432712   4.813833   2.479101
    11  C    3.798012   2.429312   4.294681   4.811149   2.481550
    12  C    2.479092   3.807944   1.401668   2.805196   3.801342
    13  C    3.769331   2.422927   4.952545   4.208542   4.281606
    14  C    4.281605   2.799544   5.146952   5.031136   3.769332
    15  C    3.780704   4.966660   2.437042   4.212770   4.299180
    16  C    4.299179   5.163862   2.816653   5.046546   3.780714
    17  H    2.679436   2.166887   4.150470   2.487504   4.686395
    18  H    4.683306   4.918908   3.426230   5.779397   2.667394
    19  H    4.686386   3.427146   4.925834   5.781915   2.679425
    20  H    2.667383   4.138710   2.164374   2.468389   4.683298
    21  H    4.646086   3.419288   5.930413   4.870215   5.382457
    22  H    5.382455   3.900423   6.219755   6.109666   4.646086
    23  O    4.925355   6.221275   3.714303   5.111701   5.674181
    24  H    4.824079   6.225976   3.836070   4.771340   6.070322
    25  O    5.674189   6.518393   4.192229   6.384112   4.925370
    26  H    6.070324   6.725863   4.602104   6.912780   4.824152
                    6          7          8          9         10
     6  C    0.000000
     7  O    2.381947   0.000000
     8  C    2.529624   2.382648   0.000000
     9  C    4.294675   4.811164   2.429316   0.000000
    10  C    1.401672   2.805212   3.807942   5.696243   0.000000
    11  C    3.809043   2.812923   1.399685   2.797644   4.958343
    12  C    2.432708   4.813814   4.296593   4.958345   2.810354
    13  C    5.146943   5.031149   2.799546   1.396228   6.514624
    14  C    4.952543   4.208552   2.422929   2.419551   6.206290
    15  C    2.816650   5.046537   5.163869   6.220432   2.442673
    16  C    2.437045   4.212781   4.966663   6.531447   1.407959
    17  H    4.925832   5.781935   3.427153   1.102590   6.309041
    18  H    2.164379   2.468420   4.138707   6.298405   1.102381
    19  H    4.150466   2.487493   2.166880   3.900228   5.073945
    20  H    3.426225   5.779372   4.918913   5.063670   3.912635
    21  H    6.219744   6.109682   3.900426   2.165339   7.597405
    22  H    5.930410   4.870222   3.419289   3.417655   7.120221
    23  O    4.192217   6.384090   6.518396   7.404031   3.678755
    24  H    4.602092   6.912759   6.725881   7.289778   4.346211
    25  O    3.714313   5.111721   6.221282   7.895193   2.446280
    26  H    3.836115   4.771485   6.225991   8.123653   2.444620
                   11         12         13         14         15
    11  C    0.000000
    12  C    5.696259   0.000000
    13  C    2.419552   6.206299   0.000000
    14  C    1.396231   6.514644   1.395736   0.000000
    15  C    6.531465   1.407957   7.389582   7.522281   0.000000
    16  C    6.220440   2.442675   7.522264   7.389582   1.417728
    17  H    3.900228   5.073946   2.172812   3.421068   6.432618
    18  H    5.063661   3.912635   6.933649   6.409087   3.447485
    19  H    1.102590   6.309055   3.421072   2.172818   6.962114
    20  H    6.298421   1.102381   6.409105   6.933673   2.185291
    21  H    3.417657   7.120230   1.100880   2.167962   8.359741
    22  H    2.165341   7.597429   2.167963   1.100879   8.569035
    23  O    7.895211   2.446275   8.635481   8.849893   1.376563
    24  H    8.123711   2.444556   8.591896   8.957309   1.905564
    25  O    7.404040   3.678768   8.849874   8.635479   2.388138
    26  H    7.289785   4.346197   8.957244   8.591865   3.185229
                   16         17         18         19         20
    16  C    0.000000
    17  H    6.962093   0.000000
    18  H    2.185293   7.032598   0.000000
    19  H    6.432630   5.002807   4.936598   0.000000
    20  H    3.447486   4.936607   5.014837   7.032611   0.000000
    21  H    8.569012   2.500368   8.033585   4.330652   7.211561
    22  H    8.359744   4.330647   7.211542   2.500377   8.033615
    23  O    2.388124   7.489702   4.570848   8.338672   2.724363
    24  H    3.185252   7.232846   5.324190   8.677523   2.302990
    25  O    1.376572   8.338651   2.724364   7.489717   4.570862
    26  H    1.905575   8.677451   2.303108   7.232879   5.324167
                   21         22         23         24         25
    21  H    0.000000
    22  H    2.499130   0.000000
    23  O    9.564466   9.909182   0.000000
    24  H    9.452619  10.041622   0.969731   0.000000
    25  O    9.909154   9.564467   2.686151   3.644677   0.000000
    26  H   10.041535   9.452587   3.644617   4.595322   0.969732
                   26
    26  H    0.000000
 Stoichiometry    C14H8O4
 Framework group  C1[X(C14H8O4)]
 Deg. of freedom    72
 Full point group                 C1      NOp   1
 Largest Abelian subgroup         C1      NOp   1
 Largest concise Abelian subgroup C1      NOp   1
                         Standard orientation:                         
 ---------------------------------------------------------------------
 Center     Atomic      Atomic             Coordinates (Angstroms)
 Number     Number       Type             X           Y           Z
 ---------------------------------------------------------------------
      1          6           0        0.638176    1.477469   -0.000181
      2          6           0        1.903083    0.704599    0.002035
      3          6           0       -0.626537    0.703361   -0.002700
      4          8           0        0.636627    2.722786   -0.000041
      5          6           0        0.638180   -1.477464   -0.005013
      6          6           0       -0.626534   -0.703365   -0.000206
      7          8           0        0.636625   -2.722769   -0.010733
      8          6           0        1.903088   -0.704596   -0.003012
      9          6           0        3.118467    1.398808    0.008116
     10          6           0       -1.839846   -1.405172    0.004949
     11          6           0        3.118483   -1.398806   -0.004893
     12          6           0       -1.839856    1.405163   -0.005448
     13          6           0        4.325994    0.697857    0.007445
     14          6           0        4.326006   -0.697860    0.000235
     15          6           0       -3.063573    0.708850   -0.002696
     16          6           0       -3.063566   -0.708856    0.005373
     17          1           0        3.114223    2.501378    0.013264
     18          1           0       -1.822317   -2.507412    0.007265
     19          1           0        3.114245   -2.501374   -0.010417
     20          1           0       -1.822332    2.507400   -0.008654
     21          1           0        5.278651    1.249542    0.012542
     22          1           0        5.278671   -1.249549   -0.001419
     23          8           0       -4.285341    1.343043   -0.005334
     24          1           0       -4.115599    2.297403   -0.032965
     25          8           0       -4.285331   -1.343061    0.010483
     26          1           0       -4.115569   -2.297318    0.041361
 ---------------------------------------------------------------------
 Rotational constants (GHZ):      0.9567696      0.2789005      0.2159524
 Standard basis: VSTO-6G (5D, 7F)
 There are    80 symmetry adapted cartesian basis functions of A   symmetry.
 There are    80 symmetry adapted basis functions of A   symmetry.
    80 basis functions,   480 primitive gaussians,    80 cartesian basis functions
    44 alpha electrons       44 beta electrons
       nuclear repulsion energy       661.0583337909 Hartrees.
 Integral buffers will be    131072 words long.
 Regular integral format.
 Two-electron integral symmetry is turned off.
 Do NDO integrals.
 One-electron integrals computed using PRISM.
 NBasis=    80 RedAO= F EigKep=  0.00D+00  NBF=    80
 NBsUse=    80 1.00D-04 EigRej=  0.00D+00 NBFU=    80
 Initial guess from the checkpoint file:  "anthracene-2-3-opt.chk"
 B after Tr=    -0.000000   -0.000000    0.000000
         Rot=    1.000000    0.000048    0.000004    0.000003 Ang=   0.01 deg.
 Overlap will be assumed to be unity.
 Keep J ints in memory in canonical form, NReq=933890.
 Requested convergence on RMS density matrix=1.00D-08 within 128 cycles.
 Requested convergence on MAX density matrix=1.00D-06.
 Requested convergence on             energy=1.00D-06.
 No special actions if energy rises.
 SCF Done:  E(RAM1) = -0.144967584669     A.U. after   14 cycles
            NFock= 13  Conv=0.72D-08     -V/T= 0.9977
 Calling FoFJK, ICntrl=      2127 FMM=F ISym2X=0 I1Cent= 0 IOpClX= 0 NMat=1 NMatS=1 NMatT=0.
 ***** Axes restored to original set *****
 -------------------------------------------------------------------
 Center     Atomic                   Forces (Hartrees/Bohr)
 Number     Number              X              Y              Z
 -------------------------------------------------------------------
      1        6          -0.000518663    0.006088243   -0.000163931
      2        6          -0.003746560   -0.001501747    0.000008498
      3        6           0.000065878   -0.000599122    0.000097868
      4        8          -0.000056147   -0.012704558    0.000181538
      5        6          -0.000517811   -0.006090751    0.000032822
      6        6           0.000064057    0.000596787   -0.000053053
      7        8          -0.000063443    0.012707914   -0.000085064
      8        6          -0.003747034    0.001500988    0.000033570
      9        6           0.000464400   -0.002491069    0.000000540
     10        6          -0.004883228    0.008360911   -0.000151102
     11        6           0.000466500    0.002491176   -0.000010028
     12        6          -0.004878265   -0.008360786    0.000175407
     13        6          -0.000361836   -0.002750292    0.000034627
     14        6          -0.000366955    0.002748337   -0.000037807
     15        6           0.004810593    0.002274567   -0.000054438
     16        6           0.004811219   -0.002279189   -0.000001460
     17        1          -0.000692939    0.000015952   -0.000019727
     18        1          -0.000549152    0.000234671    0.000042783
     19        1          -0.000691856   -0.000016469    0.000024414
     20        1          -0.000549014   -0.000233965   -0.000020211
     21        1          -0.000225235   -0.000111136   -0.000010844
     22        1          -0.000225112    0.000110820    0.000011089
     23        8           0.006251173   -0.003074673    0.000004930
     24        1          -0.000558093    0.000249497    0.000091989
     25        8           0.006253785    0.003082535   -0.000024163
     26        1          -0.000556264   -0.000248638   -0.000108248
 -------------------------------------------------------------------
 Cartesian Forces:  Max     0.012707914 RMS     0.003208765

 GradGradGradGradGradGradGradGradGradGradGradGradGradGradGradGradGradGrad
 Berny optimization.
 Using GEDIIS/GDIIS optimizer.
 FormGI is forming the generalized inverse of G from B-inverse, IUseBI=4.
 Internal  Forces:  Max     0.012708098 RMS     0.002745928
 Search for a local minimum.
 Step number   2 out of a maximum of  150
 All quantities printed in internal units (Hartrees-Bohrs-Radians)
 Mixed Optimization -- RFO/linear search
 Update second derivatives using D2CorX and points    1    2
 DE= -4.10D-03 DEPred=-5.81D-03 R= 7.05D-01
 TightC=F SS=  1.41D+00  RLast= 1.76D-01 DXNew= 5.0454D-01 5.2857D-01
 Trust test= 7.05D-01 RLast= 1.76D-01 DXMaxT set to 5.05D-01
 ITU=  1  0
 Use linear search instead of GDIIS.
     Eigenvalues ---    0.01076   0.01077   0.01077   0.01573   0.01643
     Eigenvalues ---    0.01775   0.01810   0.01894   0.01926   0.02106
     Eigenvalues ---    0.02109   0.02111   0.02113   0.02120   0.02128
     Eigenvalues ---    0.02143   0.02144   0.02145   0.02149   0.02153
     Eigenvalues ---    0.02155   0.02156   0.02167   0.15756   0.16000
     Eigenvalues ---    0.16000   0.16000   0.16000   0.16000   0.16000
     Eigenvalues ---    0.16115   0.22000   0.22294   0.22938   0.23507
     Eigenvalues ---    0.23986   0.24498   0.25000   0.25000   0.25000
     Eigenvalues ---    0.25000   0.25000   0.25000   0.25019   0.33333
     Eigenvalues ---    0.33674   0.33956   0.34953   0.34971   0.34998
     Eigenvalues ---    0.35051   0.35104   0.35153   0.36239   0.40217
     Eigenvalues ---    0.41725   0.41964   0.42054   0.44946   0.45509
     Eigenvalues ---    0.45931   0.45961   0.46221   0.46312   0.46447
     Eigenvalues ---    0.50503   0.51783   0.53316   0.53318   0.58925
     Eigenvalues ---    0.93047   1.07945
 RFO step:  Lambda=-7.99355995D-04 EMin= 1.07645095D-02
 Quartic linear search produced a step of -0.21016.
 Iteration  1 RMS(Cart)=  0.00992999 RMS(Int)=  0.00001227
 Iteration  2 RMS(Cart)=  0.00001325 RMS(Int)=  0.00000391
 Iteration  3 RMS(Cart)=  0.00000000 RMS(Int)=  0.00000391
 Variable       Old X    -DE/DX   Delta X   Delta X   Delta X     New X
                                 (Linear)    (Quad)   (Total)
    R1        2.80121  -0.00554  -0.00230  -0.00947  -0.01177   2.78944
    R2        2.80212  -0.00619  -0.00250  -0.01063  -0.01314   2.78898
    R3        2.35331  -0.01271  -0.00793  -0.00025  -0.00818   2.34513
    R4        2.66301  -0.00614  -0.00603  -0.00264  -0.00867   2.65434
    R5        2.64502  -0.00145   0.00044  -0.00318  -0.00274   2.64228
    R6        2.65833  -0.00693  -0.00449  -0.00550  -0.00998   2.64835
    R7        2.64877  -0.00582  -0.00009  -0.00984  -0.00993   2.63884
    R8        2.80212  -0.00620  -0.00250  -0.01064  -0.01314   2.78898
    R9        2.35331  -0.01271  -0.00793  -0.00026  -0.00818   2.34513
   R10        2.80121  -0.00554  -0.00231  -0.00946  -0.01177   2.78944
   R11        2.64878  -0.00583  -0.00010  -0.00985  -0.00994   2.63884
   R12        2.64502  -0.00145   0.00044  -0.00318  -0.00274   2.64228
   R13        2.63849  -0.00100  -0.00012  -0.00146  -0.00158   2.63691
   R14        2.08359   0.00002  -0.00548   0.00726   0.00178   2.08537
   R15        2.66066  -0.01197  -0.00606  -0.01229  -0.01835   2.64231
   R16        2.08320  -0.00024  -0.00608   0.00746   0.00138   2.08458
   R17        2.63849  -0.00101  -0.00012  -0.00146  -0.00158   2.63691
   R18        2.08359   0.00002  -0.00548   0.00726   0.00178   2.08537
   R19        2.66065  -0.01197  -0.00605  -0.01229  -0.01834   2.64231
   R20        2.08320  -0.00024  -0.00608   0.00746   0.00138   2.08458
   R21        2.63756  -0.00385  -0.00045  -0.00575  -0.00620   2.63136
   R22        2.08036  -0.00025  -0.00513   0.00619   0.00106   2.08142
   R23        2.08036  -0.00025  -0.00514   0.00620   0.00106   2.08142
   R24        2.67912  -0.00629  -0.00839   0.00004  -0.00835   2.67077
   R25        2.60133  -0.00635  -0.00426  -0.00405  -0.00831   2.59302
   R26        2.60134  -0.00636  -0.00426  -0.00406  -0.00832   2.59303
   R27        1.83253   0.00014   0.00022  -0.00008   0.00014   1.83267
   R28        1.83253   0.00014   0.00022  -0.00008   0.00014   1.83267
    A1        2.04386   0.00022   0.00771  -0.00935  -0.00163   2.04223
    A2        2.12051  -0.00002  -0.00338   0.00433   0.00095   2.12146
    A3        2.11881  -0.00020  -0.00434   0.00502   0.00068   2.11949
    A4        2.11926  -0.00026  -0.00372   0.00425   0.00053   2.11979
    A5        2.07416   0.00036   0.00296  -0.00245   0.00051   2.07467
    A6        2.08976  -0.00009   0.00076  -0.00180  -0.00104   2.08872
    A7        2.12004   0.00004  -0.00400   0.00511   0.00111   2.12115
    A8        2.06794   0.00039   0.00349  -0.00387  -0.00039   2.06755
    A9        2.09520  -0.00044   0.00050  -0.00124  -0.00072   2.09448
   A10        2.11881  -0.00020  -0.00434   0.00503   0.00069   2.11949
   A11        2.04386   0.00022   0.00771  -0.00935  -0.00163   2.04223
   A12        2.12052  -0.00002  -0.00338   0.00432   0.00095   2.12147
   A13        2.12004   0.00005  -0.00400   0.00511   0.00111   2.12115
   A14        2.09520  -0.00044   0.00051  -0.00124  -0.00072   2.09448
   A15        2.06795   0.00039   0.00349  -0.00387  -0.00039   2.06755
   A16        2.11927  -0.00027  -0.00372   0.00425   0.00053   2.11980
   A17        2.08976  -0.00009   0.00076  -0.00180  -0.00104   2.08872
   A18        2.07416   0.00036   0.00296  -0.00245   0.00051   2.07467
   A19        2.09668   0.00078  -0.00042   0.00330   0.00288   2.09956
   A20        2.08592  -0.00111   0.00325  -0.00913  -0.00588   2.08004
   A21        2.10059   0.00033  -0.00283   0.00583   0.00300   2.10359
   A22        2.09986  -0.00029  -0.00316   0.00318   0.00001   2.09987
   A23        2.07930   0.00071   0.00242   0.00012   0.00254   2.08184
   A24        2.10402  -0.00042   0.00074  -0.00329  -0.00255   2.10147
   A25        2.09668   0.00078  -0.00042   0.00330   0.00288   2.09956
   A26        2.08591  -0.00111   0.00325  -0.00913  -0.00588   2.08003
   A27        2.10059   0.00033  -0.00283   0.00583   0.00300   2.10359
   A28        2.09986  -0.00029  -0.00316   0.00317   0.00001   2.09987
   A29        2.07930   0.00071   0.00242   0.00012   0.00254   2.08184
   A30        2.10402  -0.00042   0.00074  -0.00329  -0.00255   2.10148
   A31        2.09675  -0.00069  -0.00034  -0.00150  -0.00184   2.09491
   A32        2.09073   0.00033   0.00051   0.00022   0.00073   2.09146
   A33        2.09571   0.00036  -0.00017   0.00128   0.00111   2.09682
   A34        2.09674  -0.00069  -0.00034  -0.00150  -0.00184   2.09491
   A35        2.09073   0.00033   0.00051   0.00022   0.00073   2.09146
   A36        2.09572   0.00036  -0.00017   0.00127   0.00111   2.09682
   A37        2.08812   0.00073   0.00265  -0.00193   0.00071   2.08883
   A38        2.14547   0.00003  -0.00952   0.01295   0.00343   2.14890
   A39        2.04960  -0.00076   0.00687  -0.01102  -0.00414   2.04545
   A40        2.08812   0.00073   0.00266  -0.00193   0.00072   2.08883
   A41        2.14546   0.00003  -0.00952   0.01295   0.00343   2.14889
   A42        2.04961  -0.00076   0.00687  -0.01102  -0.00414   2.04546
   A43        1.87350   0.00109   0.00849  -0.00566   0.00283   1.87633
   A44        1.87350   0.00108   0.00848  -0.00567   0.00281   1.87632
    D1        0.00397  -0.00001   0.00028  -0.00056  -0.00028   0.00369
    D2       -3.13860  -0.00000   0.00029  -0.00026   0.00003  -3.13857
    D3       -3.13753  -0.00003   0.00007  -0.00157  -0.00151  -3.13904
    D4        0.00309  -0.00003   0.00007  -0.00127  -0.00120   0.00189
    D5        0.00231  -0.00004   0.00022  -0.00230  -0.00208   0.00023
    D6       -3.14109  -0.00004   0.00017  -0.00177  -0.00160   3.14049
    D7       -3.13938  -0.00002   0.00044  -0.00129  -0.00085  -3.14023
    D8        0.00040  -0.00002   0.00039  -0.00076  -0.00038   0.00003
    D9       -0.00455   0.00005  -0.00047   0.00232   0.00184  -0.00270
   D10        3.13815   0.00003  -0.00029   0.00163   0.00134   3.13949
   D11        3.13803   0.00004  -0.00048   0.00201   0.00153   3.13956
   D12       -0.00246   0.00003  -0.00030   0.00133   0.00102  -0.00144
   D13       -3.13920  -0.00002   0.00015  -0.00108  -0.00093  -3.14013
   D14        0.00222  -0.00002   0.00022  -0.00113  -0.00091   0.00131
   D15        0.00143  -0.00001   0.00015  -0.00078  -0.00063   0.00080
   D16       -3.14033  -0.00002   0.00022  -0.00083  -0.00061  -3.14094
   D17       -0.00796   0.00007  -0.00048   0.00332   0.00285  -0.00512
   D18        3.13529   0.00006  -0.00066   0.00329   0.00263   3.13792
   D19        3.13547   0.00006  -0.00042   0.00279   0.00236   3.13783
   D20       -0.00446   0.00006  -0.00061   0.00276   0.00215  -0.00231
   D21       -3.13731  -0.00004   0.00041  -0.00200  -0.00158  -3.13890
   D22        0.00311  -0.00003   0.00025  -0.00136  -0.00111   0.00200
   D23        0.00250  -0.00003   0.00035  -0.00147  -0.00112   0.00138
   D24       -3.14027  -0.00002   0.00019  -0.00083  -0.00064  -3.14091
   D25       -3.13413  -0.00004   0.00021  -0.00232  -0.00211  -3.13623
   D26        0.00583  -0.00004   0.00040  -0.00229  -0.00190   0.00393
   D27        0.00724  -0.00003   0.00031  -0.00155  -0.00124   0.00600
   D28       -3.13599  -0.00003   0.00049  -0.00152  -0.00103  -3.13702
   D29       -0.00096  -0.00002   0.00019  -0.00131  -0.00112  -0.00207
   D30        3.13954  -0.00001   0.00002  -0.00063  -0.00061   3.13893
   D31        3.14041  -0.00002   0.00029  -0.00054  -0.00025   3.14016
   D32       -0.00228  -0.00000   0.00012   0.00014   0.00025  -0.00203
   D33        0.00188  -0.00002   0.00027  -0.00123  -0.00096   0.00092
   D34       -3.14116  -0.00001   0.00035  -0.00075  -0.00040  -3.14156
[...]
    11  C    3.801085   2.808304   1.399650   2.788903   4.950571
    12  C    2.425506   4.798133   4.284982   4.950570   2.799230
    13  C    5.138979   5.022482   2.799388   1.395205   6.505714
    14  C    4.945386   4.202941   2.424742   2.415027   6.198723
    15  C    2.806865   5.028949   5.145367   6.202726   2.432844
    16  C    2.427488   4.195215   4.948128   6.513549   1.396991
    17  H    4.910396   5.765698   3.419310   1.102943   6.291763
    18  H    2.163890   2.465214   4.131706   6.288484   1.102841
    19  H    4.136851   2.477892   2.162290   3.891807   5.060140
    20  H    3.419784   5.764982   4.909304   5.058397   3.901998
    21  H    6.211015   6.101438   3.900015   2.164332   7.587775
    22  H    5.922282   4.864174   3.420228   3.414270   7.111653
    23  O    4.177316   6.359968   6.496504   7.386071   3.660679
    24  H    4.597631   6.898921   6.715937   7.283996   4.336876
    25  O    3.703095   5.096714   6.201455   7.873516   2.436149
    26  H    3.836492   4.767993   6.218360   8.113817   2.446171
                   11         12         13         14         15
    11  C    0.000000
    12  C    5.684622   0.000000
    13  C    2.415027   6.198723   0.000000
    14  C    1.395205   6.505714   1.393293   0.000000
    15  C    6.513549   1.396991   7.372869   7.505585   0.000000
    16  C    6.202726   2.432844   7.505585   7.372869   1.417228
    17  H    3.891807   5.060140   2.174556   3.418735   6.408458
    18  H    5.058398   3.901998   6.926702   6.403607   3.438174
    19  H    1.102943   6.291763   3.418735   2.174556   6.938799
    20  H    6.288484   1.102841   6.403607   6.926702   2.174449
    21  H    3.414270   7.111653   1.100632   2.166782   8.341800
    22  H    2.164332   7.587775   2.166783   1.100632   8.551552
    23  O    7.873516   2.436149   8.617553   8.830529   1.371743
    24  H    8.113817   2.446171   8.586087   8.950100   1.906613
    25  O    7.386071   3.660679   8.830529   8.617554   2.379397
    26  H    7.283997   4.336876   8.950101   8.586088   3.182489
                   16         17         18         19         20
    16  C    0.000000
    17  H    6.938800   0.000000
    18  H    2.174449   7.017771   0.000000
    19  H    6.408458   4.994680   4.924651   0.000000
    20  H    3.438174   4.924651   5.004709   7.017771   0.000000
    21  H    8.551552   2.503277   8.026292   4.330618   7.204751
    22  H    8.341801   4.330618   7.204751   2.503277   8.026292
    23  O    2.379397   7.466153   4.551675   8.310512   2.714741
    24  H    3.182489   7.220665   5.313388   8.661481   2.302802
    25  O    1.371743   8.310513   2.714741   7.466153   4.551675
    26  H    1.906613   8.661481   2.302803   7.220665   5.313388
                   21         22         23         24         25
    21  H    0.000000
    22  H    2.500232   0.000000
    23  O    9.545698   9.888814   0.000000
    24  H    9.445652  10.033704   0.970045   0.000000
    25  O    9.888815   9.545698   2.667073   3.627705   0.000000
    26  H   10.033705   9.445653   3.627705   4.581524   0.970045
                   26
    26  H    0.000000
 Stoichiometry    C14H8O4
 Framework group  C1[X(C14H8O4)]
 Deg. of freedom    72
 Full point group                 C1      NOp   1
 Largest Abelian subgroup         C1      NOp   1
 Largest concise Abelian subgroup C1      NOp   1
                         Standard orientation:                         
 ---------------------------------------------------------------------
 Center     Atomic      Atomic             Coordinates (Angstroms)
 Number     Number       Type             X           Y           Z
 ---------------------------------------------------------------------
      1          6           0        0.634953    1.473515   -0.000827
      2          6           0        1.895806    0.702366   -0.000131
      3          6           0       -0.624844    0.700591   -0.000299
      4          8           0        0.632975    2.713219   -0.001731
      5          6           0        0.634953   -1.473515   -0.000599
      6          6           0       -0.624844   -0.700591   -0.000405
      7          8           0        0.632975   -2.713219   -0.001161
      8          6           0        1.895806   -0.702366   -0.000123
      9          6           0        3.112374    1.394451    0.000447
     10          6           0       -1.838193   -1.399615   -0.000214
     11          6           0        3.112374   -1.394451    0.000413
     12          6           0       -1.838193    1.399615    0.000176
     13          6           0        4.320540    0.696647    0.001024
     14          6           0        4.320540   -0.696646    0.001002
     15          6           0       -3.052318    0.708614    0.000461
     16          6           0       -3.052319   -0.708614    0.000220
     17          1           0        3.101444    2.497340    0.000407
     18          1           0       -1.823204   -2.502354   -0.000416
     19          1           0        3.101444   -2.497340    0.000363
     20          1           0       -1.823204    2.502354    0.000266
     21          1           0        5.271888    1.250116    0.001470
     22          1           0        5.271888   -1.250116    0.001455
     23          8           0       -4.273446    1.333537    0.001018
     24          1           0       -4.116265    2.290762    0.000759
     25          8           0       -4.273446   -1.333536    0.000474
     26          1           0       -4.116265   -2.290762    0.000030
 ---------------------------------------------------------------------
 Rotational constants (GHZ):      0.9637035      0.2801924      0.2170780

 **********************************************************************

            Population analysis using the SCF density.

 **********************************************************************

 Orbital symmetries:
       Occupied  (A) (A) (A) (A) (A) (A) (A) (A) (A) (A) (A) (A)
                 (A) (A) (A) (A) (A) (A) (A) (A) (A) (A) (A) (A)
                 (A) (A) (A) (A) (A) (A) (A) (A) (A) (A) (A) (A)
                 (A) (A) (A) (A) (A) (A) (A) (A)
       Virtual   (A) (A) (A) (A) (A) (A) (A) (A) (A) (A) (A) (A)
                 (A) (A) (A) (A) (A) (A) (A) (A) (A) (A) (A) (A)
                 (A) (A) (A) (A) (A) (A) (A) (A) (A) (A) (A) (A)
 The electronic state is 1-A.
 Alpha  occ. eigenvalues --   -1.54328  -1.49521  -1.45257  -1.42418  -1.41577
 Alpha  occ. eigenvalues --   -1.36366  -1.23120  -1.18094  -1.16535  -1.12323
 Alpha  occ. eigenvalues --   -0.99056  -0.94834  -0.88792  -0.86559  -0.81161
 Alpha  occ. eigenvalues --   -0.76422  -0.72944  -0.69638  -0.67065  -0.66458
 Alpha  occ. eigenvalues --   -0.62152  -0.61932  -0.60850  -0.60313  -0.57645
 Alpha  occ. eigenvalues --   -0.57451  -0.56496  -0.56389  -0.55247  -0.54616
 Alpha  occ. eigenvalues --   -0.52610  -0.52226  -0.51969  -0.50096  -0.48791
 Alpha  occ. eigenvalues --   -0.48475  -0.46117  -0.45955  -0.41764  -0.40093
 Alpha  occ. eigenvalues --   -0.37885  -0.37573  -0.37278  -0.34193
 Alpha virt. eigenvalues --   -0.05393  -0.01841  -0.00871  -0.00329   0.04522
 Alpha virt. eigenvalues --    0.04938   0.08058   0.08313   0.09042   0.09681
 Alpha virt. eigenvalues --    0.09764   0.10153   0.12179   0.12315   0.12636
 Alpha virt. eigenvalues --    0.13048   0.13400   0.13479   0.14007   0.14559
 Alpha virt. eigenvalues --    0.14566   0.15388   0.15898   0.15994   0.16725
 Alpha virt. eigenvalues --    0.16840   0.17083   0.17947   0.18415   0.18608
 Alpha virt. eigenvalues --    0.18840   0.19976   0.20447   0.21990   0.22240
 Alpha virt. eigenvalues --    0.23006
          Condensed to atoms (all electrons):
               1          2          3          4          5          6
     1  C    3.691502   0.000000   0.000000   0.000000   0.000000   0.000000
     2  C    0.000000   4.107391   0.000000   0.000000   0.000000   0.000000
     3  C    0.000000   0.000000   4.101493   0.000000   0.000000   0.000000
     4  O    0.000000   0.000000   0.000000   6.288656   0.000000   0.000000
     5  C    0.000000   0.000000   0.000000   0.000000   3.691502   0.000000
     6  C    0.000000   0.000000   0.000000   0.000000   0.000000   4.101493
     7  O    0.000000   0.000000   0.000000   0.000000   0.000000   0.000000
     8  C    0.000000   0.000000   0.000000   0.000000   0.000000   0.000000
     9  C    0.000000   0.000000   0.000000   0.000000   0.000000   0.000000
    10  C    0.000000   0.000000   0.000000   0.000000   0.000000   0.000000
    11  C    0.000000   0.000000   0.000000   0.000000   0.000000   0.000000
    12  C    0.000000   0.000000   0.000000   0.000000   0.000000   0.000000
    13  C    0.000000   0.000000   0.000000   0.000000   0.000000   0.000000
    14  C    0.000000   0.000000   0.000000   0.000000   0.000000   0.000000
    15  C    0.000000   0.000000   0.000000   0.000000   0.000000   0.000000
    16  C    0.000000   0.000000   0.000000   0.000000   0.000000   0.000000
    17  H    0.000000   0.000000   0.000000   0.000000   0.000000   0.000000
    18  H    0.000000   0.000000   0.000000   0.000000   0.000000   0.000000
    19  H    0.000000   0.000000   0.000000   0.000000   0.000000   0.000000
    20  H    0.000000   0.000000   0.000000   0.000000   0.000000   0.000000
    21  H    0.000000   0.000000   0.000000   0.000000   0.000000   0.000000
    22  H    0.000000   0.000000   0.000000   0.000000   0.000000   0.000000
    23  O    0.000000   0.000000   0.000000   0.000000   0.000000   0.000000
    24  H    0.000000   0.000000   0.000000   0.000000   0.000000   0.000000
    25  O    0.000000   0.000000   0.000000   0.000000   0.000000   0.000000
    26  H    0.000000   0.000000   0.000000   0.000000   0.000000   0.000000
               7          8          9         10         11         12
     1  C    0.000000   0.000000   0.000000   0.000000   0.000000   0.000000
     2  C    0.000000   0.000000   0.000000   0.000000   0.000000   0.000000
     3  C    0.000000   0.000000   0.000000   0.000000   0.000000   0.000000
     4  O    0.000000   0.000000   0.000000   0.000000   0.000000   0.000000
     5  C    0.000000   0.000000   0.000000   0.000000   0.000000   0.000000
     6  C    0.000000   0.000000   0.000000   0.000000   0.000000   0.000000
     7  O    6.288656   0.000000   0.000000   0.000000   0.000000   0.000000
     8  C    0.000000   4.107391   0.000000   0.000000   0.000000   0.000000
     9  C    0.000000   0.000000   4.086434   0.000000   0.000000   0.000000
    10  C    0.000000   0.000000   0.000000   4.148694   0.000000   0.000000
    11  C    0.000000   0.000000   0.000000   0.000000   4.086434   0.000000
    12  C    0.000000   0.000000   0.000000   0.000000   0.000000   4.148694
    13  C    0.000000   0.000000   0.000000   0.000000   0.000000   0.000000
    14  C    0.000000   0.000000   0.000000   0.000000   0.000000   0.000000
    15  C    0.000000   0.000000   0.000000   0.000000   0.000000   0.000000
    16  C    0.000000   0.000000   0.000000   0.000000   0.000000   0.000000
    17  H    0.000000   0.000000   0.000000   0.000000   0.000000   0.000000
    18  H    0.000000   0.000000   0.000000   0.000000   0.000000   0.000000
    19  H    0.000000   0.000000   0.000000   0.000000   0.000000   0.000000
    20  H    0.000000   0.000000   0.000000   0.000000   0.000000   0.000000
    21  H    0.000000   0.000000   0.000000   0.000000   0.000000   0.000000
    22  H    0.000000   0.000000   0.000000   0.000000   0.000000   0.000000
    23  O    0.000000   0.000000   0.000000   0.000000   0.000000   0.000000
    24  H    0.000000   0.000000   0.000000   0.000000   0.000000   0.000000
    25  O    0.000000   0.000000   0.000000   0.000000   0.000000   0.000000
    26  H    0.000000   0.000000   0.000000   0.000000   0.000000   0.000000
              13         14         15         16         17         18
     1  C    0.000000   0.000000   0.000000   0.000000   0.000000   0.000000
     2  C    0.000000   0.000000   0.000000   0.000000   0.000000   0.000000
     3  C    0.000000   0.000000   0.000000   0.000000   0.000000   0.000000
     4  O    0.000000   0.000000   0.000000   0.000000   0.000000   0.000000
     5  C    0.000000   0.000000   0.000000   0.000000   0.000000   0.000000
     6  C    0.000000   0.000000   0.000000   0.000000   0.000000   0.000000
     7  O    0.000000   0.000000   0.000000   0.000000   0.000000   0.000000
     8  C    0.000000   0.000000   0.000000   0.000000   0.000000   0.000000
     9  C    0.000000   0.000000   0.000000   0.000000   0.000000   0.000000
    10  C    0.000000   0.000000   0.000000   0.000000   0.000000   0.000000
    11  C    0.000000   0.000000   0.000000   0.000000   0.000000   0.000000
    12  C    0.000000   0.000000   0.000000   0.000000   0.000000   0.000000
    13  C    4.116251   0.000000   0.000000   0.000000   0.000000   0.000000
    14  C    0.000000   4.116251   0.000000   0.000000   0.000000   0.000000
    15  C    0.000000   0.000000   3.929058   0.000000   0.000000   0.000000
    16  C    0.000000   0.000000   0.000000   3.929058   0.000000   0.000000
    17  H    0.000000   0.000000   0.000000   0.000000   0.839278   0.000000
    18  H    0.000000   0.000000   0.000000   0.000000   0.000000   0.834820
    19  H    0.000000   0.000000   0.000000   0.000000   0.000000   0.000000
    20  H    0.000000   0.000000   0.000000   0.000000   0.000000   0.000000
    21  H    0.000000   0.000000   0.000000   0.000000   0.000000   0.000000
    22  H    0.000000   0.000000   0.000000   0.000000   0.000000   0.000000
    23  O    0.000000   0.000000   0.000000   0.000000   0.000000   0.000000
    24  H    0.000000   0.000000   0.000000   0.000000   0.000000   0.000000
    25  O    0.000000   0.000000   0.000000   0.000000   0.000000   0.000000
    26  H    0.000000   0.000000   0.000000   0.000000   0.000000   0.000000
              19         20         21         22         23         24
     1  C    0.000000   0.000000   0.000000   0.000000   0.000000   0.000000
     2  C    0.000000   0.000000   0.000000   0.000000   0.000000   0.000000
     3  C    0.000000   0.000000   0.000000   0.000000   0.000000   0.000000
     4  O    0.000000   0.000000   0.000000   0.000000   0.000000   0.000000
     5  C    0.000000   0.000000   0.000000   0.000000   0.000000   0.000000
     6  C    0.000000   0.000000   0.000000   0.000000   0.000000   0.000000
     7  O    0.000000   0.000000   0.000000   0.000000   0.000000   0.000000
     8  C    0.000000   0.000000   0.000000   0.000000   0.000000   0.000000
     9  C    0.000000   0.000000   0.000000   0.000000   0.000000   0.000000
    10  C    0.000000   0.000000   0.000000   0.000000   0.000000   0.000000
    11  C    0.000000   0.000000   0.000000   0.000000   0.000000   0.000000
    12  C    0.000000   0.000000   0.000000   0.000000   0.000000   0.000000
    13  C    0.000000   0.000000   0.000000   0.000000   0.000000   0.000000
    14  C    0.000000   0.000000   0.000000   0.000000   0.000000   0.000000
    15  C    0.000000   0.000000   0.000000   0.000000   0.000000   0.000000
    16  C    0.000000   0.000000   0.000000   0.000000   0.000000   0.000000
    17  H    0.000000   0.000000   0.000000   0.000000   0.000000   0.000000
    18  H    0.000000   0.000000   0.000000   0.000000   0.000000   0.000000
    19  H    0.839278   0.000000   0.000000   0.000000   0.000000   0.000000
    20  H    0.000000   0.834820   0.000000   0.000000   0.000000   0.000000
    21  H    0.000000   0.000000   0.857641   0.000000   0.000000   0.000000
    22  H    0.000000   0.000000   0.000000   0.857641   0.000000   0.000000
    23  O    0.000000   0.000000   0.000000   0.000000   6.221416   0.000000
    24  H    0.000000   0.000000   0.000000   0.000000   0.000000   0.777366
    25  O    0.000000   0.000000   0.000000   0.000000   0.000000   0.000000
    26  H    0.000000   0.000000   0.000000   0.000000   0.000000   0.000000
              25         26
     1  C    0.000000   0.000000
     2  C    0.000000   0.000000
     3  C    0.000000   0.000000
     4  O    0.000000   0.000000
     5  C    0.000000   0.000000
     6  C    0.000000   0.000000
     7  O    0.000000   0.000000
     8  C    0.000000   0.000000
     9  C    0.000000   0.000000
    10  C    0.000000   0.000000
    11  C    0.000000   0.000000
    12  C    0.000000   0.000000
    13  C    0.000000   0.000000
    14  C    0.000000   0.000000
    15  C    0.000000   0.000000
    16  C    0.000000   0.000000
    17  H    0.000000   0.000000
    18  H    0.000000   0.000000
    19  H    0.000000   0.000000
    20  H    0.000000   0.000000
    21  H    0.000000   0.000000
    22  H    0.000000   0.000000
    23  O    0.000000   0.000000
    24  H    0.000000   0.000000
    25  O    6.221416   0.000000
    26  H    0.000000   0.777365
 Mulliken charges:
               1
     1  C    0.308498
     2  C   -0.107391
     3  C   -0.101493
     4  O   -0.288656
     5  C    0.308498
     6  C   -0.101493
     7  O   -0.288656
     8  C   -0.107391
     9  C   -0.086434
    10  C   -0.148694
    11  C   -0.086434
    12  C   -0.148694
    13  C   -0.116251
    14  C   -0.116251
    15  C    0.070942
    16  C    0.070942
    17  H    0.160722
    18  H    0.165180
    19  H    0.160722
    20  H    0.165180
    21  H    0.142359
    22  H    0.142359
    23  O   -0.221416
    24  H    0.222634
    25  O   -0.221416
    26  H    0.222635
 Sum of Mulliken charges =   0.00000
 Mulliken charges with hydrogens summed into heavy atoms:
               1
     1  C    0.308498
     2  C   -0.107391
     3  C   -0.101493
     4  O   -0.288656
     5  C    0.308498
     6  C   -0.101493
     7  O   -0.288656
     8  C   -0.107391
     9  C    0.074288
    10  C    0.016486
    11  C    0.074288
    12  C    0.016486
    13  C    0.026108
    14  C    0.026108
    15  C    0.070942
    16  C    0.070942
    23  O    0.001218
    25  O    0.001218
 Charge=              0.0000 electrons
 Dipole moment (field-independent basis, Debye):
    X=              1.7320    Y=             -0.0000    Z=              0.0026  Tot=              1.7320
 N-N= 6.623241888738D+02 E-N=-1.195769080240D+03  KE=-6.215886560312D+01
 1\1\GINC-GTX1080DELTA\FOpt\RAM1\ZDO\C14H8O4\MVEROT\11-Apr-2022\0\\#n A
 M1 Opt\\Geometry optimization\\0,1\C,0.0240010765,1.4800323252,-0.0196
 760199\C,1.2851018024,0.7093473519,-0.0101449934\C,-1.2355410927,0.706
 8428447,-0.0044857748\O,0.0216202456,2.7195786314,-0.0394418814\C,0.02
 49544903,-1.4666519747,0.0254036496\C,-1.2350883976,-0.6941778624,0.01
 6733654\O,0.0233760387,-2.7062219401,0.0437131239\C,1.2855560271,-0.69
 52218954,0.0112426914\C,2.5014445271,1.4017121729,-0.0228991257\C,-2.4
 482079189,-1.3934682596,0.0303548577\C,2.502346314,-1.3868680832,0.019
 5116079\C,-2.4491119546,1.4054435922,-0.0118572531\C,3.7098343389,0.70
 43452531,-0.014482412\C,3.7102848541,-0.6887866285,0.0067007671\C,-3.6
 630098977,0.7141765956,0.0017379871\C,-3.6625523472,-0.7028905984,0.02
 30661029\H,2.490157785,2.5044693067,-0.0396983876\H,-2.4328626812,-2.4
 960783196,0.0469011724\H,2.4917727725,-2.4896328929,0.0362722216\H,-2.
 4344793382,2.508060616,-0.028584555\H,4.6610011404,1.2580318317,-0.024
 6479378\H,4.6618095875,-1.2419108586,0.0133884805\O,-4.8843344319,1.33
 86833474,-0.0044067191\H,-4.7274641508,2.2958392387,-0.0195951883\O,-4
 .8834736263,-1.3280889086,0.0356405871\H,-4.7259851631,-2.2851648855,0
 .0494033448\\Version=AM64L-G09RevD.01\State=1-A\HF=-0.1456442\RMSD=4.5
 03e-09\RMSF=2.029e-05\Dipole=0.6814226,0.0002122,-0.0005308\PG=C01 [X(
 C14H8O4)]\\@


 MY GROUP MEETINGS AREN'T VERY STRUCTURED.
     -- PROF. M. S. GORDON, OCT. 5, 1984
 Job cpu time:       0 days  0 hours  0 minutes  7.2 seconds.
 File lengths (MBytes):  RWF=    132 Int=      0 D2E=      0 Chk=      3 Scr=      2
 Normal termination of Gaussian 09 at Mon Apr 11 23:41:16 2022.
