 Entering Gaussian System, Link 0=g09
 Input=/scratch/mverot/2-butene-E-opt/2-butene-E-opt.com
 Output=/scratch/mverot/2-butene-E-opt/2-butene-E-opt.log
 Initial command:
 /opt/g09/l1.exe "/scratch/mverot/2-butene-E-opt/Gau-747511.inp" -scrdir="/scratch/mverot/2-butene-E-opt/"
 Entering Link 1 = /opt/g09/l1.exe PID=    747513.
  
 Copyright (c) 1988,1990,1992,1993,1995,1998,2003,2009,2013,
            Gaussian, Inc.  All Rights Reserved.
  
 This is part of the Gaussian(R) 09 program.  It is based on
 the Gaussian(R) 03 system (copyright 2003, Gaussian, Inc.),
 the Gaussian(R) 98 system (copyright 1998, Gaussian, Inc.),
 the Gaussian(R) 94 system (copyright 1995, Gaussian, Inc.),
 the Gaussian 92(TM) system (copyright 1992, Gaussian, Inc.),
 the Gaussian 90(TM) system (copyright 1990, Gaussian, Inc.),
 the Gaussian 88(TM) system (copyright 1988, Gaussian, Inc.),
 the Gaussian 86(TM) system (copyright 1986, Carnegie Mellon
 University), and the Gaussian 82(TM) system (copyright 1983,
 Carnegie Mellon University). Gaussian is a federally registered
 trademark of Gaussian, Inc.
  
 This software contains proprietary and confidential information,
 including trade secrets, belonging to Gaussian, Inc.
  
 This software is provided under written license and may be
 used, copied, transmitted, or stored only in accord with that
 written license.
  
 The following legend is applicable only to US Government
 contracts under FAR:
  
                    RESTRICTED RIGHTS LEGEND
  
 Use, reproduction and disclosure by the US Government is
 subject to restrictions as set forth in subparagraphs (a)
 and (c) of the Commercial Computer Software - Restricted
 Rights clause in FAR 52.227-19.
  
 Gaussian, Inc.
 340 Quinnipiac St., Bldg. 40, Wallingford CT 06492
  
  
 ---------------------------------------------------------------
 Warning -- This program may not be used in any manner that
 competes with the business of Gaussian, Inc. or will provide
 assistance to any competitor of Gaussian, Inc.  The licensee
 of this program is prohibited from giving any competitor of
 Gaussian, Inc. access to this program.  By using this program,
 the user acknowledges that Gaussian, Inc. is engaged in the
 business of creating and licensing software in the field of
 computational chemistry and represents and warrants to the
 licensee that it is not a competitor of Gaussian, Inc. and that
 it will not use this program in any manner prohibited above.
 ---------------------------------------------------------------
  

 Cite this work as:
 Gaussian 09, Revision D.01,
 M. J. Frisch, G. W. Trucks, H. B. Schlegel, G. E. Scuseria, 
 M. A. Robb, J. R. Cheeseman, G. Scalmani, V. Barone, B. Mennucci, 
 G. A. Petersson, H. Nakatsuji, M. Caricato, X. Li, H. P. Hratchian, 
 A. F. Izmaylov, J. Bloino, G. Zheng, J. L. Sonnenberg, M. Hada, 
 M. Ehara, K. Toyota, R. Fukuda, J. Hasegawa, M. Ishida, T. Nakajima, 
 Y. Honda, O. Kitao, H. Nakai, T. Vreven, J. A. Montgomery, Jr., 
 J. E. Peralta, F. Ogliaro, M. Bearpark, J. J. Heyd, E. Brothers, 
 K. N. Kudin, V. N. Staroverov, T. Keith, R. Kobayashi, J. Normand, 
 K. Raghavachari, A. Rendell, J. C. Burant, S. S. Iyengar, J. Tomasi, 
 M. Cossi, N. Rega, J. M. Millam, M. Klene, J. E. Knox, J. B. Cross, 
 V. Bakken, C. Adamo, J. Jaramillo, R. Gomperts, R. E. Stratmann, 
 O. Yazyev, A. J. Austin, R. Cammi, C. Pomelli, J. W. Ochterski, 
 R. L. Martin, K. Morokuma, V. G. Zakrzewski, G. A. Voth, 
 P. Salvador, J. J. Dannenberg, S. Dapprich, A. D. Daniels, 
 O. Farkas, J. B. Foresman, J. V. Ortiz, J. Cioslowski, 
 and D. J. Fox, Gaussian, Inc., Wallingford CT, 2013.
 
 ******************************************
 Gaussian 09:  AM64L-G09RevD.01 24-Apr-2013
                16-Apr-2022 
 ******************************************
 %chk=2-butene-E-opt
 --------------------
 # hf/6-31G* opt freq
 --------------------
 1/18=20,19=15,38=1/1,3;
 2/9=110,12=2,17=6,18=5,40=1/2;
 3/5=1,6=6,7=1,11=9,16=1,25=1,30=1,71=1/1,2,3;
 4//1;
 5/5=2,38=5/2;
 6/7=2,8=2,9=2,10=2,28=1/1;
 7//1,2,3,16;
 1/18=20,19=15/3(2);
 2/9=110/2;
 99//99;
 2/9=110/2;
 3/5=1,6=6,7=1,11=9,16=1,25=1,30=1,71=1/1,2,3;
 4/5=5,16=3,69=1/1;
 5/5=2,38=5/2;
 7//1,2,3,16;
 1/18=20,19=15/3(-5);
 2/9=110/2;
 6/7=2,8=2,9=2,10=2,19=2,28=1/1;
 99/9=1/99;
 -------------------------
 Optimisation de geometrie
 -------------------------
 Symbolic Z-matrix:
 Charge =  0 Multiplicity = 1
 C                     1.9673    0.9273    0.8805 
 C                     2.9586    1.6585    1.3965 
 C                     4.4218    1.3366    1.2869 
 C                     0.504     1.2489    0.9905 
 H                     2.219     0.018     0.3305 
 H                     2.7069    2.5679    1.9464 
 H                     4.5892    0.4152    0.7185 
 H                     4.9736    2.146     0.7893 
 H                     4.8791    1.2104    2.278 
 H                     0.0457    1.3715   -0.0005 
 H                    -0.0469    0.4409    1.4914 
 H                     0.3368    2.1721    1.556 
 

 GradGradGradGradGradGradGradGradGradGradGradGradGradGradGradGradGradGrad
 Berny optimization.
 Initialization pass.
                           ----------------------------
                           !    Initial Parameters    !
                           ! (Angstroms and Degrees)  !
 --------------------------                            --------------------------
 ! Name  Definition              Value          Derivative Info.                !
 --------------------------------------------------------------------------------
 ! R1    R(1,2)                  1.3355         estimate D2E/DX2                !
 ! R2    R(1,4)                  1.5023         estimate D2E/DX2                !
 ! R3    R(1,5)                  1.0921         estimate D2E/DX2                !
 ! R4    R(2,3)                  1.5022         estimate D2E/DX2                !
 ! R5    R(2,6)                  1.0921         estimate D2E/DX2                !
 ! R6    R(3,7)                  1.0955         estimate D2E/DX2                !
 ! R7    R(3,8)                  1.0987         estimate D2E/DX2                !
 ! R8    R(3,9)                  1.0988         estimate D2E/DX2                !
 ! R9    R(4,10)                 1.0987         estimate D2E/DX2                !
 ! R10   R(4,11)                 1.0988         estimate D2E/DX2                !
 ! R11   R(4,12)                 1.0955         estimate D2E/DX2                !
 ! A1    A(2,1,4)              125.276          estimate D2E/DX2                !
 ! A2    A(2,1,5)              118.6445         estimate D2E/DX2                !
 ! A3    A(4,1,5)              116.0795         estimate D2E/DX2                !
 ! A4    A(1,2,3)              125.2737         estimate D2E/DX2                !
 ! A5    A(1,2,6)              118.6445         estimate D2E/DX2                !
 ! A6    A(3,2,6)              116.0818         estimate D2E/DX2                !
 ! A7    A(2,3,7)              111.5266         estimate D2E/DX2                !
 ! A8    A(2,3,8)              111.3684         estimate D2E/DX2                !
 ! A9    A(2,3,9)              111.3575         estimate D2E/DX2                !
 ! A10   A(7,3,8)              107.9313         estimate D2E/DX2                !
 ! A11   A(7,3,9)              107.9272         estimate D2E/DX2                !
 ! A12   A(8,3,9)              106.5047         estimate D2E/DX2                !
 ! A13   A(1,4,10)             111.3555         estimate D2E/DX2                !
 ! A14   A(1,4,11)             111.3668         estimate D2E/DX2                !
 ! A15   A(1,4,12)             111.5236         estimate D2E/DX2                !
 ! A16   A(10,4,11)            106.5055         estimate D2E/DX2                !
 ! A17   A(10,4,12)            107.9333         estimate D2E/DX2                !
 ! A18   A(11,4,12)            107.9314         estimate D2E/DX2                !
 ! D1    D(4,1,2,3)            179.9765         estimate D2E/DX2                !
 ! D2    D(4,1,2,6)             -0.0223         estimate D2E/DX2                !
 ! D3    D(5,1,2,3)             -0.0094         estimate D2E/DX2                !
 ! D4    D(5,1,2,6)            179.9918         estimate D2E/DX2                !
 ! D5    D(2,1,4,10)           120.5717         estimate D2E/DX2                !
 ! D6    D(2,1,4,11)          -120.7077         estimate D2E/DX2                !
 ! D7    D(2,1,4,12)            -0.0653         estimate D2E/DX2                !
 ! D8    D(5,1,4,10)           -59.442          estimate D2E/DX2                !
 ! D9    D(5,1,4,11)            59.2785         estimate D2E/DX2                !
 ! D10   D(5,1,4,12)           179.9209         estimate D2E/DX2                !
 ! D11   D(1,2,3,7)              0.2787         estimate D2E/DX2                !
 ! D12   D(1,2,3,8)            120.9242         estimate D2E/DX2                !
 ! D13   D(1,2,3,9)           -120.354          estimate D2E/DX2                !
 ! D14   D(6,2,3,7)           -179.7225         estimate D2E/DX2                !
 ! D15   D(6,2,3,8)            -59.077          estimate D2E/DX2                !
 ! D16   D(6,2,3,9)             59.6448         estimate D2E/DX2                !
 --------------------------------------------------------------------------------
 Trust Radius=3.00D-01 FncErr=1.00D-07 GrdErr=1.00D-07
 Number of steps in this run=     55 maximum allowed number of steps=    100.
 GradGradGradGradGradGradGradGradGradGradGradGradGradGradGradGradGradGrad

                          Input orientation:                          
 ---------------------------------------------------------------------
 Center     Atomic      Atomic             Coordinates (Angstroms)
 Number     Number       Type             X           Y           Z
 ---------------------------------------------------------------------
      1          6           0        1.967300    0.927300    0.880500
      2          6           0        2.958600    1.658500    1.396500
      3          6           0        4.421800    1.336600    1.286900
      4          6           0        0.504000    1.248900    0.990500
      5          1           0        2.219000    0.018000    0.330500
      6          1           0        2.706900    2.567900    1.946400
      7          1           0        4.589200    0.415200    0.718500
      8          1           0        4.973600    2.146000    0.789300
      9          1           0        4.879100    1.210400    2.278000
     10          1           0        0.045700    1.371500   -0.000500
     11          1           0       -0.046900    0.440900    1.491400
     12          1           0        0.336800    2.172100    1.556000
 ---------------------------------------------------------------------
                    Distance matrix (angstroms):
                    1          2          3          4          5
     1  C    0.000000
     2  C    1.335509   0.000000
     3  C    2.521360   1.502194   0.000000
     4  C    1.502256   2.521442   3.929975   0.000000
     5  H    1.092099   2.091556   2.739660   2.211773   0.000000
     6  H    2.091583   1.092132   2.211769   2.739758   3.057968
     7  H    2.676350   2.159707   1.095481   4.178265   2.434371
     8  H    3.245210   2.160225   1.098734   4.563178   3.510940
     9  H    3.242180   2.160129   1.098785   4.560772   3.505810
    10  H    2.160097   3.243295   4.561674   1.098704   2.581619
    11  H    2.160274   3.244162   4.562168   1.098752   2.580860
    12  H    2.159712   2.676389   4.178241   1.095465   3.112021
                    6          7          8          9         10
     6  H    0.000000
     7  H    3.112059   0.000000
     8  H    2.579692   1.774386   0.000000
     9  H    2.582870   1.774380   1.760825   0.000000
    10  H    3.507674   4.698389   5.050528   5.345958   0.000000
    11  H    3.509212   4.700155   5.348433   5.047410   1.760783
    12  H    2.434429   4.676645   4.699832   4.698791   1.774371
                   11         12
    11  H    0.000000
    12  H    1.774388   0.000000
 Stoichiometry    C4H8
 Framework group  C1[X(C4H8)]
 Deg. of freedom    30
 Full point group                 C1      NOp   1
 Largest Abelian subgroup         C1      NOp   1
 Largest concise Abelian subgroup C1      NOp   1
                         Standard orientation:                         
 ---------------------------------------------------------------------
 Center     Atomic      Atomic             Coordinates (Angstroms)
 Number     Number       Type             X           Y           Z
 ---------------------------------------------------------------------
      1          6           0       -0.538097   -0.395372   -0.000160
      2          6           0        0.538133    0.395395   -0.000153
      3          6           0        1.963368   -0.079255    0.000077
      4          6           0       -1.963409    0.079242    0.000113
      5          1           0       -0.392483   -1.477719   -0.000145
      6          1           0        0.392515    1.477775   -0.000306
      7          1           0        2.022751   -1.173115   -0.004715
      8          1           0        2.509441    0.293012   -0.877670
      9          1           0        2.506327    0.285070    0.883135
     10          1           0       -2.507556   -0.287983   -0.880910
     11          1           0       -2.508191   -0.290207    0.879872
     12          1           0       -2.022772    1.173097    0.001486
 ---------------------------------------------------------------------
 Rotational constants (GHZ):     34.7675662      3.7021937      3.4903184
 Standard basis: 6-31G(d) (6D, 7F)
 There are    76 symmetry adapted cartesian basis functions of A   symmetry.
 There are    76 symmetry adapted basis functions of A   symmetry.
    76 basis functions,   144 primitive gaussians,    76 cartesian basis functions
    16 alpha electrons       16 beta electrons
       nuclear repulsion energy       115.5284714596 Hartrees.
 NAtoms=   12 NActive=   12 NUniq=   12 SFac= 1.00D+00 NAtFMM=   60 NAOKFM=F Big=F
 Integral buffers will be    131072 words long.
 Raffenetti 1 integral format.
 Two-electron integral symmetry is turned on.
 One-electron integrals computed using PRISM.
 NBasis=    76 RedAO= T EigKep=  3.62D-03  NBF=    76
 NBsUse=    76 1.00D-06 EigRej= -1.00D+00 NBFU=    76
 ExpMin= 1.61D-01 ExpMax= 3.05D+03 ExpMxC= 4.57D+02 IAcc=1 IRadAn=         1 AccDes= 0.00D+00
 Harris functional with IExCor=  205 and IRadAn=       1 diagonalized for initial guess.
 HarFok:  IExCor=  205 AccDes= 0.00D+00 IRadAn=         1 IDoV= 1 UseB2=F ITyADJ=14
 ICtDFT=  3500011 ScaDFX=  1.000000  1.000000  1.000000  1.000000
 FoFCou: FMM=F IPFlag=           0 FMFlag=      100000 FMFlg1=           0
         NFxFlg=           0 DoJE=T BraDBF=F KetDBF=T FulRan=T
         wScrn=  0.000000 ICntrl=     500 IOpCl=  0 I1Cent=   200000004 NGrid=           0
         NMat0=    1 NMatS0=      1 NMatT0=    0 NMatD0=    1 NMtDS0=    0 NMtDT0=    0
 Petite list used in FoFCou.
 Keep R1 ints in memory in canonical form, NReq=5180932.
 Requested convergence on RMS density matrix=1.00D-08 within 128 cycles.
 Requested convergence on MAX density matrix=1.00D-06.
 Requested convergence on             energy=1.00D-06.
 No special actions if energy rises.
 SCF Done:  E(RHF) =  -156.109358160     A.U. after   10 cycles
            NFock= 10  Conv=0.52D-08     -V/T= 2.0017

 **********************************************************************

            Population analysis using the SCF density.

 **********************************************************************

 Orbital symmetries:
       Occupied  (A) (A) (A) (A) (A) (A) (A) (A) (A) (A) (A) (A)
                 (A) (A) (A) (A)
       Virtual   (A) (A) (A) (A) (A) (A) (A) (A) (A) (A) (A) (A)
                 (A) (A) (A) (A) (A) (A) (A) (A) (A) (A) (A) (A)
                 (A) (A) (A) (A) (A) (A) (A) (A) (A) (A) (A) (A)
                 (A) (A) (A) (A) (A) (A) (A) (A) (A) (A) (A) (A)
                 (A) (A) (A) (A) (A) (A) (A) (A) (A) (A) (A) (A)
 The electronic state is 1-A.
 Alpha  occ. eigenvalues --  -11.22451 -11.22288 -11.21927 -11.21926  -1.07212
 Alpha  occ. eigenvalues --   -0.97987  -0.87499  -0.74039  -0.60289  -0.60215
 Alpha  occ. eigenvalues --   -0.56690  -0.55029  -0.51945  -0.50653  -0.47795
 Alpha  occ. eigenvalues --   -0.33805
 Alpha virt. eigenvalues --    0.19491   0.26111   0.26245   0.27181   0.32137
 Alpha virt. eigenvalues --    0.32343   0.33669   0.33819   0.34116   0.42617
 Alpha virt. eigenvalues --    0.46925   0.61179   0.69492   0.72015   0.75619
 Alpha virt. eigenvalues --    0.76906   0.81840   0.84996   0.92224   0.93067
 Alpha virt. eigenvalues --    0.94520   0.97663   1.02716   1.05060   1.13957
 Alpha virt. eigenvalues --    1.14245   1.15766   1.16570   1.18323   1.21285
 Alpha virt. eigenvalues --    1.22836   1.23935   1.39906   1.45291   1.53615
 Alpha virt. eigenvalues --    1.64769   1.65313   1.74341   1.94981   2.05689
 Alpha virt. eigenvalues --    2.10394   2.18215   2.22278   2.25718   2.36798
 Alpha virt. eigenvalues --    2.41162   2.55401   2.61652   2.62326   2.63074
 Alpha virt. eigenvalues --    2.70768   2.75733   2.80902   2.99941   3.20669
 Alpha virt. eigenvalues --    3.30175   4.53949   4.61641   4.74899   4.86993
          Condensed to atoms (all electrons):
               1          2          3          4          5          6
     1  C    4.946732   0.694412  -0.045211   0.339964   0.390944  -0.040943
     2  C    0.694412   4.946723   0.339958  -0.045203  -0.040947   0.390940
     3  C   -0.045211   0.339958   5.080841   0.003179  -0.004018  -0.039840
     4  C    0.339964  -0.045203   0.003179   5.080815  -0.039841  -0.004017
     5  H    0.390944  -0.040947  -0.004018  -0.039841   0.516491   0.003758
     6  H   -0.040943   0.390940  -0.039840  -0.004017   0.003758   0.516488
     7  H    0.000796  -0.044584   0.395061   0.000121   0.003324   0.002986
     8  H   -0.000733  -0.039586   0.389084  -0.000088   0.000091  -0.000605
     9  H   -0.000815  -0.039612   0.389047  -0.000088   0.000093  -0.000557
    10  H   -0.039613  -0.000787  -0.000088   0.389070  -0.000573   0.000092
    11  H   -0.039581  -0.000759  -0.000088   0.389067  -0.000589   0.000092
    12  H   -0.044583   0.000796   0.000121   0.395059   0.002986   0.003324
               7          8          9         10         11         12
     1  C    0.000796  -0.000733  -0.000815  -0.039613  -0.039581  -0.044583
     2  C   -0.044584  -0.039586  -0.039612  -0.000787  -0.000759   0.000796
     3  C    0.395061   0.389084   0.389047  -0.000088  -0.000088   0.000121
     4  C    0.000121  -0.000088  -0.000088   0.389070   0.389067   0.395059
     5  H    0.003324   0.000091   0.000093  -0.000573  -0.000589   0.002986
     6  H    0.002986  -0.000605  -0.000557   0.000092   0.000092   0.003324
     7  H    0.524769  -0.025411  -0.025408  -0.000002  -0.000002   0.000009
     8  H   -0.025411   0.545834  -0.034944   0.000014  -0.000003  -0.000002
     9  H   -0.025408  -0.034944   0.545852  -0.000003   0.000014  -0.000002
    10  H   -0.000002   0.000014  -0.000003   0.545834  -0.034946  -0.025404
    11  H   -0.000002  -0.000003   0.000014  -0.034946   0.545824  -0.025409
    12  H    0.000009  -0.000002  -0.000002  -0.025404  -0.025409   0.524765
 Mulliken charges:
               1
     1  C   -0.161370
     2  C   -0.161350
     3  C   -0.508047
     4  C   -0.508038
     5  H    0.168281
     6  H    0.168282
     7  H    0.168342
     8  H    0.166350
     9  H    0.166423
    10  H    0.166406
    11  H    0.166380
    12  H    0.168341
 Sum of Mulliken charges =  -0.00000
 Mulliken charges with hydrogens summed into heavy atoms:
               1
     1  C    0.006911
     2  C    0.006933
     3  C   -0.006932
     4  C   -0.006911
 Electronic spatial extent (au):  <R**2>=            401.6379
 Charge=             -0.0000 electrons
 Dipole moment (field-independent basis, Debye):
    X=             -0.0000    Y=             -0.0000    Z=              0.0003  Tot=              0.0004
 Quadrupole moment (field-independent basis, Debye-Ang):
   XX=            -25.8146   YY=            -25.5578   ZZ=            -28.2724
   XY=              0.3717   XZ=              0.0000   YZ=              0.0001
 Traceless Quadrupole moment (field-independent basis, Debye-Ang):
   XX=              0.7337   YY=              0.9904   ZZ=             -1.7241
   XY=              0.3717   XZ=              0.0000   YZ=              0.0001
 Octapole moment (field-independent basis, Debye-Ang**2):
  XXX=             -0.0006  YYY=              0.0001  ZZZ=              0.0070  XYY=             -0.0002
  XXY=             -0.0005  XXZ=             -0.0001  XZZ=             -0.0002  YZZ=             -0.0002
  YYZ=             -0.0054  XYZ=             -0.0013
 Hexadecapole moment (field-independent basis, Debye-Ang**3):
 XXXX=           -447.8598 YYYY=            -65.2150 ZZZZ=            -43.2470 XXXY=              2.8610
 XXXZ=             -0.0109 YYYX=             -1.8397 YYYZ=              0.0063 ZZZX=              0.0242
 ZZZY=             -0.0017 XXYY=            -85.4045 XXZZ=            -77.3902 YYZZ=            -19.8559
 XXYZ=             -0.0120 YYXZ=             -0.0208 ZZXY=              1.9791
 N-N= 1.155284714596D+02 E-N=-5.936788479978D+02  KE= 1.558381621381D+02
 Calling FoFJK, ICntrl=      2127 FMM=F ISym2X=0 I1Cent= 0 IOpClX= 0 NMat=1 NMatS=1 NMatT=0.
 ***** Axes restored to original set *****
 -------------------------------------------------------------------
 Center     Atomic                   Forces (Hartrees/Bohr)
 Number     Number              X              Y              Z
 -------------------------------------------------------------------
      1        6           0.017123530    0.003676374    0.003379546
      2        6          -0.017167304   -0.003656135   -0.003369742
      3        6           0.008630360   -0.001720461   -0.000507579
      4        6          -0.008565918    0.001702520    0.000532278
      5        1          -0.002074864    0.007291093    0.004391721
      6        1           0.002080874   -0.007319579   -0.004386826
      7        1          -0.001215043    0.006407694    0.003963906
      8        1          -0.004575700   -0.005616014    0.003184936
      9        1          -0.003926702    0.000701201   -0.006843077
     10        1           0.003912195   -0.000657387    0.006804869
     11        1           0.004573367    0.005607089   -0.003216313
     12        1           0.001205206   -0.006416396   -0.003933719
 -------------------------------------------------------------------
 Cartesian Forces:  Max     0.017167304 RMS     0.006037379

 GradGradGradGradGradGradGradGradGradGradGradGradGradGradGradGradGradGrad
 Berny optimization.
 FormGI is forming the generalized inverse of G from B-inverse, IUseBI=4.
 Internal  Forces:  Max     0.021213765 RMS     0.004655254
 Search for a local minimum.
 Step number   1 out of a maximum of   55
 All quantities printed in internal units (Hartrees-Bohrs-Radians)
 Mixed Optimization -- RFO/linear search
 Second derivative matrix not updated -- first step.
 ITU=  0
     Eigenvalues ---    0.00736   0.00737   0.01643   0.01644   0.02942
     Eigenvalues ---    0.07087   0.07087   0.07187   0.07187   0.16000
     Eigenvalues ---    0.16000   0.16000   0.16000   0.16000   0.16000
     Eigenvalues ---    0.16000   0.16000   0.22000   0.22000   0.32142
     Eigenvalues ---    0.32148   0.33817   0.33821   0.33822   0.33826
     Eigenvalues ---    0.34187   0.34189   0.34567   0.34571   0.58223
 RFO step:  Lambda=-2.31463650D-03 EMin= 7.36103296D-03
 Linear search not attempted -- first point.
 Iteration  1 RMS(Cart)=  0.01684730 RMS(Int)=  0.00002534
 Iteration  2 RMS(Cart)=  0.00003618 RMS(Int)=  0.00000174
 Iteration  3 RMS(Cart)=  0.00000000 RMS(Int)=  0.00000174
 Variable       Old X    -DE/DX   Delta X   Delta X   Delta X     New X
                                 (Linear)    (Quad)   (Total)
    R1        2.52375  -0.02121   0.00000  -0.03629  -0.03629   2.48746
    R2        2.83885  -0.00103   0.00000  -0.00319  -0.00319   2.83567
    R3        2.06377  -0.00876   0.00000  -0.02517  -0.02517   2.03859
    R4        2.83873  -0.00100   0.00000  -0.00307  -0.00307   2.83566
    R5        2.06383  -0.00878   0.00000  -0.02524  -0.02524   2.03859
    R6        2.07016  -0.00763   0.00000  -0.02217  -0.02217   2.04799
    R7        2.07631  -0.00788   0.00000  -0.02313  -0.02313   2.05317
    R8        2.07640  -0.00789   0.00000  -0.02316  -0.02316   2.05324
    R9        2.07625  -0.00784   0.00000  -0.02303  -0.02303   2.05322
   R10        2.07634  -0.00788   0.00000  -0.02315  -0.02315   2.05319
   R11        2.07013  -0.00762   0.00000  -0.02214  -0.02214   2.04799
    A1        2.18648  -0.00050   0.00000  -0.00226  -0.00226   2.18422
    A2        2.07074   0.00031   0.00000   0.00150   0.00150   2.07223
    A3        2.02597   0.00019   0.00000   0.00076   0.00076   2.02673
    A4        2.18644  -0.00049   0.00000  -0.00222  -0.00222   2.18422
    A5        2.07074   0.00031   0.00000   0.00149   0.00149   2.07223
    A6        2.02601   0.00018   0.00000   0.00073   0.00073   2.02674
    A7        1.94651   0.00017   0.00000   0.00070   0.00070   1.94721
    A8        1.94374  -0.00076   0.00000  -0.00452  -0.00452   1.93922
    A9        1.94355  -0.00074   0.00000  -0.00435  -0.00435   1.93920
   A10        1.88376   0.00026   0.00000   0.00123   0.00123   1.88498
   A11        1.88369   0.00025   0.00000   0.00123   0.00123   1.88491
   A12        1.85886   0.00090   0.00000   0.00625   0.00624   1.86510
   A13        1.94352  -0.00073   0.00000  -0.00429  -0.00429   1.93923
   A14        1.94372  -0.00077   0.00000  -0.00456  -0.00456   1.93915
   A15        1.94645   0.00018   0.00000   0.00075   0.00074   1.94720
   A16        1.85887   0.00090   0.00000   0.00626   0.00625   1.86512
   A17        1.88379   0.00024   0.00000   0.00118   0.00118   1.88497
   A18        1.88376   0.00025   0.00000   0.00120   0.00120   1.88496
    D1        3.14118   0.00001   0.00000   0.00022   0.00022   3.14140
    D2       -0.00039   0.00001   0.00000   0.00047   0.00047   0.00008
    D3       -0.00016  -0.00000   0.00000  -0.00022  -0.00022  -0.00039
    D4        3.14145   0.00000   0.00000   0.00003   0.00003   3.14148
    D5        2.10437  -0.00007   0.00000  -0.00083  -0.00083   2.10354
    D6       -2.10675   0.00008   0.00000   0.00121   0.00121  -2.10553
    D7       -0.00114  -0.00000   0.00000   0.00011   0.00011  -0.00103
    D8       -1.03746  -0.00007   0.00000  -0.00040  -0.00040  -1.03786
    D9        1.03460   0.00009   0.00000   0.00164   0.00164   1.03625
   D10        3.14021   0.00000   0.00000   0.00054   0.00054   3.14075
   D11        0.00486  -0.00001   0.00000  -0.00108  -0.00108   0.00378
   D12        2.11052  -0.00009   0.00000  -0.00215  -0.00215   2.10837
   D13       -2.10057   0.00006   0.00000  -0.00013  -0.00013  -2.10070
   D14       -3.13675  -0.00001   0.00000  -0.00133  -0.00133  -3.13808
   D15       -1.03109  -0.00009   0.00000  -0.00240  -0.00240  -1.03349
   D16        1.04100   0.00006   0.00000  -0.00038  -0.00038   1.04062
         Item               Value     Threshold  Converged?
 Maximum Force            0.021214     0.000450     NO 
 RMS     Force            0.004655     0.000300     NO 
 Maximum Displacement     0.039490     0.001800     NO 
 RMS     Displacement     0.016833     0.001200     NO 
 Predicted change in Energy=-1.164178D-03
 GradGradGradGradGradGradGradGradGradGradGradGradGradGradGradGradGradGrad

                          Input orientation:                          
 ---------------------------------------------------------------------
 Center     Atomic      Atomic             Coordinates (Angstroms)
 Number     Number       Type             X           Y           Z
 ---------------------------------------------------------------------
      1          6           0        1.975770    0.931234    0.883450
      2          6           0        2.950085    1.654425    1.393709
      3          6           0        4.411997    1.334042    1.284761
      4          6           0        0.513844    1.251495    0.992603
      5          1           0        2.226094    0.033617    0.339958
      6          1           0        2.699759    2.552093    1.937110
      7          1           0        4.579244    0.422298    0.723279
      8          1           0        4.952703    2.136574    0.790751
      9          1           0        4.859719    1.210324    2.266993
     10          1           0        0.065364    1.372519    0.010391
     11          1           0       -0.026225    0.450063    1.489110
     12          1           0        0.346747    2.164616    1.551885
 ---------------------------------------------------------------------
                    Distance matrix (angstroms):
                    1          2          3          4          5
     1  C    0.000000
     2  C    1.316305   0.000000
     3  C    2.501700   1.500567   0.000000
     4  C    1.500570   2.501702   3.909958   0.000000
     5  H    1.078778   2.064358   2.713287   2.200221   0.000000
     6  H    2.064350   1.078775   2.200220   2.713277   3.019598
     7  H    2.657583   2.149830   1.083747   4.157834   2.415641
     8  H    3.213031   2.146277   1.086493   4.530738   3.472757
     9  H    3.210801   2.146288   1.086527   4.529062   3.469017
    10  H    2.146303   3.211644   4.529759   1.086518   2.563207
    11  H    2.146238   3.212166   4.530010   1.086502   2.562600
    12  H    2.149826   2.657571   4.157820   1.083747   3.088992
                    6          7          8          9         10
     6  H    0.000000
     7  H    3.088993   0.000000
     8  H    2.561748   1.755781   0.000000
     9  H    2.564098   1.755762   1.745244   0.000000
    10  H    3.470400   4.667574   5.007876   5.301358   0.000000
    11  H    3.471343   4.668792   5.302995   5.005552   1.745257
    12  H    2.415616   4.651483   4.668506   4.667866   1.755789
                   11         12
    11  H    0.000000
    12  H    1.755773   0.000000
 Stoichiometry    C4H8
 Framework group  C1[X(C4H8)]
 Deg. of freedom    30
 Full point group                 C1      NOp   1
 Largest Abelian subgroup         C1      NOp   1
 Largest concise Abelian subgroup C1      NOp   1
                         Standard orientation:                         
 ---------------------------------------------------------------------
 Center     Atomic      Atomic             Coordinates (Angstroms)
 Number     Number       Type             X           Y           Z
 ---------------------------------------------------------------------
      1          6           0       -0.528303   -0.392507   -0.000026
      2          6           0        0.528301    0.392506   -0.000126
      3          6           0        1.953451   -0.077227    0.000038
      4          6           0       -1.953455    0.077230    0.000049
      5          1           0       -0.380393   -1.461097   -0.000176
      6          1           0        0.380383    1.461092   -0.000079
      7          1           0        2.016299   -1.159145   -0.003559
      8          1           0        2.487596    0.293038   -0.870629
      9          1           0        2.485412    0.287046    0.874603
     10          1           0       -2.486313   -0.289242   -0.873037
     11          1           0       -2.486668   -0.290860    0.872219
     12          1           0       -2.016288    1.159154    0.001046
 ---------------------------------------------------------------------
 Rotational constants (GHZ):     35.4476665      3.7500541      3.5370038
 Standard basis: 6-31G(d) (6D, 7F)
 There are    76 symmetry adapted cartesian basis functions of A   symmetry.
 There are    76 symmetry adapted basis functions of A   symmetry.
    76 basis functions,   144 primitive gaussians,    76 cartesian basis functions
    16 alpha electrons       16 beta electrons
       nuclear repulsion energy       116.4307128316 Hartrees.
 NAtoms=   12 NActive=   12 NUniq=   12 SFac= 1.00D+00 NAtFMM=   60 NAOKFM=F Big=F
 Integral buffers will be    131072 words long.
 Raffenetti 1 integral format.
 Two-electron integral symmetry is turned on.
 One-electron integrals computed using PRISM.
 NBasis=    76 RedAO= T EigKep=  3.37D-03  NBF=    76
 NBsUse=    76 1.00D-06 EigRej= -1.00D+00 NBFU=    76
 Initial guess from the checkpoint file:  "2-butene-E-opt.chk"
 B after Tr=     0.000000   -0.000000    0.000000
         Rot=    1.000000    0.000175   -0.000011   -0.000894 Ang=   0.10 deg.
 ExpMin= 1.61D-01 ExpMax= 3.05D+03 ExpMxC= 4.57D+02 IAcc=1 IRadAn=         1 AccDes= 0.00D+00
 Harris functional with IExCor=  205 and IRadAn=       1 diagonalized for initial guess.
 HarFok:  IExCor=  205 AccDes= 0.00D+00 IRadAn=         1 IDoV= 1 UseB2=F ITyADJ=14
 ICtDFT=  3500011 ScaDFX=  1.000000  1.000000  1.000000  1.000000
 FoFCou: FMM=F IPFlag=           0 FMFlag=      100000 FMFlg1=           0
         NFxFlg=           0 DoJE=T BraDBF=F KetDBF=T FulRan=T
         wScrn=  0.000000 ICntrl=     500 IOpCl=  0 I1Cent=   200000004 NGrid=           0
         NMat0=    1 NMatS0=      1 NMatT0=    0 NMatD0=    1 NMtDS0=    0 NMtDT0=    0
 Petite list used in FoFCou.
 Keep R1 ints in memory in canonical form, NReq=5180962.
 Requested convergence on RMS density matrix=1.00D-08 within 128 cycles.
 Requested convergence on MAX density matrix=1.00D-06.
 Requested convergence on             energy=1.00D-06.
 No special actions if energy rises.
 SCF Done:  E(RHF) =  -156.110372099     A.U. after    9 cycles
            NFock=  9  Conv=0.58D-08     -V/T= 2.0004
 Calling FoFJK, ICntrl=      2127 FMM=F ISym2X=0 I1Cent= 0 IOpClX= 0 NMat=1 NMatS=1 NMatT=0.
 ***** Axes restored to original set *****
 -------------------------------------------------------------------
 Center     Atomic                   Forces (Hartrees/Bohr)
 Number     Number              X              Y              Z
 -------------------------------------------------------------------
      1        6          -0.001645540   -0.001873694   -0.001302335
      2        6           0.001645929    0.001881063    0.001287680
      3        6           0.001471067    0.000304429    0.000287265
      4        6          -0.001464455   -0.000310985   -0.000280610
      5        1          -0.000420947   -0.000935931   -0.000608205
      6        1           0.000420598    0.000930885    0.000620630
      7        1          -0.000122749   -0.000550749   -0.000344521
      8        1           0.000175081    0.000426362   -0.000310321
      9        1           0.000121044   -0.000081030    0.000525964
     10        1          -0.000120376    0.000087354   -0.000525217
     11        1          -0.000180454   -0.000426681    0.000303395
     12        1           0.000120801    0.000548978    0.000346276
 -------------------------------------------------------------------
 Cartesian Forces:  Max     0.001881063 RMS     0.000840229

 GradGradGradGradGradGradGradGradGradGradGradGradGradGradGradGradGradGrad
 Berny optimization.
 Using GEDIIS/GDIIS optimizer.
 FormGI is forming the generalized inverse of G from B-inverse, IUseBI=4.
 Internal  Forces:  Max     0.005147275 RMS     0.000917002
 Search for a local minimum.
 Step number   2 out of a maximum of   55
 All quantities printed in internal units (Hartrees-Bohrs-Radians)
 Mixed Optimization -- En-DIIS/RFO-DIIS
 Update second derivatives using D2CorX and points    1    2
 DE= -1.01D-03 DEPred=-1.16D-03 R= 8.71D-01
 TightC=F SS=  1.41D+00  RLast= 7.70D-02 DXNew= 5.0454D-01 2.3093D-01
 Trust test= 8.71D-01 RLast= 7.70D-02 DXMaxT set to 3.00D-01
 ITU=  1  0
 Use linear search instead of GDIIS.
     Eigenvalues ---    0.00736   0.00737   0.01644   0.01644   0.02942
     Eigenvalues ---    0.07107   0.07108   0.07223   0.07227   0.15824
     Eigenvalues ---    0.16000   0.16000   0.16000   0.16000   0.16000
     Eigenvalues ---    0.16000   0.16064   0.22000   0.22021   0.31417
     Eigenvalues ---    0.32145   0.33818   0.33821   0.33825   0.33956
     Eigenvalues ---    0.34188   0.34288   0.34569   0.35771   0.65956
 RFO step:  Lambda=-3.38250775D-05 EMin= 7.36101146D-03
 Quartic linear search produced a step of -0.11786.
 Iteration  1 RMS(Cart)=  0.00403963 RMS(Int)=  0.00000365
 Iteration  2 RMS(Cart)=  0.00000423 RMS(Int)=  0.00000034
 Iteration  3 RMS(Cart)=  0.00000000 RMS(Int)=  0.00000034
 Variable       Old X    -DE/DX   Delta X   Delta X   Delta X     New X
                                 (Linear)    (Quad)   (Total)
    R1        2.48746   0.00515   0.00428   0.00287   0.00715   2.49460
    R2        2.83567   0.00157   0.00038   0.00386   0.00424   2.83991
    R3        2.03859   0.00099   0.00297  -0.00096   0.00201   2.04060
    R4        2.83566   0.00157   0.00036   0.00388   0.00424   2.83990
    R5        2.03859   0.00099   0.00297  -0.00097   0.00201   2.04060
    R6        2.04799   0.00062   0.00261  -0.00146   0.00115   2.04914
    R7        2.05317   0.00054   0.00273  -0.00179   0.00094   2.05412
    R8        2.05324   0.00053   0.00273  -0.00181   0.00092   2.05416
    R9        2.05322   0.00053   0.00271  -0.00179   0.00092   2.05414
   R10        2.05319   0.00054   0.00273  -0.00179   0.00094   2.05413
   R11        2.04799   0.00062   0.00261  -0.00146   0.00115   2.04914
    A1        2.18422   0.00033   0.00027   0.00102   0.00129   2.18551
    A2        2.07223   0.00051  -0.00018   0.00330   0.00313   2.07536
    A3        2.02673  -0.00085  -0.00009  -0.00432  -0.00441   2.02232
    A4        2.18422   0.00033   0.00026   0.00102   0.00128   2.18551
    A5        2.07223   0.00052  -0.00018   0.00331   0.00313   2.07536
    A6        2.02674  -0.00085  -0.00009  -0.00433  -0.00442   2.02232
    A7        1.94721  -0.00029  -0.00008  -0.00176  -0.00184   1.94537
    A8        1.93922  -0.00005   0.00053  -0.00084  -0.00031   1.93891
    A9        1.93920  -0.00006   0.00051  -0.00083  -0.00032   1.93888
   A10        1.88498   0.00015  -0.00014   0.00076   0.00062   1.88560
   A11        1.88491   0.00015  -0.00014   0.00079   0.00064   1.88556
   A12        1.86510   0.00014  -0.00074   0.00212   0.00139   1.86649
   A13        1.93923  -0.00006   0.00051  -0.00084  -0.00033   1.93890
   A14        1.93915  -0.00005   0.00054  -0.00080  -0.00026   1.93889
   A15        1.94720  -0.00029  -0.00009  -0.00174  -0.00183   1.94537
   A16        1.86512   0.00014  -0.00074   0.00210   0.00137   1.86649
   A17        1.88497   0.00015  -0.00014   0.00075   0.00061   1.88558
   A18        1.88496   0.00014  -0.00014   0.00076   0.00062   1.88558
    D1        3.14140  -0.00000  -0.00003   0.00003   0.00001   3.14141
    D2        0.00008  -0.00000  -0.00006   0.00001  -0.00004   0.00004
    D3       -0.00039   0.00000   0.00003   0.00006   0.00009  -0.00030
    D4        3.14148   0.00000  -0.00000   0.00004   0.00004   3.14152
    D5        2.10354  -0.00005   0.00010  -0.00035  -0.00025   2.10329
    D6       -2.10553   0.00005  -0.00014   0.00123   0.00108  -2.10445
    D7       -0.00103   0.00001  -0.00001   0.00046   0.00044  -0.00058
    D8       -1.03786  -0.00005   0.00005  -0.00038  -0.00033  -1.03819
    D9        1.03625   0.00005  -0.00019   0.00119   0.00100   1.03725
   D10        3.14075   0.00000  -0.00006   0.00043   0.00036   3.14112
   D11        0.00378  -0.00001   0.00013  -0.00158  -0.00145   0.00233
   D12        2.10837  -0.00006   0.00025  -0.00238  -0.00213   2.10624
   D13       -2.10070   0.00004   0.00002  -0.00081  -0.00080  -2.10150
   D14       -3.13808  -0.00001   0.00016  -0.00155  -0.00140  -3.13948
   D15       -1.03349  -0.00006   0.00028  -0.00236  -0.00208  -1.03557
   D16        1.04062   0.00004   0.00004  -0.00079  -0.00075   1.03987
         Item               Value     Threshold  Converged?
 Maximum Force            0.005147     0.000450     NO 
 RMS     Force            0.000917     0.000300     NO 
 Maximum Displacement     0.010371     0.001800     NO 
 RMS     Displacement     0.004040     0.001200     NO 
 Predicted change in Energy=-3.612226D-05
 GradGradGradGradGradGradGradGradGradGradGradGradGradGradGradGradGradGrad

                          Input orientation:                          
 ---------------------------------------------------------------------
 Center     Atomic      Atomic             Coordinates (Angstroms)
 Number     Number       Type             X           Y           Z
 ---------------------------------------------------------------------
      1          6           0        1.974064    0.930627    0.882697
      2          6           0        2.951796    1.655023    1.394477
      3          6           0        4.416089    1.334949    1.285646
      4          6           0        0.509758    1.250580    0.991722
      5          1           0        2.220615    0.031680    0.337573
      6          1           0        2.705247    2.554003    1.939544
      7          1           0        4.582011    0.422085    0.724415
      8          1           0        4.956154    2.137605    0.790043
      9          1           0        4.863644    1.211749    2.268556
     10          1           0        0.061693    1.372112    0.008846
     11          1           0       -0.029891    0.448596    1.488882
     12          1           0        0.343921    2.164290    1.551599
 ---------------------------------------------------------------------
                    Distance matrix (angstroms):
                    1          2          3          4          5
     1  C    0.000000
     2  C    1.320087   0.000000
     3  C    2.507853   1.502812   0.000000
     4  C    1.502813   2.507855   3.918281   0.000000
     5  H    1.079839   2.070486   2.723501   2.200150   0.000000
     6  H    2.070484   1.079838   2.200149   2.723499   3.027093
     7  H    2.661777   2.150981   1.084357   4.164265   2.424511
     8  H    3.218422   2.148412   1.086991   4.538493   3.481784
     9  H    3.217034   2.148410   1.087013   4.537415   3.479492
    10  H    2.148415   3.217563   4.537880   1.087004   2.562374
    11  H    2.148406   3.217894   4.538024   1.087000   2.562052
    12  H    2.150981   2.661776   4.164263   1.084357   3.089314
                    6          7          8          9         10
     6  H    0.000000
     7  H    3.089314   0.000000
     8  H    2.561508   1.757071   0.000000
     9  H    2.562923   1.757060   1.746931   0.000000
    10  H    3.480350   4.674170   5.015176   5.309495   0.000000
    11  H    3.480922   4.674906   5.310534   5.013679   1.746934
    12  H    2.424507   4.656277   4.674759   4.674318   1.757068
                   11         12
    11  H    0.000000
    12  H    1.757065   0.000000
 Stoichiometry    C4H8
 Framework group  C1[X(C4H8)]
 Deg. of freedom    30
 Full point group                 C1      NOp   1
 Largest Abelian subgroup         C1      NOp   1
 Largest concise Abelian subgroup C1      NOp   1
                         Standard orientation:                         
 ---------------------------------------------------------------------
 Center     Atomic      Atomic             Coordinates (Angstroms)
 Number     Number       Type             X           Y           Z
 ---------------------------------------------------------------------
      1          6           0       -0.530401   -0.392851   -0.000036
      2          6           0        0.530402    0.392851   -0.000106
      3          6           0        1.957592   -0.077861    0.000040
      4          6           0       -1.957593    0.077862    0.000047
      5          1           0       -0.387274   -1.463163   -0.000141
      6          1           0        0.387272    1.463162   -0.000068
      7          1           0        2.018273   -1.160517   -0.002142
      8          1           0        2.491192    0.290900   -0.872220
      9          1           0        2.489794    0.287261    0.874707
     10          1           0       -2.490391   -0.288606   -0.873684
     11          1           0       -2.490593   -0.289559    0.873249
     12          1           0       -2.018272    1.160519    0.000631
 ---------------------------------------------------------------------
 Rotational constants (GHZ):     35.3703326      3.7346830      3.5228516
 Standard basis: 6-31G(d) (6D, 7F)
 There are    76 symmetry adapted cartesian basis functions of A   symmetry.
 There are    76 symmetry adapted basis functions of A   symmetry.
    76 basis functions,   144 primitive gaussians,    76 cartesian basis functions
    16 alpha electrons       16 beta electrons
       nuclear repulsion energy       116.2393435551 Hartrees.
 NAtoms=   12 NActive=   12 NUniq=   12 SFac= 1.00D+00 NAtFMM=   60 NAOKFM=F Big=F
 Integral buffers will be    131072 words long.
 Raffenetti 1 integral format.
 Two-electron integral symmetry is turned on.
 One-electron integrals computed using PRISM.
 NBasis=    76 RedAO= T EigKep=  3.42D-03  NBF=    76
 NBsUse=    76 1.00D-06 EigRej= -1.00D+00 NBFU=    76
 Initial guess from the checkpoint file:  "2-butene-E-opt.chk"
 B after Tr=     0.000000    0.000000   -0.000000
         Rot=    1.000000    0.000215   -0.000010    0.000286 Ang=   0.04 deg.
 Keep R1 ints in memory in canonical form, NReq=5180962.
 Requested convergence on RMS density matrix=1.00D-08 within 128 cycles.
 Requested convergence on MAX density matrix=1.00D-06.
 Requested convergence on             energy=1.00D-06.
 No special actions if energy rises.
 SCF Done:  E(RHF) =  -156.110406797     A.U. after    9 cycles
            NFock=  9  Conv=0.18D-08     -V/T= 2.0006
 Calling FoFJK, ICntrl=      2127 FMM=F ISym2X=0 I1Cent= 0 IOpClX= 0 NMat=1 NMatS=1 NMatT=0.
 ***** Axes restored to original set *****
 -------------------------------------------------------------------
 Center     Atomic                   Forces (Hartrees/Bohr)
 Number     Number              X              Y              Z
 -------------------------------------------------------------------
      1        6           0.000635415    0.000287964    0.000200438
      2        6          -0.000636276   -0.000286397   -0.000203497
      3        6           0.000176924   -0.000096743   -0.000048137
      4        6          -0.000175181    0.000096189    0.000048016
      5        1           0.000031806   -0.000127088   -0.000075807
      6        1          -0.000032147    0.000122941    0.000083457
      7        1           0.000013585   -0.000163462   -0.000096315
      8        1          -0.000030955    0.000137020   -0.000078986
      9        1          -0.000046364    0.000003882    0.000149654
     10        1           0.000045493    0.000000804   -0.000151278
     11        1           0.000031621   -0.000137250    0.000073759
     12        1          -0.000013921    0.000162140    0.000098698
 -------------------------------------------------------------------
 Cartesian Forces:  Max     0.000636276 RMS     0.000194333

 GradGradGradGradGradGradGradGradGradGradGradGradGradGradGradGradGradGrad
 Berny optimization.
 Using GEDIIS/GDIIS optimizer.
 FormGI is forming the generalized inverse of G from B-inverse, IUseBI=4.
 Internal  Forces:  Max     0.000641544 RMS     0.000129850
 Search for a local minimum.
 Step number   3 out of a maximum of   55
 All quantities printed in internal units (Hartrees-Bohrs-Radians)
 Mixed Optimization -- En-DIIS/RFO-DIIS
 Swapping is turned off.
 Update second derivatives using D2CorX and points    1    2    3
 DE= -3.47D-05 DEPred=-3.61D-05 R= 9.61D-01
 TightC=F SS=  1.41D+00  RLast= 1.39D-02 DXNew= 5.0454D-01 4.1608D-02
 Trust test= 9.61D-01 RLast= 1.39D-02 DXMaxT set to 3.00D-01
 ITU=  1  1  0
     Eigenvalues ---    0.00735   0.00736   0.01648   0.01648   0.02942
     Eigenvalues ---    0.07123   0.07124   0.07230   0.07243   0.14835
     Eigenvalues ---    0.16000   0.16000   0.16000   0.16000   0.16000
     Eigenvalues ---    0.16000   0.16479   0.22000   0.22245   0.30900
     Eigenvalues ---    0.32145   0.33785   0.33818   0.33821   0.33825
     Eigenvalues ---    0.34118   0.34188   0.34569   0.34673   0.74885
 En-DIIS/RFO-DIIS IScMMF=        0 using points:     3    2
 RFO step:  Lambda=-1.18458162D-06.
 DidBck=F Rises=F RFO-DIIS coefs:    0.97591    0.02409
 Iteration  1 RMS(Cart)=  0.00059470 RMS(Int)=  0.00000028
 Iteration  2 RMS(Cart)=  0.00000031 RMS(Int)=  0.00000012
 Variable       Old X    -DE/DX   Delta X   Delta X   Delta X     New X
                                 (Linear)    (Quad)   (Total)
    R1        2.49460  -0.00064  -0.00017  -0.00068  -0.00085   2.49375
    R2        2.83991   0.00014  -0.00010   0.00066   0.00056   2.84046
    R3        2.04060   0.00015  -0.00005   0.00053   0.00049   2.04109
    R4        2.83990   0.00014  -0.00010   0.00066   0.00056   2.84046
    R5        2.04060   0.00015  -0.00005   0.00054   0.00049   2.04109
    R6        2.04914   0.00019  -0.00003   0.00060   0.00057   2.04971
    R7        2.05412   0.00012  -0.00002   0.00040   0.00038   2.05449
    R8        2.05416   0.00012  -0.00002   0.00038   0.00036   2.05452
    R9        2.05414   0.00012  -0.00002   0.00039   0.00037   2.05451
   R10        2.05413   0.00012  -0.00002   0.00039   0.00037   2.05450
   R11        2.04914   0.00019  -0.00003   0.00060   0.00057   2.04971
    A1        2.18551  -0.00010  -0.00003  -0.00035  -0.00039   2.18512
    A2        2.07536   0.00005  -0.00008   0.00040   0.00033   2.07569
    A3        2.02232   0.00005   0.00011  -0.00005   0.00006   2.02237
    A4        2.18551  -0.00010  -0.00003  -0.00036  -0.00039   2.18512
    A5        2.07536   0.00005  -0.00008   0.00041   0.00033   2.07569
    A6        2.02232   0.00005   0.00011  -0.00005   0.00006   2.02237
    A7        1.94537   0.00003   0.00004   0.00015   0.00020   1.94557
    A8        1.93891  -0.00012   0.00001  -0.00081  -0.00080   1.93811
    A9        1.93888  -0.00013   0.00001  -0.00081  -0.00081   1.93808
   A10        1.88560   0.00006  -0.00001   0.00045   0.00043   1.88603
   A11        1.88556   0.00006  -0.00002   0.00046   0.00045   1.88601
   A12        1.86649   0.00011  -0.00003   0.00064   0.00060   1.86709
   A13        1.93890  -0.00013   0.00001  -0.00081  -0.00080   1.93810
   A14        1.93889  -0.00013   0.00001  -0.00080  -0.00080   1.93809
   A15        1.94537   0.00003   0.00004   0.00016   0.00020   1.94557
   A16        1.86649   0.00011  -0.00003   0.00063   0.00060   1.86709
   A17        1.88558   0.00006  -0.00001   0.00045   0.00044   1.88602
   A18        1.88558   0.00006  -0.00001   0.00045   0.00044   1.88602
    D1        3.14141   0.00000  -0.00000   0.00009   0.00009   3.14150
    D2        0.00004  -0.00000   0.00000  -0.00005  -0.00005  -0.00001
    D3       -0.00030   0.00000  -0.00000   0.00016   0.00016  -0.00013
    D4        3.14152   0.00000  -0.00000   0.00002   0.00002   3.14154
    D5        2.10329   0.00001   0.00001   0.00037   0.00037   2.10366
    D6       -2.10445  -0.00001  -0.00003   0.00011   0.00008  -2.10437
    D7       -0.00058   0.00000  -0.00001   0.00024   0.00023  -0.00036
    D8       -1.03819   0.00001   0.00001   0.00029   0.00030  -1.03789
    D9        1.03725  -0.00001  -0.00002   0.00003   0.00001   1.03726
   D10        3.14112   0.00000  -0.00001   0.00016   0.00015   3.14127
   D11        0.00233  -0.00001   0.00003  -0.00084  -0.00080   0.00153
   D12        2.10624   0.00001   0.00005  -0.00072  -0.00067   2.10558
   D13       -2.10150  -0.00002   0.00002  -0.00098  -0.00096  -2.10246
   D14       -3.13948  -0.00000   0.00003  -0.00070  -0.00067  -3.14015
   D15       -1.03557   0.00001   0.00005  -0.00058  -0.00053  -1.03610
   D16        1.03987  -0.00002   0.00002  -0.00084  -0.00082   1.03905
         Item               Value     Threshold  Converged?
 Maximum Force            0.000642     0.000450     NO 
 RMS     Force            0.000130     0.000300     YES
 Maximum Displacement     0.001440     0.001800     YES
 RMS     Displacement     0.000595     0.001200     YES
 Predicted change in Energy=-1.025618D-06
 GradGradGradGradGradGradGradGradGradGradGradGradGradGradGradGradGradGrad

                          Input orientation:                          
 ---------------------------------------------------------------------
 Center     Atomic      Atomic             Coordinates (Angstroms)
 Number     Number       Type             X           Y           Z
 ---------------------------------------------------------------------
      1          6           0        1.974340    0.930699    0.882648
      2          6           0        2.951515    1.654904    1.394600
      3          6           0        4.416055    1.334667    1.285496
      4          6           0        0.509794    1.250873    0.991854
      5          1           0        2.220865    0.031637    0.337192
      6          1           0        2.704992    2.553990    1.940018
      7          1           0        4.582055    0.421323    0.724483
      8          1           0        4.955397    2.137744    0.789349
      9          1           0        4.863205    1.212167    2.268888
     10          1           0        0.062309    1.372238    0.008479
     11          1           0       -0.029279    0.448261    1.489054
     12          1           0        0.343852    2.164797    1.551938
 ---------------------------------------------------------------------
                    Distance matrix (angstroms):
                    1          2          3          4          5
     1  C    0.000000
     2  C    1.319636   0.000000
     3  C    2.507479   1.503108   0.000000
     4  C    1.503108   2.507479   3.918179   0.000000
     5  H    1.080096   2.070497   2.723238   2.200655   0.000000
     6  H    2.070497   1.080096   2.200655   2.723238   3.027489
     7  H    2.661701   2.151613   1.084660   4.164487   2.424266
     8  H    3.217509   2.148257   1.087191   4.537724   3.481063
     9  H    3.216586   2.148244   1.087203   4.537015   3.479520
    10  H    2.148253   3.216947   4.537322   1.087198   2.562153
    11  H    2.148248   3.217149   4.537417   1.087195   2.561935
    12  H    2.151613   2.661701   4.164487   1.084660   3.090171
                    6          7          8          9         10
     6  H    0.000000
     7  H    3.090171   0.000000
     8  H    2.561566   1.757753   0.000000
     9  H    2.562523   1.757745   1.747635   0.000000
    10  H    3.480109   4.673864   5.013788   5.308830   0.000000
    11  H    3.480475   4.674366   5.309514   5.012793   1.747635
    12  H    2.424265   4.656903   4.674251   4.673978   1.757750
                   11         12
    11  H    0.000000
    12  H    1.757748   0.000000
 Stoichiometry    C4H8
 Framework group  C1[X(C4H8)]
 Deg. of freedom    30
 Full point group                 C1      NOp   1
 Largest Abelian subgroup         C1      NOp   1
 Largest concise Abelian subgroup C1      NOp   1
                         Standard orientation:                         
 ---------------------------------------------------------------------
 Center     Atomic      Atomic             Coordinates (Angstroms)
 Number     Number       Type             X           Y           Z
 ---------------------------------------------------------------------
      1          6           0       -0.530072   -0.392917   -0.000023
      2          6           0        0.530072    0.392917   -0.000052
      3          6           0        1.957540   -0.077901    0.000019
      4          6           0       -1.957540    0.077901    0.000026
      5          1           0       -0.386859   -1.463476   -0.000070
      6          1           0        0.386859    1.463476   -0.000050
      7          1           0        2.018443   -1.160850   -0.001446
      8          1           0        2.490316    0.290850   -0.872997
      9          1           0        2.489396    0.288409    0.874636
     10          1           0       -2.489791   -0.289329   -0.873960
     11          1           0       -2.489922   -0.289931    0.873675
     12          1           0       -2.018443    1.160850    0.000395
 ---------------------------------------------------------------------
 Rotational constants (GHZ):     35.3491469      3.7353149      3.5233250
 Standard basis: 6-31G(d) (6D, 7F)
 There are    76 symmetry adapted cartesian basis functions of A   symmetry.
 There are    76 symmetry adapted basis functions of A   symmetry.
    76 basis functions,   144 primitive gaussians,    76 cartesian basis functions
    16 alpha electrons       16 beta electrons
       nuclear repulsion energy       116.2362858715 Hartrees.
 NAtoms=   12 NActive=   12 NUniq=   12 SFac= 1.00D+00 NAtFMM=   60 NAOKFM=F Big=F
 Integral buffers will be    131072 words long.
 Raffenetti 1 integral format.
 Two-electron integral symmetry is turned on.
 One-electron integrals computed using PRISM.
 NBasis=    76 RedAO= T EigKep=  3.42D-03  NBF=    76
 NBsUse=    76 1.00D-06 EigRej= -1.00D+00 NBFU=    76
 Initial guess from the checkpoint file:  "2-butene-E-opt.chk"
 B after Tr=    -0.000000    0.000000    0.000000
         Rot=    1.000000    0.000110   -0.000006   -0.000042 Ang=   0.01 deg.
 Keep R1 ints in memory in canonical form, NReq=5180962.
 Requested convergence on RMS density matrix=1.00D-08 within 128 cycles.
 Requested convergence on MAX density matrix=1.00D-06.
 Requested convergence on             energy=1.00D-06.
 No special actions if energy rises.
 SCF Done:  E(RHF) =  -156.110407744     A.U. after    8 cycles
            NFock=  8  Conv=0.28D-08     -V/T= 2.0006
 Calling FoFJK, ICntrl=      2127 FMM=F ISym2X=0 I1Cent= 0 IOpClX= 0 NMat=1 NMatS=1 NMatT=0.
 ***** Axes restored to original set *****
 -------------------------------------------------------------------
 Center     Atomic                   Forces (Hartrees/Bohr)
 Number     Number              X              Y              Z
 -------------------------------------------------------------------
      1        6           0.000046591    0.000010174    0.000001865
      2        6          -0.000046610   -0.000007253   -0.000006405
      3        6           0.000062007   -0.000001182    0.000006238
      4        6          -0.000061875   -0.000000037   -0.000004238
      5        1          -0.000022542    0.000038478    0.000021839
      6        1           0.000022337   -0.000041605   -0.000016992
      7        1          -0.000019673    0.000040225    0.000027635
      8        1          -0.000011782   -0.000025065    0.000010100
      9        1          -0.000007410    0.000006768   -0.000030032
     10        1           0.000008360   -0.000003621    0.000029037
     11        1           0.000011053    0.000024495   -0.000013345
     12        1           0.000019543   -0.000041376   -0.000025701
 -------------------------------------------------------------------
 Cartesian Forces:  Max     0.000062007 RMS     0.000027122

 GradGradGradGradGradGradGradGradGradGradGradGradGradGradGradGradGradGrad
 Berny optimization.
 Using GEDIIS/GDIIS optimizer.
 FormGI is forming the generalized inverse of G from B-inverse, IUseBI=4.
 Internal  Forces:  Max     0.000051176 RMS     0.000020208
 Search for a local minimum.
 Step number   4 out of a maximum of   55
 All quantities printed in internal units (Hartrees-Bohrs-Radians)
 Mixed Optimization -- En-DIIS/RFO-DIIS
 Swapping is turned off.
 Update second derivatives using D2CorX and points    1    2    3    4
 DE= -9.47D-07 DEPred=-1.03D-06 R= 9.23D-01
 TightC=F SS=  1.41D+00  RLast= 3.38D-03 DXNew= 5.0454D-01 1.0152D-02
 Trust test= 9.23D-01 RLast= 3.38D-03 DXMaxT set to 3.00D-01
 ITU=  1  1  1  0
     Eigenvalues ---    0.00721   0.00736   0.01648   0.01648   0.02941
     Eigenvalues ---    0.07125   0.07126   0.07238   0.07274   0.13998
     Eigenvalues ---    0.15999   0.16000   0.16000   0.16000   0.16000
     Eigenvalues ---    0.16001   0.16873   0.22000   0.22787   0.30033
     Eigenvalues ---    0.32145   0.33818   0.33821   0.33824   0.33857
     Eigenvalues ---    0.34188   0.34433   0.34569   0.38861   0.73305
 En-DIIS/RFO-DIIS IScMMF=        0 using points:     4    3    2
 RFO step:  Lambda=-3.25677635D-08.
 DidBck=F Rises=F RFO-DIIS coefs:    0.92712    0.07086    0.00202
 Iteration  1 RMS(Cart)=  0.00020698 RMS(Int)=  0.00000003
 Iteration  2 RMS(Cart)=  0.00000003 RMS(Int)=  0.00000001
 Variable       Old X    -DE/DX   Delta X   Delta X   Delta X     New X
                                 (Linear)    (Quad)   (Total)
    R1        2.49375  -0.00002   0.00005  -0.00010  -0.00005   2.49370
    R2        2.84046   0.00002  -0.00005   0.00013   0.00008   2.84054
    R3        2.04109  -0.00005  -0.00004  -0.00008  -0.00012   2.04097
    R4        2.84046   0.00002  -0.00005   0.00013   0.00008   2.84054
    R5        2.04109  -0.00005  -0.00004  -0.00008  -0.00012   2.04097
    R6        2.04971  -0.00005  -0.00004  -0.00008  -0.00013   2.04959
    R7        2.05449  -0.00003  -0.00003  -0.00004  -0.00007   2.05442
    R8        2.05452  -0.00003  -0.00003  -0.00005  -0.00008   2.05444
    R9        2.05451  -0.00003  -0.00003  -0.00005  -0.00008   2.05443
   R10        2.05450  -0.00003  -0.00003  -0.00005  -0.00008   2.05443
   R11        2.04971  -0.00005  -0.00004  -0.00008  -0.00013   2.04959
    A1        2.18512   0.00003   0.00003   0.00007   0.00010   2.18522
    A2        2.07569  -0.00000  -0.00003   0.00007   0.00004   2.07573
    A3        2.02237  -0.00002   0.00000  -0.00014  -0.00013   2.02224
    A4        2.18512   0.00003   0.00003   0.00007   0.00010   2.18522
    A5        2.07569  -0.00000  -0.00003   0.00007   0.00004   2.07573
    A6        2.02237  -0.00002   0.00000  -0.00014  -0.00014   2.02224
    A7        1.94557  -0.00002  -0.00001  -0.00012  -0.00013   1.94544
    A8        1.93811   0.00001   0.00006  -0.00004   0.00002   1.93813
    A9        1.93808   0.00001   0.00006  -0.00002   0.00004   1.93812
   A10        1.88603   0.00000  -0.00003   0.00005   0.00002   1.88605
   A11        1.88601   0.00000  -0.00003   0.00006   0.00003   1.88604
   A12        1.86709  -0.00000  -0.00005   0.00007   0.00003   1.86712
   A13        1.93810   0.00001   0.00006  -0.00003   0.00003   1.93813
   A14        1.93809   0.00001   0.00006  -0.00003   0.00003   1.93812
   A15        1.94557  -0.00002  -0.00001  -0.00012  -0.00013   1.94544
   A16        1.86709  -0.00000  -0.00005   0.00007   0.00003   1.86712
   A17        1.88602   0.00000  -0.00003   0.00006   0.00002   1.88604
   A18        1.88602   0.00000  -0.00003   0.00006   0.00002   1.88604
    D1        3.14150   0.00000  -0.00001   0.00002   0.00002   3.14151
    D2       -0.00001   0.00000   0.00000   0.00001   0.00001  -0.00000
    D3       -0.00013   0.00000  -0.00001   0.00004   0.00003  -0.00011
    D4        3.14154   0.00000  -0.00000   0.00002   0.00002   3.14156
    D5        2.10366  -0.00000  -0.00003   0.00011   0.00009   2.10375
    D6       -2.10437   0.00000  -0.00001   0.00017   0.00016  -2.10421
    D7       -0.00036   0.00000  -0.00002   0.00014   0.00012  -0.00023
    D8       -1.03789  -0.00000  -0.00002   0.00010   0.00008  -1.03782
    D9        1.03726   0.00000  -0.00000   0.00015   0.00015   1.03741
   D10        3.14127   0.00000  -0.00001   0.00013   0.00011   3.14139
   D11        0.00153  -0.00000   0.00006  -0.00055  -0.00048   0.00104
   D12        2.10558  -0.00001   0.00005  -0.00059  -0.00053   2.10504
   D13       -2.10246  -0.00000   0.00007  -0.00053  -0.00046  -2.10292
   D14       -3.14015  -0.00000   0.00005  -0.00053  -0.00048  -3.14062
   D15       -1.03610  -0.00001   0.00004  -0.00057  -0.00052  -1.03663
   D16        1.03905  -0.00000   0.00006  -0.00051  -0.00045   1.03860
         Item               Value     Threshold  Converged?
 Maximum Force            0.000051     0.000450     YES
 RMS     Force            0.000020     0.000300     YES
 Maximum Displacement     0.000613     0.001800     YES
 RMS     Displacement     0.000207     0.001200     YES
 Predicted change in Energy=-3.368474D-08
 Optimization completed.
    -- Stationary point found.
                           ----------------------------
                           !   Optimized Parameters   !
                           ! (Angstroms and Degrees)  !
 --------------------------                            --------------------------
 ! Name  Definition              Value          Derivative Info.                !
 --------------------------------------------------------------------------------
 ! R1    R(1,2)                  1.3196         -DE/DX =    0.0                 !
 ! R2    R(1,4)                  1.5031         -DE/DX =    0.0                 !
 ! R3    R(1,5)                  1.0801         -DE/DX =    0.0                 !
 ! R4    R(2,3)                  1.5031         -DE/DX =    0.0                 !
 ! R5    R(2,6)                  1.0801         -DE/DX =    0.0                 !
 ! R6    R(3,7)                  1.0847         -DE/DX =   -0.0001              !
 ! R7    R(3,8)                  1.0872         -DE/DX =    0.0                 !
 ! R8    R(3,9)                  1.0872         -DE/DX =    0.0                 !
 ! R9    R(4,10)                 1.0872         -DE/DX =    0.0                 !
 ! R10   R(4,11)                 1.0872         -DE/DX =    0.0                 !
 ! R11   R(4,12)                 1.0847         -DE/DX =   -0.0001              !
 ! A1    A(2,1,4)              125.1983         -DE/DX =    0.0                 !
 ! A2    A(2,1,5)              118.9283         -DE/DX =    0.0                 !
 ! A3    A(4,1,5)              115.8734         -DE/DX =    0.0                 !
 ! A4    A(1,2,3)              125.1983         -DE/DX =    0.0                 !
 ! A5    A(1,2,6)              118.9283         -DE/DX =    0.0                 !
 ! A6    A(3,2,6)              115.8734         -DE/DX =    0.0                 !
 ! A7    A(2,3,7)              111.4728         -DE/DX =    0.0                 !
 ! A8    A(2,3,8)              111.0455         -DE/DX =    0.0                 !
 ! A9    A(2,3,9)              111.0438         -DE/DX =    0.0                 !
 ! A10   A(7,3,8)              108.0618         -DE/DX =    0.0                 !
 ! A11   A(7,3,9)              108.0602         -DE/DX =    0.0                 !
 ! A12   A(8,3,9)              106.9764         -DE/DX =    0.0                 !
 ! A13   A(1,4,10)             111.0448         -DE/DX =    0.0                 !
 ! A14   A(1,4,11)             111.0445         -DE/DX =    0.0                 !
 ! A15   A(1,4,12)             111.4728         -DE/DX =    0.0                 !
 ! A16   A(10,4,11)            106.9764         -DE/DX =    0.0                 !
 ! A17   A(10,4,12)            108.061          -DE/DX =    0.0                 !
 ! A18   A(11,4,12)            108.061          -DE/DX =    0.0                 !
 ! D1    D(4,1,2,3)            179.9944         -DE/DX =    0.0                 !
 ! D2    D(4,1,2,6)             -0.0006         -DE/DX =    0.0                 !
 ! D3    D(5,1,2,3)             -0.0077         -DE/DX =    0.0                 !
 ! D4    D(5,1,2,6)            179.9973         -DE/DX =    0.0                 !
 ! D5    D(2,1,4,10)           120.531          -DE/DX =    0.0                 !
 ! D6    D(2,1,4,11)          -120.5717         -DE/DX =    0.0                 !
 ! D7    D(2,1,4,12)            -0.0204         -DE/DX =    0.0                 !
 ! D8    D(5,1,4,10)           -59.4669         -DE/DX =    0.0                 !
 ! D9    D(5,1,4,11)            59.4304         -DE/DX =    0.0                 !
 ! D10   D(5,1,4,12)           179.9816         -DE/DX =    0.0                 !
 ! D11   D(1,2,3,7)              0.0876         -DE/DX =    0.0                 !
 ! D12   D(1,2,3,8)            120.6406         -DE/DX =    0.0                 !
 ! D13   D(1,2,3,9)           -120.4621         -DE/DX =    0.0                 !
 ! D14   D(6,2,3,7)           -179.9172         -DE/DX =    0.0                 !
 ! D15   D(6,2,3,8)            -59.3642         -DE/DX =    0.0                 !
 ! D16   D(6,2,3,9)             59.5331         -DE/DX =    0.0                 !
 --------------------------------------------------------------------------------
 GradGradGradGradGradGradGradGradGradGradGradGradGradGradGradGradGradGrad

                          Input orientation:                          
 ---------------------------------------------------------------------
 Center     Atomic      Atomic             Coordinates (Angstroms)
 Number     Number       Type             X           Y           Z
 ---------------------------------------------------------------------
      1          6           0        1.974340    0.930699    0.882648
      2          6           0        2.951515    1.654904    1.394600
      3          6           0        4.416055    1.334667    1.285496
      4          6           0        0.509794    1.250873    0.991854
      5          1           0        2.220865    0.031637    0.337192
      6          1           0        2.704992    2.553990    1.940018
      7          1           0        4.582055    0.421323    0.724483
      8          1           0        4.955397    2.137744    0.789349
      9          1           0        4.863205    1.212167    2.268888
     10          1           0        0.062309    1.372238    0.008479
     11          1           0       -0.029279    0.448261    1.489054
     12          1           0        0.343852    2.164797    1.551938
 ---------------------------------------------------------------------
                    Distance matrix (angstroms):
                    1          2          3          4          5
     1  C    0.000000
     2  C    1.319636   0.000000
     3  C    2.507479   1.503108   0.000000
     4  C    1.503108   2.507479   3.918179   0.000000
     5  H    1.080096   2.070497   2.723238   2.200655   0.000000
     6  H    2.070497   1.080096   2.200655   2.723238   3.027489
     7  H    2.661701   2.151613   1.084660   4.164487   2.424266
     8  H    3.217509   2.148257   1.087191   4.537724   3.481063
     9  H    3.216586   2.148244   1.087203   4.537015   3.479520
    10  H    2.148253   3.216947   4.537322   1.087198   2.562153
    11  H    2.148248   3.217149   4.537417   1.087195   2.561935
    12  H    2.151613   2.661701   4.164487   1.084660   3.090171
                    6          7          8          9         10
     6  H    0.000000
     7  H    3.090171   0.000000
     8  H    2.561566   1.757753   0.000000
     9  H    2.562523   1.757745   1.747635   0.000000
    10  H    3.480109   4.673864   5.013788   5.308830   0.000000
    11  H    3.480475   4.674366   5.309514   5.012793   1.747635
    12  H    2.424265   4.656903   4.674251   4.673978   1.757750
                   11         12
    11  H    0.000000
    12  H    1.757748   0.000000
 Stoichiometry    C4H8
 Framework group  C1[X(C4H8)]
 Deg. of freedom    30
 Full point group                 C1      NOp   1
 Largest Abelian subgroup         C1      NOp   1
 Largest concise Abelian subgroup C1      NOp   1
                         Standard orientation:                         
 ---------------------------------------------------------------------
 Center     Atomic      Atomic             Coordinates (Angstroms)
 Number     Number       Type             X           Y           Z
 ---------------------------------------------------------------------
      1          6           0       -0.530072   -0.392917   -0.000023
      2          6           0        0.530072    0.392917   -0.000052
      3          6           0        1.957540   -0.077901    0.000019
      4          6           0       -1.957540    0.077901    0.000026
      5          1           0       -0.386859   -1.463476   -0.000070
      6          1           0        0.386859    1.463476   -0.000050
      7          1           0        2.018443   -1.160850   -0.001446
      8          1           0        2.490316    0.290850   -0.872997
      9          1           0        2.489396    0.288409    0.874636
     10          1           0       -2.489791   -0.289329   -0.873960
     11          1           0       -2.489922   -0.289931    0.873675
     12          1           0       -2.018443    1.160850    0.000395
 ---------------------------------------------------------------------
 Rotational constants (GHZ):     35.3491469      3.7353149      3.5233250

 **********************************************************************

            Population analysis using the SCF density.

 **********************************************************************

 Orbital symmetries:
       Occupied  (A) (A) (A) (A) (A) (A) (A) (A) (A) (A) (A) (A)
                 (A) (A) (A) (A)
       Virtual   (A) (A) (A) (A) (A) (A) (A) (A) (A) (A) (A) (A)
                 (A) (A) (A) (A) (A) (A) (A) (A) (A) (A) (A) (A)
                 (A) (A) (A) (A) (A) (A) (A) (A) (A) (A) (A) (A)
                 (A) (A) (A) (A) (A) (A) (A) (A) (A) (A) (A) (A)
                 (A) (A) (A) (A) (A) (A) (A) (A) (A) (A) (A) (A)
 The electronic state is 1-A.
 Alpha  occ. eigenvalues --  -11.21961 -11.21784 -11.21441 -11.21440  -1.07604
 Alpha  occ. eigenvalues --   -0.98188  -0.87962  -0.74362  -0.60525  -0.60358
 Alpha  occ. eigenvalues --   -0.57049  -0.55387  -0.52227  -0.50867  -0.47639
 Alpha  occ. eigenvalues --   -0.34126
 Alpha virt. eigenvalues --    0.20052   0.26374   0.26411   0.27504   0.32315
 Alpha virt. eigenvalues --    0.32538   0.33966   0.34184   0.34526   0.42601
 Alpha virt. eigenvalues --    0.47012   0.61578   0.69183   0.72327   0.75356
 Alpha virt. eigenvalues --    0.76354   0.81957   0.85310   0.92023   0.93517
 Alpha virt. eigenvalues --    0.93918   0.97437   1.03097   1.05782   1.15007
 Alpha virt. eigenvalues --    1.15012   1.16591   1.17652   1.19307   1.22320
 Alpha virt. eigenvalues --    1.24075   1.25290   1.41168   1.45604   1.54333
 Alpha virt. eigenvalues --    1.65168   1.65874   1.74067   1.95292   2.06357
 Alpha virt. eigenvalues --    2.10928   2.19092   2.22541   2.25839   2.38628
 Alpha virt. eigenvalues --    2.42448   2.57208   2.63131   2.63311   2.64604
 Alpha virt. eigenvalues --    2.71814   2.77011   2.82338   3.00531   3.22498
 Alpha virt. eigenvalues --    3.32263   4.55220   4.62239   4.75407   4.87565
          Condensed to atoms (all electrons):
               1          2          3          4          5          6
     1  C    4.938329   0.701141  -0.045856   0.343287   0.392617  -0.041593
     2  C    0.701141   4.938329   0.343287  -0.045856  -0.041593   0.392617
     3  C   -0.045856   0.343287   5.074880   0.003365  -0.004600  -0.040409
     4  C    0.343287  -0.045856   0.003365   5.074880  -0.040409  -0.004600
     5  H    0.392617  -0.041593  -0.004600  -0.040409   0.516384   0.004033
     6  H   -0.041593   0.392617  -0.040409  -0.004600   0.004033   0.516384
     7  H    0.000863  -0.044669   0.396482   0.000117   0.003389   0.003083
     8  H   -0.000802  -0.039770   0.390626  -0.000095   0.000107  -0.000603
     9  H   -0.000829  -0.039774   0.390615  -0.000095   0.000108  -0.000588
    10  H   -0.039773  -0.000820  -0.000095   0.390621  -0.000593   0.000108
    11  H   -0.039771  -0.000811  -0.000095   0.390620  -0.000598   0.000108
    12  H   -0.044669   0.000863   0.000117   0.396482   0.003083   0.003389
               7          8          9         10         11         12
     1  C    0.000863  -0.000802  -0.000829  -0.039773  -0.039771  -0.044669
     2  C   -0.044669  -0.039770  -0.039774  -0.000820  -0.000811   0.000863
     3  C    0.396482   0.390626   0.390615  -0.000095  -0.000095   0.000117
     4  C    0.000117  -0.000095  -0.000095   0.390621   0.390620   0.396482
     5  H    0.003389   0.000107   0.000108  -0.000593  -0.000598   0.003083
     6  H    0.003083  -0.000603  -0.000588   0.000108   0.000108   0.003389
     7  H    0.523497  -0.025730  -0.025729  -0.000002  -0.000002   0.000009
     8  H   -0.025730   0.543733  -0.034712   0.000015  -0.000004  -0.000002
     9  H   -0.025729  -0.034712   0.543732  -0.000004   0.000015  -0.000002
    10  H   -0.000002   0.000015  -0.000004   0.543731  -0.034712  -0.025729
    11  H   -0.000002  -0.000004   0.000015  -0.034712   0.543734  -0.025730
    12  H    0.000009  -0.000002  -0.000002  -0.025729  -0.025730   0.523497
 Mulliken charges:
               1
     1  C   -0.162944
     2  C   -0.162944
     3  C   -0.508318
     4  C   -0.508318
     5  H    0.168072
     6  H    0.168072
     7  H    0.168691
     8  H    0.167236
     9  H    0.167262
    10  H    0.167252
    11  H    0.167246
    12  H    0.168691
 Sum of Mulliken charges =  -0.00000
 Mulliken charges with hydrogens summed into heavy atoms:
               1
     1  C    0.005128
     2  C    0.005128
     3  C   -0.005128
     4  C   -0.005128
 Electronic spatial extent (au):  <R**2>=            397.9079
 Charge=             -0.0000 electrons
 Dipole moment (field-independent basis, Debye):
    X=              0.0000    Y=             -0.0000    Z=              0.0001  Tot=              0.0001
 Quadrupole moment (field-independent basis, Debye-Ang):
   XX=            -25.8035   YY=            -25.4869   ZZ=            -28.1128
   XY=              0.3691   XZ=              0.0001   YZ=              0.0001
 Traceless Quadrupole moment (field-independent basis, Debye-Ang):
   XX=              0.6642   YY=              0.9808   ZZ=             -1.6451
   XY=              0.3691   XZ=              0.0001   YZ=              0.0001
 Octapole moment (field-independent basis, Debye-Ang**2):
  XXX=             -0.0000  YYY=              0.0000  ZZZ=              0.0021  XYY=              0.0000
  XXY=             -0.0000  XXZ=             -0.0002  XZZ=             -0.0000  YZZ=             -0.0000
  YYZ=             -0.0017  XYZ=             -0.0004
 Hexadecapole moment (field-independent basis, Debye-Ang**3):
 XXXX=           -443.0411 YYYY=            -64.3060 ZZZZ=            -42.6188 XXXY=              2.6894
 XXXZ=             -0.0020 YYYX=             -1.7327 YYYZ=              0.0020 ZZZX=              0.0070
 ZZZY=             -0.0005 XXYY=            -84.2229 XXZZ=            -76.4551 YYZZ=            -19.4966
 XXYZ=             -0.0035 YYXZ=             -0.0060 ZZXY=              1.9263
 N-N= 1.162362858715D+02 E-N=-5.952563584209D+02  KE= 1.560213684188D+02
 1\1\GINC-GTX1080DELTA\FOpt\RHF\6-31G(d)\C4H8\MVEROT\16-Apr-2022\0\\# h
 f/6-31G* opt freq\\Optimisation de geometrie\\0,1\C,1.9743403919,0.930
 6988363,0.8826478831\C,2.9515151895,1.6549044216,1.3946003803\C,4.4160
 554388,1.3346670268,1.2854955182\C,0.5097935318,1.2508727711,0.9918541
 56\H,2.2208649337,0.0316374395,0.3371918813\H,2.7049923823,2.553989660
 2,1.9400181422\H,4.5820545062,0.421322805,0.724483022\H,4.9553971323,2
 .1377442724,0.7893492614\H,4.8632046818,1.2121673312,2.2688882754\H,0.
 062309058,1.3722379405,0.0084786688\H,-0.0292792914,0.4482606177,1.489
 0543934\H,0.343852045,2.1647968777,1.5519384178\\Version=AM64L-G09RevD
 .01\State=1-A\HF=-156.1104077\RMSD=2.783e-09\RMSF=2.712e-05\Dipole=-0.
 0000021,-0.0000217,0.0000345\Quadrupole=0.4382788,0.2089734,-0.6472522
 ,0.1626284,0.2041358,0.9031005\PG=C01 [X(C4H8)]\\@


 SACRED COWS MAKE GREAT HAMBURGERS -- ROBERT REISNER
 Job cpu time:       0 days  0 hours  0 minutes  6.5 seconds.
 File lengths (MBytes):  RWF=    132 Int=      0 D2E=      0 Chk=      3 Scr=      2
[...]
 Vib (V=0)       0.514081D+01          0.711032          1.637211
 Vib (V=0)    1  0.169649D+01          0.229553          0.528564
 Vib (V=0)    2  0.146790D+01          0.166695          0.383829
 Vib (V=0)    3  0.138761D+01          0.142268          0.327585
 Vib (V=0)    4  0.130010D+01          0.113977          0.262442
 Vib (V=0)    5  0.108185D+01          0.034165          0.078669
 Electronic      0.100000D+01          0.000000          0.000000
 Translational   0.164993D+08          7.217465         16.618827
 Rotational      0.402383D+05          4.604639         10.602574
 ***** Axes restored to original set *****
 -------------------------------------------------------------------
 Center     Atomic                   Forces (Hartrees/Bohr)
 Number     Number              X              Y              Z
 -------------------------------------------------------------------
      1        6           0.000046595    0.000010176    0.000001866
      2        6          -0.000046611   -0.000007254   -0.000006405
      3        6           0.000062008   -0.000001183    0.000006239
      4        6          -0.000061879   -0.000000035   -0.000004238
      5        1          -0.000022542    0.000038476    0.000021838
      6        1           0.000022337   -0.000041605   -0.000016992
      7        1          -0.000019673    0.000040226    0.000027635
      8        1          -0.000011783   -0.000025065    0.000010100
      9        1          -0.000007410    0.000006768   -0.000030033
     10        1           0.000008360   -0.000003621    0.000029037
     11        1           0.000011054    0.000024495   -0.000013345
     12        1           0.000019544   -0.000041377   -0.000025701
 -------------------------------------------------------------------
 Cartesian Forces:  Max     0.000062008 RMS     0.000027122
 FormGI is forming the generalized inverse of G from B-inverse, IUseBI=4.

 GradGradGradGradGradGradGradGradGradGradGradGradGradGradGradGradGradGrad
 Berny optimization.
 Internal  Forces:  Max     0.000051176 RMS     0.000020208
 Search for a local minimum.
 Step number   1 out of a maximum of    2
 All quantities printed in internal units (Hartrees-Bohrs-Radians)
 Second derivative matrix not updated -- analytic derivatives used.
 ITU=  0
     Eigenvalues ---    0.00238   0.00245   0.02044   0.02580   0.03627
     Eigenvalues ---    0.06753   0.06937   0.06950   0.06998   0.12638
     Eigenvalues ---    0.13829   0.14650   0.14764   0.15753   0.16425
     Eigenvalues ---    0.17025   0.17478   0.20500   0.21516   0.35144
     Eigenvalues ---    0.35644   0.36427   0.36473   0.37132   0.37350
     Eigenvalues ---    0.38166   0.38274   0.38823   0.39167   0.73929
 Angle between quadratic step and forces=  79.93 degrees.
 Linear search not attempted -- first point.
 Iteration  1 RMS(Cart)=  0.00059720 RMS(Int)=  0.00000025
 Iteration  2 RMS(Cart)=  0.00000027 RMS(Int)=  0.00000000
 Variable       Old X    -DE/DX   Delta X   Delta X   Delta X     New X
                                 (Linear)    (Quad)   (Total)
    R1        2.49375  -0.00002   0.00000  -0.00004  -0.00004   2.49371
    R2        2.84046   0.00002   0.00000   0.00006   0.00006   2.84053
    R3        2.04109  -0.00005   0.00000  -0.00012  -0.00012   2.04097
    R4        2.84046   0.00002   0.00000   0.00006   0.00006   2.84053
    R5        2.04109  -0.00005   0.00000  -0.00012  -0.00012   2.04097
    R6        2.04971  -0.00005   0.00000  -0.00013  -0.00013   2.04958
    R7        2.05449  -0.00003   0.00000  -0.00007  -0.00007   2.05442
    R8        2.05452  -0.00003   0.00000  -0.00010  -0.00010   2.05442
    R9        2.05451  -0.00003   0.00000  -0.00009  -0.00009   2.05442
   R10        2.05450  -0.00003   0.00000  -0.00008  -0.00008   2.05442
   R11        2.04971  -0.00005   0.00000  -0.00013  -0.00013   2.04958
    A1        2.18512   0.00003   0.00000   0.00010   0.00010   2.18522
    A2        2.07569  -0.00000   0.00000   0.00003   0.00003   2.07572
    A3        2.02237  -0.00002   0.00000  -0.00013  -0.00013   2.02224
    A4        2.18512   0.00003   0.00000   0.00010   0.00010   2.18522
    A5        2.07569  -0.00000   0.00000   0.00003   0.00003   2.07572
    A6        2.02237  -0.00002   0.00000  -0.00013  -0.00013   2.02224
    A7        1.94557  -0.00002   0.00000  -0.00011  -0.00011   1.94545
    A8        1.93811   0.00001   0.00000   0.00001   0.00001   1.93812
    A9        1.93808   0.00001   0.00000   0.00004   0.00004   1.93812
   A10        1.88603   0.00000   0.00000   0.00001   0.00001   1.88604
   A11        1.88601   0.00000   0.00000   0.00004   0.00004   1.88604
   A12        1.86709  -0.00000   0.00000   0.00002   0.00002   1.86711
   A13        1.93810   0.00001   0.00000   0.00002   0.00002   1.93812
   A14        1.93809   0.00001   0.00000   0.00003   0.00003   1.93812
   A15        1.94557  -0.00002   0.00000  -0.00011  -0.00011   1.94545
   A16        1.86709  -0.00000   0.00000   0.00002   0.00002   1.86711
   A17        1.88602   0.00000   0.00000   0.00002   0.00002   1.88604
   A18        1.88602   0.00000   0.00000   0.00002   0.00002   1.88604
    D1        3.14150   0.00000   0.00000   0.00010   0.00010  -3.14159
    D2       -0.00001   0.00000   0.00000   0.00001   0.00001   0.00000
    D3       -0.00013   0.00000   0.00000   0.00013   0.00013   0.00000
    D4        3.14154   0.00000   0.00000   0.00005   0.00005  -3.14159
    D5        2.10366  -0.00000   0.00000   0.00033   0.00033   2.10399
    D6       -2.10437   0.00000   0.00000   0.00038   0.00038  -2.10399
    D7       -0.00036   0.00000   0.00000   0.00036   0.00036  -0.00000
    D8       -1.03789  -0.00000   0.00000   0.00029   0.00029  -1.03760
    D9        1.03726   0.00000   0.00000   0.00035   0.00035   1.03760
   D10        3.14127   0.00000   0.00000   0.00032   0.00032   3.14159
   D11        0.00153  -0.00000   0.00000  -0.00153  -0.00153  -0.00000
   D12        2.10558  -0.00001   0.00000  -0.00159  -0.00159   2.10399
   D13       -2.10246  -0.00000   0.00000  -0.00153  -0.00153  -2.10399
   D14       -3.14015  -0.00000   0.00000  -0.00145  -0.00145   3.14159
   D15       -1.03610  -0.00001   0.00000  -0.00150  -0.00150  -1.03760
   D16        1.03905  -0.00000   0.00000  -0.00144  -0.00144   1.03760
         Item               Value     Threshold  Converged?
 Maximum Force            0.000051     0.000450     YES
 RMS     Force            0.000020     0.000300     YES
 Maximum Displacement     0.001859     0.001800     NO 
 RMS     Displacement     0.000597     0.001200     YES
 Predicted change in Energy=-4.517322D-08
 GradGradGradGradGradGradGradGradGradGradGradGradGradGradGradGradGradGrad

 1\1\GINC-GTX1080DELTA\Freq\RHF\6-31G(d)\C4H8\MVEROT\16-Apr-2022\0\\#N 
 Geom=AllCheck Guess=TCheck SCRF=Check GenChk RHF/6-31G(d) Freq\\Optimi
 sation de geometrie\\0,1\C,1.9743403919,0.9306988363,0.8826478831\C,2.
 9515151895,1.6549044216,1.3946003803\C,4.4160554388,1.3346670268,1.285
 4955182\C,0.5097935318,1.2508727711,0.991854156\H,2.2208649337,0.03163
 74395,0.3371918813\H,2.7049923823,2.5539896602,1.9400181422\H,4.582054
 5062,0.421322805,0.724483022\H,4.9553971323,2.1377442724,0.7893492614\
 H,4.8632046818,1.2121673312,2.2688882754\H,0.062309058,1.3722379405,0.
 0084786688\H,-0.0292792914,0.4482606177,1.4890543934\H,0.343852045,2.1
 647968777,1.5519384178\\Version=AM64L-G09RevD.01\State=1-A\HF=-156.110
 4077\RMSD=2.718e-10\RMSF=2.712e-05\ZeroPoint=0.1156865\Thermal=0.12095
 83\Dipole=-0.0000021,-0.0000217,0.0000345\DipoleDeriv=0.1063714,-0.010
 7906,0.0143416,-0.0621863,0.0259278,0.1589811,-0.0176156,0.1621881,-0.
 1351128,0.1063577,-0.0108284,0.0143901,-0.0622912,0.0258983,0.1589085,
 -0.017443,0.1622807,-0.1350697,0.099684,0.0384546,0.0148585,-0.0175552
 ,0.1495395,-0.0623272,-0.0205774,-0.0590831,0.2096536,0.0996677,0.0384
 504,0.01485,-0.0177206,0.1494792,-0.062383,-0.0203129,-0.0589786,0.209
 7297,-0.0276811,0.0670985,0.0324226,0.0464448,-0.0714309,-0.1197725,0.
 0195514,-0.1185037,0.0525236,-0.0276794,0.0670957,0.0324261,0.0464636,
 -0.0714399,-0.1197692,0.0195205,-0.1184971,0.0525311,0.0001596,-0.0078
 594,-0.0084044,0.072243,-0.0998344,-0.0932405,0.0417147,-0.0981481,-0.
 0024289,-0.0985728,-0.0807993,0.0253499,-0.0836588,-0.0725418,0.091948
 2,0.0827229,0.0856599,0.0175114,-0.0799494,-0.0060734,-0.0786062,0.044
 8048,0.0683707,0.0244697,-0.1059468,0.0278052,-0.1421894,-0.0799284,-0
 .0061151,-0.0786336,0.0446939,0.0684179,0.0242373,-0.1060475,0.0275715
 ,-0.1421991,-0.0985929,-0.080756,0.0253999,-0.0835198,-0.0723694,0.092
 0803,0.0828026,0.0857803,0.0173009,0.0001636,-0.007877,-0.0083945,0.07
 22816,-0.100017,-0.0931329,0.0416312,-0.0980752,-0.0022503\Polar=55.04
 54413,5.9561304,37.8049534,5.3510687,6.1192785,32.7289822\PolarDeriv=-
 11.0694091,-5.2409863,-2.8811887,-3.5950187,-1.9406774,-1.2015243,-6.3
 888854,-5.9034485,-0.5429906,-0.3457896,2.186897,1.9682265,-3.9413919,
 -0.1143619,4.003527,-6.1588629,-0.743114,-4.0932881,11.0694486,5.24039
 64,2.8813564,3.5959981,1.9406463,1.2015456,6.3903948,5.9039587,0.54491
 34,0.345452,-2.186939,-1.9695112,3.9391177,0.1144199,-4.003699,6.15833
 69,0.7418129,4.0922994,-4.1020267,-3.0067018,-1.6118634,-1.5474412,1.0
 022415,-2.532483,-2.292926,-4.0849055,0.576126,1.3900965,3.7790797,1.1
 290771,-0.9151182,1.3623217,4.1329316,-5.3444877,0.7816939,-4.102028,4
 .102354,3.0076155,1.6100568,1.5457575,-1.0019864,2.5342074,2.2940975,4
 .0828944,-0.586942,-1.3884436,-3.7808422,-1.1168495,0.9126231,-1.36325
 48,-4.1347321,5.3463552,-0.7697473,4.1022125,-0.3575729,-1.5176556,0.9
 061091,-1.0381415,0.5380732,0.3043372,-0.8501519,0.9352676,-5.7694107,
 -0.1582812,-2.7531682,-1.5746499,-0.6923343,-0.1479745,-2.233576,0.999
 3374,-2.3685521,-2.132716,0.3575623,1.51761,-0.906371,1.0381397,-0.537
 96,-0.3040871,0.8501296,-0.9354337,5.7693569,0.1580542,2.7530844,1.574
 581,0.6923968,0.1483593,2.2336967,-0.9991638,2.3686741,2.1327654,0.882
 8363,-1.7962419,0.6559172,-1.1787052,0.1191704,0.4634451,-1.2801684,2.
 1821333,-4.8156603,0.4453401,-2.0695916,-0.8128978,-0.9104504,0.493785
 5,-1.354619,1.5952534,-2.1262163,-1.9314716,5.815268,3.5739883,1.31470
 53,-1.5690632,-0.6521636,0.7573972,3.3552008,3.5079079,4.8179324,-0.82
 08807,-2.157043,0.5813185,-1.4925555,-1.1991122,-1.5746357,2.8094989,1
 .9901803,-1.6654087,4.8335584,0.0344205,0.341038,3.7993412,-0.2778126,
 1.7624042,0.1627794,1.9924019,-0.4565332,-0.6236407,1.5135141,-0.54604
 14,3.3731851,-0.3245976,-0.1800598,4.1864044,-0.5266017,7.4156738,-4.8
 343176,-0.0381015,-0.3405179,-3.7997252,0.2764515,-1.7636327,-0.166846
 5,-1.9917144,0.4537906,0.620999,-1.5125719,0.540971,-3.3725878,0.32263
 89,0.1807512,-4.1871493,0.5202353,-7.4148954,-5.8151874,-3.5719756,-1.
 3128089,1.5726178,0.6527308,-0.7587601,-3.3538611,-3.5057763,-4.812761
 4,0.8217808,2.1600766,-0.5845407,1.4970559,1.2006014,1.5762791,-2.8117
 311,-1.9929816,1.6709366,-0.8825139,1.7976319,-0.656433,1.1762408,-0.1
 187137,-0.4628496,1.2802373,-2.1832855,4.8221788,-0.4446869,2.0675039,
 0.8103165,0.9100595,-0.4928258,1.354136,-1.5937913,2.1246166,1.9259203
 \HyperPolar=0.0013478,0.0056995,0.0127605,0.0558088,-0.0064432,-0.0022
 589,0.0103019,-0.0144085,-0.0643067,0.0006147\PG=C01 [X(C4H8)]\NImag=0
 \\0.81677818,0.12500795,0.65504465,0.11734711,0.30459556,0.37619029,-0
 .41791115,-0.21050496,-0.15299608,0.81677608,-0.21050209,-0.27887013,-
 0.14570704,0.12499508,0.65505667,-0.15300077,-0.14570821,-0.16638624,0
 .11736865,0.30458853,0.37618052,-0.02758311,0.00446853,0.00069069,-0.2
 5084055,0.03378387,0.01090674,0.56952300,-0.02111003,0.01102873,0.0016
 9184,0.03909180,-0.11148042,-0.01311949,0.01094590,0.64283748,-0.01525
 098,0.00327877,0.00732034,0.01423176,-0.01346638,-0.09406759,0.0043122
 6,0.02157956,0.62307183,-0.25084078,0.03377710,0.01091671,-0.02758328,
 0.00446569,0.00069534,0.00149364,-0.00065304,-0.00136530,0.56951844,0.
 03909144,-0.11147984,-0.01312729,-0.02110932,0.01102777,0.00169449,-0.
 00065219,0.00176305,-0.00957725,0.01092587,0.64284729,0.01423292,-0.01
 345956,-0.09406755,-0.01525244,0.00327693,0.00732150,-0.00136690,-0.00
 957982,0.01098692,0.00434548,0.02157356,0.62306672,-0.08595553,0.05917
 540,0.03469009,0.00987987,-0.02343302,-0.01451561,0.00145026,-0.001661
 69,-0.00038737,-0.00342186,0.02960563,0.01800756,0.08688704,0.05467561
 ,-0.26579974,-0.13113881,0.00737076,-0.01436354,-0.01367803,0.00135778
 ,-0.00190557,0.00455780,-0.00042995,-0.00234231,-0.00397348,-0.0611495
 8,0.27893151,0.03188095,-0.13086289,-0.12974450,0.00470072,-0.01557937
 ,-0.00112538,0.00149396,0.00437823,-0.00626172,-0.00072407,-0.00211835
 ,0.00262162,-0.03469019,0.15078708,0.12297991,0.00988012,-0.02343295,-
 0.01451573,-0.08595496,0.05917752,0.03468507,-0.00342247,0.02960141,0.
 01801383,0.00145009,-0.00166213,-0.00038632,-0.00349079,-0.00287520,-0
 .00283526,0.08688690,0.00737325,-0.01436393,-0.01367755,0.05467889,-0.
 26581320,-0.13113446,-0.00043220,-0.00234400,-0.00397506,0.00135669,-0
 .00190419,0.00455929,-0.00287536,0.00237496,-0.00704349,-0.06115018,0.
 27894378,0.00469667,-0.01557936,-0.00112528,0.03187456,-0.13085304,-0.
 12973135,-0.00072046,-0.00211549,0.00262394,0.00149564,0.00437529,-0.0
 0626294,-0.00283516,-0.00704495,0.00881858,-0.03468795,0.15078071,0.12
 296757,0.00248491,0.00085672,0.00070553,-0.00333822,0.03452389,0.02142
 244,-0.06542528,0.03190190,0.01958631,-0.00010218,-0.00013997,-0.00008
 399,-0.00039090,-0.00105540,-0.00070054,-0.00726452,0.00103713,0.00008
 976,0.06869722,-0.00154219,0.00054807,0.00045926,0.00041424,-0.0064515
 4,-0.00356833,0.03546602,-0.26334142,-0.12543371,0.00006710,0.00044460
 ,0.00040763,0.00030821,0.00093421,0.00039761,0.00136951,0.00122480,-0.
 00026100,-0.03828251,0.28261362,-0.00078657,0.00060532,-0.00000643,0.0
 0008249,-0.00144322,-0.00158910,0.02181763,-0.12566004,-0.13654533,0.0
 0004767,0.00039376,0.00005178,0.00014966,0.00031783,0.00052666,0.00029
 086,-0.00027667,0.00161691,-0.02305295,0.14041692,0.14074001,-0.003266
 01,0.00335220,0.00222155,-0.02002521,-0.03157029,0.01490052,-0.1228543
 2,-0.10096925,0.06480531,-0.00022715,0.00088282,-0.00344897,-0.0000162
 0,-0.00083448,0.00117799,0.00110968,0.00113041,-0.00036340,0.00300029,
 0.00410552,-0.00407427,0.13427305,0.00074745,0.00017166,0.00022291,0.0
 0398624,0.01041038,-0.00639552,-0.09967989,-0.21466661,0.09427571,0.00
 001060,-0.00005824,0.00069499,0.00004495,0.00011040,0.00041981,-0.0011
 2583,0.00030950,0.00021129,-0.01463935,-0.02203711,0.01542380,0.111410
 46,0.22865196,-0.00041123,-0.00063947,-0.00011491,-0.00059566,0.000105
 91,0.00093360,0.06405185,0.09470238,-0.11676934,-0.00003168,0.00042904
 ,-0.00008604,-0.00004236,-0.00006877,0.00041601,0.00029133,-0.00017042
 ,-0.00000910,-0.01140879,-0.01482983,0.01130743,-0.06952912,-0.1068263
 5,0.12064354,-0.00327619,0.00358111,0.00167978,-0.01694532,0.00076982,
 -0.03707022,-0.10142464,0.01480404,-0.10273179,-0.00058732,-0.00269607
 ,0.00232224,0.00012895,0.00069086,-0.00127654,0.00108415,0.00008106,0.
 00124823,0.00219617,-0.00190353,0.00551582,0.00888715,-0.00086481,0.01
 752121,0.11078033,0.00016196,-0.00042297,-0.00054188,0.00170893,0.0001
 8394,0.00718413,0.01465572,-0.06279143,0.02756463,0.00000952,0.0005124
 9,0.00009361,0.00002401,0.00045460,-0.00018687,-0.00027960,0.00007370,
 -0.00014651,-0.01390141,0.00612199,-0.02974003,0.01230098,-0.00281496,
 0.02737966,-0.01490690,0.05888987,0.00055361,0.00069132,0.00051194,0.0
 0123139,-0.00157970,0.00807680,-0.10124490,0.02705568,-0.29002645,0.00
 004181,0.00024530,-0.00029689,0.00007988,0.00028996,-0.00007815,-0.001
 04227,0.00040053,0.00023647,-0.00638085,0.00243011,-0.01605157,-0.0060
 4414,0.00208046,-0.01621884,0.11285214,-0.03159100,0.31385676,-0.01695
 060,0.00072945,-0.03706854,-0.00328344,0.00358287,0.00167969,-0.000587
 39,-0.00269611,0.00231901,-0.10150086,0.01469746,-0.10281219,0.0010869
 6,0.00008120,0.00124765,0.00012916,0.00069076,-0.00127526,-0.00002952,
 0.00016175,0.00001711,-0.00112430,0.00020091,0.00001398,0.00031092,0.0
 0008195,-0.00009117,0.11086200,0.00171134,0.00018826,0.00718910,0.0001
 6433,-0.00042287,-0.00054273,0.00000934,0.00051316,0.00009440,0.014548
 47,-0.06272957,0.02729492,-0.00028058,0.00007457,-0.00014494,0.0000242
 8,0.00045550,-0.00018677,-0.00001772,-0.00005638,0.00000550,0.00016243
 ,-0.00005183,-0.00001645,0.00008200,-0.00009911,-0.00000535,-0.0147893
 4,0.05881893,0.00124179,-0.00157376,0.00807925,0.00055423,0.00069123,0
 .00051031,0.00004253,0.00024574,-0.00029713,-0.10133423,0.02679064,-0.
 29003161,-0.00104215,0.00040070,0.00023877,0.00008009,0.00028954,-0.00
 007740,-0.00002962,0.00000867,0.00001314,0.00007394,-0.00002600,-0.000
 01039,-0.00009131,-0.00000527,-0.00001284,0.11294284,-0.03129297,0.313
 86270,-0.02002312,-0.03155444,0.01493732,-0.00325864,0.00335120,0.0022
 2056,-0.00022686,0.00088577,-0.00345038,-0.12277859,-0.10085664,0.0649
 0320,0.00110689,0.00113093,-0.00036396,-0.00001655,-0.00083558,0.00117
 873,-0.00003746,0.00008932,0.00013707,0.00028079,-0.00006074,0.0001436
 6,-0.00112503,0.00016225,0.00007393,0.00888935,0.01230492,-0.00606624,
 0.13419237,0.00397577,0.01040297,-0.00640310,0.00074562,0.00017346,0.0
 0022206,0.00001005,-0.00005880,0.00069445,-0.09955853,-0.21447732,0.09
 441844,-0.00112558,0.00030676,0.00021207,0.00004461,0.00010983,0.00042
 004,-0.00002971,0.00000251,-0.00003211,-0.00006062,-0.00002755,-0.0000
 4915,0.00020087,-0.00005167,-0.00002592,-0.00084328,-0.00278128,0.0020
 6526,0.11128396,0.22844070,-0.00059330,0.00010359,0.00093746,-0.000412
 41,-0.00063947,-0.00011530,-0.00003123,0.00042836,-0.00008614,0.064146
 66,0.09484919,-0.11701523,0.00029200,-0.00017109,-0.00000953,-0.000042
 47,-0.00006909,0.00041507,-0.00000297,-0.00001643,-0.00003678,0.000143
 57,-0.00004908,-0.00005526,0.00001378,-0.00001620,-0.00001041,0.017510
 11,0.02736337,-0.01625473,-0.06963649,-0.10698647,0.12091916,-0.003336
 73,0.03454389,0.02139157,0.00248483,0.00085547,0.00070759,-0.00010227,
 -0.00014071,-0.00008266,-0.06542015,0.03191311,0.01953941,-0.00726468,
 0.00103748,0.00008931,-0.00039081,-0.00105487,-0.00070134,0.00020950,-
 0.00025344,-0.00014454,-0.00003778,-0.00002999,-0.00000320,-0.00002917
 ,-0.00001743,-0.00002945,0.00219772,-0.01391947,-0.00637186,0.00299685
 ,-0.01464316,-0.01138726,0.06869268,0.00040953,-0.00644774,-0.00356300
 ,-0.00154162,0.00054949,0.00045755,0.00006708,0.00044581,0.00040708,0.
 03548048,-0.26360372,-0.12530649,0.00136761,0.00122414,-0.00025889,0.0
 0030857,0.00093324,0.00039979,-0.00025357,-0.00000335,-0.00001107,0.00
 008983,0.00000241,-0.00001654,0.00016155,-0.00005644,0.00000861,-0.001
 89764,0.00609062,0.00240624,0.00409904,-0.02203962,-0.01479668,-0.0382
 9087,0.28290517,0.00008982,-0.00145132,-0.00159438,-0.00078721,0.00060
 561,-0.00000777,0.00004782,0.00039307,0.00005066,0.02176596,-0.1255283
 7,-0.13628829,0.00029366,-0.00027822,0.00161774,0.00014882,0.00031667,
 0.00052754,-0.00014432,-0.00001091,-0.00002673,0.00013701,-0.00003201,
 -0.00003669,0.00001666,0.00000574,0.00001317,0.00551678,-0.02975808,-0
 .01602007,-0.00407741,0.01546443,0.01131170,-0.02300759,0.14027340,0.1
 4045312\\-0.00004660,-0.00001018,-0.00000187,0.00004661,0.00000725,0.0
 0000640,-0.00006201,0.00000118,-0.00000624,0.00006188,0.00000004,0.000
 00424,0.00002254,-0.00003848,-0.00002184,-0.00002234,0.00004160,0.0000
 1699,0.00001967,-0.00004023,-0.00002763,0.00001178,0.00002507,-0.00001
 010,0.00000741,-0.00000677,0.00003003,-0.00000836,0.00000362,-0.000029
 04,-0.00001105,-0.00002449,0.00001334,-0.00001954,0.00004138,0.0000257
 0\\\@


 ABOVE ALL I AM AN OPTIMIST FOR NUMBER THEORY,
 AND I HOLD THE HOPE THAT WE MAY NOT BE FAR FROM
 A TIME WHEN IRREFUTABLE ARITHMETIC WILL CELEBRATE
 ITS TRIUMPHS IN PHYSICS AND CHEMISTRY.
   -- HERMANN MINKOWSKI, 1905
 Job cpu time:       0 days  0 hours  0 minutes  6.6 seconds.
 File lengths (MBytes):  RWF=    132 Int=      0 D2E=      0 Chk=      3 Scr=      2
 Normal termination of Gaussian 09 at Sat Apr 16 11:53:39 2022.
