 Entering Gaussian System, Link 0=g09
 Input=/scratch/mverot/cyclobutane-ion/cyclobutane-ion.com
 Output=/scratch/mverot/cyclobutane-ion/cyclobutane-ion.log
 Initial command:
 /opt/g09/l1.exe "/scratch/mverot/cyclobutane-ion/Gau-836875.inp" -scrdir="/scratch/mverot/cyclobutane-ion/"
 Entering Link 1 = /opt/g09/l1.exe PID=    836877.
  
 Copyright (c) 1988,1990,1992,1993,1995,1998,2003,2009,2013,
            Gaussian, Inc.  All Rights Reserved.
  
 This is part of the Gaussian(R) 09 program.  It is based on
 the Gaussian(R) 03 system (copyright 2003, Gaussian, Inc.),
 the Gaussian(R) 98 system (copyright 1998, Gaussian, Inc.),
 the Gaussian(R) 94 system (copyright 1995, Gaussian, Inc.),
 the Gaussian 92(TM) system (copyright 1992, Gaussian, Inc.),
 the Gaussian 90(TM) system (copyright 1990, Gaussian, Inc.),
 the Gaussian 88(TM) system (copyright 1988, Gaussian, Inc.),
 the Gaussian 86(TM) system (copyright 1986, Carnegie Mellon
 University), and the Gaussian 82(TM) system (copyright 1983,
 Carnegie Mellon University). Gaussian is a federally registered
 trademark of Gaussian, Inc.
  
 This software contains proprietary and confidential information,
 including trade secrets, belonging to Gaussian, Inc.
  
 This software is provided under written license and may be
 used, copied, transmitted, or stored only in accord with that
 written license.
  
 The following legend is applicable only to US Government
 contracts under FAR:
  
                    RESTRICTED RIGHTS LEGEND
  
 Use, reproduction and disclosure by the US Government is
 subject to restrictions as set forth in subparagraphs (a)
 and (c) of the Commercial Computer Software - Restricted
 Rights clause in FAR 52.227-19.
  
 Gaussian, Inc.
 340 Quinnipiac St., Bldg. 40, Wallingford CT 06492
  
  
 ---------------------------------------------------------------
 Warning -- This program may not be used in any manner that
 competes with the business of Gaussian, Inc. or will provide
 assistance to any competitor of Gaussian, Inc.  The licensee
 of this program is prohibited from giving any competitor of
 Gaussian, Inc. access to this program.  By using this program,
 the user acknowledges that Gaussian, Inc. is engaged in the
 business of creating and licensing software in the field of
 computational chemistry and represents and warrants to the
 licensee that it is not a competitor of Gaussian, Inc. and that
 it will not use this program in any manner prohibited above.
 ---------------------------------------------------------------
  

 Cite this work as:
 Gaussian 09, Revision D.01,
 M. J. Frisch, G. W. Trucks, H. B. Schlegel, G. E. Scuseria, 
 M. A. Robb, J. R. Cheeseman, G. Scalmani, V. Barone, B. Mennucci, 
 G. A. Petersson, H. Nakatsuji, M. Caricato, X. Li, H. P. Hratchian, 
 A. F. Izmaylov, J. Bloino, G. Zheng, J. L. Sonnenberg, M. Hada, 
 M. Ehara, K. Toyota, R. Fukuda, J. Hasegawa, M. Ishida, T. Nakajima, 
 Y. Honda, O. Kitao, H. Nakai, T. Vreven, J. A. Montgomery, Jr., 
 J. E. Peralta, F. Ogliaro, M. Bearpark, J. J. Heyd, E. Brothers, 
 K. N. Kudin, V. N. Staroverov, T. Keith, R. Kobayashi, J. Normand, 
 K. Raghavachari, A. Rendell, J. C. Burant, S. S. Iyengar, J. Tomasi, 
 M. Cossi, N. Rega, J. M. Millam, M. Klene, J. E. Knox, J. B. Cross, 
 V. Bakken, C. Adamo, J. Jaramillo, R. Gomperts, R. E. Stratmann, 
 O. Yazyev, A. J. Austin, R. Cammi, C. Pomelli, J. W. Ochterski, 
 R. L. Martin, K. Morokuma, V. G. Zakrzewski, G. A. Voth, 
 P. Salvador, J. J. Dannenberg, S. Dapprich, A. D. Daniels, 
 O. Farkas, J. B. Foresman, J. V. Ortiz, J. Cioslowski, 
 and D. J. Fox, Gaussian, Inc., Wallingford CT, 2013.
 
 ******************************************
 Gaussian 09:  AM64L-G09RevD.01 24-Apr-2013
                16-Apr-2022 
 ******************************************
 %chk=cyclobutane-ion
 -----------
 #n AM1 freq
 -----------
 1/10=4,30=1,38=1/1,3;
 2/12=2,17=6,18=5,40=1/2;
 3/5=2,16=1,25=1,41=700000,71=2,140=1/1,2,3;
 4/35=1/1;
 5/5=2,35=1,38=5,98=1/2;
 8/6=4,10=90,11=11/1;
 11/6=1,8=1,9=11,15=111,16=1/1,2,10;
 10/6=1/2;
 6/7=2,8=2,9=2,10=2,18=1,28=1/1;
 7/8=1,10=1,25=1/1,2,3,16;
 1/10=4,30=1/3;
 99//99;
 -------------------------
 Optimisation de geometrie
 -------------------------
 Symbolic Z-matrix:
 Charge =  1 Multiplicity = 2
 C                     1.82185   2.83972   0.93042 
 C                     0.68259   1.80007   0.98014 
 C                     1.72192   0.65979   0.95159 
 C                     2.86119   1.69944   0.90202 
 H                     1.884     3.48671   1.83014 
 H                     1.81837   3.47231   0.01833 
 H                     0.01046   1.8223    0.09712 
 H                     0.07591   1.8369    1.90894 
 H                     1.65976   0.01262   0.05192 
 H                     1.72541   0.0274    1.86375 
 H                     3.46766   1.66262  -0.02684 
 H                     3.53349   1.6772    1.78497 
 

 GradGradGradGradGradGradGradGradGradGradGradGradGradGradGradGradGradGrad
 Berny optimization.
 Initialization pass.
 Trust Radius=3.00D-01 FncErr=1.00D-07 GrdErr=1.00D-07
 Number of steps in this run=      2 maximum allowed number of steps=      2.
 GradGradGradGradGradGradGradGradGradGradGradGradGradGradGradGradGradGrad

                          Input orientation:                          
 ---------------------------------------------------------------------
 Center     Atomic      Atomic             Coordinates (Angstroms)
 Number     Number       Type             X           Y           Z
 ---------------------------------------------------------------------
      1          6           0        1.821849    2.839723    0.930420
      2          6           0        0.682587    1.800073    0.980135
      3          6           0        1.721916    0.659792    0.951594
      4          6           0        2.861186    1.699444    0.902016
      5          1           0        1.884002    3.486706    1.830145
      6          1           0        1.818366    3.472313    0.018325
      7          1           0        0.010463    1.822304    0.097123
      8          1           0        0.075907    1.836903    1.908943
      9          1           0        1.659763    0.012623    0.051924
     10          1           0        1.725414    0.027400    1.863745
     11          1           0        3.467661    1.662618   -0.026844
     12          1           0        3.533487    1.677202    1.784974
 ---------------------------------------------------------------------
                    Distance matrix (angstroms):
                    1          2          3          4          5
     1  C    0.000000
     2  C    1.543134   0.000000
     3  C    2.182323   1.543133   0.000000
     4  C    1.543135   2.182321   1.543137   0.000000
     5  H    1.109935   2.238447   2.964721   2.238442   0.000000
     6  H    1.110000   2.238629   2.964890   2.238627   1.813065
     7  H    2.238447   1.109935   2.238443   2.964722   3.046925
     8  H    2.238631   1.110000   2.238627   2.964891   2.448932
     9  H    2.964881   2.238621   1.109999   2.238624   3.909170
    10  H    2.964718   2.238442   1.109933   2.238444   3.463103
    11  H    2.238443   2.964716   2.238444   1.109932   3.046914
    12  H    2.238620   2.964877   2.238623   1.109999   2.448907
                    6          7          8          9         10
     6  H    0.000000
     7  H    2.448929   0.000000
     8  H    3.047157   1.813061   0.000000
     9  H    3.463486   2.448914   3.047149   0.000000
    10  H    3.909174   3.046915   2.448921   1.813071   0.000000
    11  H    2.448920   3.463104   3.909174   2.448915   3.046915
    12  H    3.047148   3.909168   3.463485   3.047151   2.448914
                   11         12
    11  H    0.000000
    12  H    1.813072   0.000000
 This structure is nearly, but not quite of a higher symmetry.
 Consider Symm=Loose if the higher symmetry is desired.
 Stoichiometry    C4H8(1+,2)
 Framework group  C1[X(C4H8)]
 Deg. of freedom    30
 Full point group                 C1      NOp   1
 Largest Abelian subgroup         C1      NOp   1
 Largest concise Abelian subgroup C1      NOp   1
                         Standard orientation:                         
 ---------------------------------------------------------------------
 Center     Atomic      Atomic             Coordinates (Angstroms)
 Number     Number       Type             X           Y           Z
 ---------------------------------------------------------------------
      1          6           0        0.850200    0.683872    0.010552
      2          6           0       -0.683172    0.849931   -0.039024
      3          6           0       -0.850199   -0.683874   -0.010621
      4          6           0        0.683171   -0.849931    0.039093
      5          1           0        1.321988    1.105003    0.922704
      6          1           0        1.376515    1.065574   -0.889112
      7          1           0       -1.056934    1.328969   -0.967884
      8          1           0       -1.111434    1.368677    0.843922
      9          1           0       -1.322129   -1.105124   -0.922722
     10          1           0       -1.376359   -1.065453    0.889104
     11          1           0        1.111304   -1.368524   -0.843921
     12          1           0        1.057045   -1.329111    0.967911
 ---------------------------------------------------------------------
 Rotational constants (GHZ):     10.6869751     10.6869450      6.2141689
 Standard basis: VSTO-6G (5D, 7F)
 There are    24 symmetry adapted cartesian basis functions of A   symmetry.
 There are    24 symmetry adapted basis functions of A   symmetry.
    24 basis functions,   144 primitive gaussians,    24 cartesian basis functions
    12 alpha electrons       11 beta electrons
       nuclear repulsion energy        83.4221104205 Hartrees.
 Integral buffers will be    131072 words long.
 Regular integral format.
 Two-electron integral symmetry is turned off.
 Do NDO integrals.
 One-electron integrals computed using PRISM.
 NBasis=    24 RedAO= F EigKep=  0.00D+00  NBF=    24
 NBsUse=    24 1.00D-04 EigRej=  0.00D+00 NBFU=    24
 Simple Huckel Guess.
 Initial guess <Sx>= 0.0000 <Sy>= 0.0000 <Sz>= 0.5000 <S**2>= 0.7500 S= 0.5000
 Overlap will be assumed to be unity.
 Keep J ints in memory in canonical form, NReq=889405.
 Requested convergence on RMS density matrix=1.00D-08 within 128 cycles.
 Requested convergence on MAX density matrix=1.00D-06.
 Requested convergence on             energy=1.00D-06.
 No special actions if energy rises.
 SCF Done:  E(UAM1) =  0.399272671417     A.U. after   37 cycles
            NFock= 36  Conv=0.93D-08     -V/T= 1.0277
 <Sx>= 0.0000 <Sy>= 0.0000 <Sz>= 0.5000 <S**2>= 0.7532 S= 0.5016
 <L.S>=  0.00000000000    
 Annihilation of the first spin contaminant:
 S**2 before annihilation     0.7532,   after     0.7500
 Range of M.O.s used for correlation:     1    24
 NBasis=    24 NAE=    12 NBE=    11 NFC=     0 NFV=     0
 NROrb=     24 NOA=    12 NOB=    11 NVA=    12 NVB=    13
 Symmetrizing basis deriv contribution to polar:
 IMax=3 JMax=2 DiffMx= 0.00D+00
 G2DrvN: will do    13 centers at a time, making    1 passes.
 Calling FoFCou, ICntrl=  3107 FMM=F I1Cent=   0 AccDes= 0.00D+00.
 End of G2Drv F.D. properties file   721 does not exist.
 End of G2Drv F.D. properties file   722 does not exist.
 End of G2Drv F.D. properties file   788 does not exist.
          IDoAtm=111111111111
          Differentiating once with respect to electric field.
                with respect to dipole field.
          Differentiating once with respect to nuclear coordinates.
          Electric field/nuclear overlap derivatives assumed to be zero.
 Keep J ints in memory in canonical form, NReq=873669.
          There are    39 degrees of freedom in the 1st order CPHF.  IDoFFX=5 NUNeed=    39.
 LinEq1:  Iter=  0 NonCon=    39 RMS=3.08D-01 Max=2.69D+00 NDo=    39
 AX will form    39 AO Fock derivatives at one time.
 LinEq1:  Iter=  1 NonCon=    39 RMS=4.94D-02 Max=4.67D-01 NDo=    39
 LinEq1:  Iter=  2 NonCon=    39 RMS=1.17D-02 Max=1.11D-01 NDo=    39
 LinEq1:  Iter=  3 NonCon=    39 RMS=1.91D-03 Max=1.42D-02 NDo=    39
 LinEq1:  Iter=  4 NonCon=    39 RMS=3.23D-04 Max=2.50D-03 NDo=    39
 LinEq1:  Iter=  5 NonCon=    39 RMS=5.73D-05 Max=3.95D-04 NDo=    39
 LinEq1:  Iter=  6 NonCon=    39 RMS=4.44D-06 Max=1.89D-05 NDo=    39
 LinEq1:  Iter=  7 NonCon=    39 RMS=8.51D-07 Max=7.47D-06 NDo=    39
 LinEq1:  Iter=  8 NonCon=    39 RMS=2.50D-07 Max=3.12D-06 NDo=    39
 LinEq1:  Iter=  9 NonCon=     7 RMS=6.02D-08 Max=3.96D-07 NDo=    39
 LinEq1:  Iter= 10 NonCon=     0 RMS=9.31D-09 Max=8.82D-08 NDo=    39
 Linear equations converged to 1.000D-08 1.000D-07 after    10 iterations.
 Isotropic polarizability for W=    0.000000       40.16 Bohr**3.
 End of Minotr F.D. properties file   721 does not exist.
 End of Minotr F.D. properties file   722 does not exist.
 End of Minotr F.D. properties file   788 does not exist.

 **********************************************************************

            Population analysis using the SCF density.

 **********************************************************************

 Orbital symmetries:
 Alpha Orbitals:
       Occupied  (A) (A) (A) (A) (A) (A) (A) (A) (A) (A) (A) (A)
       Virtual   (A) (A) (A) (A) (A) (A) (A) (A) (A) (A) (A) (A)
 Beta  Orbitals:
       Occupied  (A) (A) (A) (A) (A) (A) (A) (A) (A) (A) (A)
       Virtual   (A) (A) (A) (A) (A) (A) (A) (A) (A) (A) (A) (A)
                 (A)
 The electronic state is 2-A.
 Alpha  occ. eigenvalues --   -1.66825  -1.22218  -1.21155  -0.95473  -0.84755
 Alpha  occ. eigenvalues --   -0.82318  -0.73507  -0.71595  -0.70445  -0.67066
 Alpha  occ. eigenvalues --   -0.65940  -0.62989
 Alpha virt. eigenvalues --   -0.12479  -0.11922  -0.09254  -0.08613  -0.07977
 Alpha virt. eigenvalues --   -0.06207  -0.05011  -0.04959  -0.04910  -0.03409
 Alpha virt. eigenvalues --   -0.03405  -0.02835
  Beta  occ. eigenvalues --   -1.64588  -1.19988  -1.19190  -0.93054  -0.84205
  Beta  occ. eigenvalues --   -0.79170  -0.70949  -0.70758  -0.70261  -0.65656
  Beta  occ. eigenvalues --   -0.62545
  Beta virt. eigenvalues --   -0.38562  -0.11861  -0.10186  -0.08090  -0.07996
  Beta virt. eigenvalues --   -0.06997  -0.05318  -0.04815  -0.04523  -0.04425
  Beta virt. eigenvalues --   -0.03022  -0.02965  -0.02584
          Condensed to atoms (all electrons):
               1          2          3          4          5          6
     1  C    4.136033   0.000000   0.000000   0.000000   0.000000   0.000000
     2  C    0.000000   4.102254   0.000000   0.000000   0.000000   0.000000
     3  C    0.000000   0.000000   4.136031   0.000000   0.000000   0.000000
     4  C    0.000000   0.000000   0.000000   4.102251   0.000000   0.000000
     5  H    0.000000   0.000000   0.000000   0.000000   0.836793   0.000000
     6  H    0.000000   0.000000   0.000000   0.000000   0.000000   0.836748
     7  H    0.000000   0.000000   0.000000   0.000000   0.000000   0.000000
     8  H    0.000000   0.000000   0.000000   0.000000   0.000000   0.000000
     9  H    0.000000   0.000000   0.000000   0.000000   0.000000   0.000000
    10  H    0.000000   0.000000   0.000000   0.000000   0.000000   0.000000
    11  H    0.000000   0.000000   0.000000   0.000000   0.000000   0.000000
    12  H    0.000000   0.000000   0.000000   0.000000   0.000000   0.000000
               7          8          9         10         11         12
     1  C    0.000000   0.000000   0.000000   0.000000   0.000000   0.000000
     2  C    0.000000   0.000000   0.000000   0.000000   0.000000   0.000000
     3  C    0.000000   0.000000   0.000000   0.000000   0.000000   0.000000
     4  C    0.000000   0.000000   0.000000   0.000000   0.000000   0.000000
     5  H    0.000000   0.000000   0.000000   0.000000   0.000000   0.000000
     6  H    0.000000   0.000000   0.000000   0.000000   0.000000   0.000000
     7  H    0.794100   0.000000   0.000000   0.000000   0.000000   0.000000
     8  H    0.000000   0.794075   0.000000   0.000000   0.000000   0.000000
     9  H    0.000000   0.000000   0.836749   0.000000   0.000000   0.000000
    10  H    0.000000   0.000000   0.000000   0.836792   0.000000   0.000000
    11  H    0.000000   0.000000   0.000000   0.000000   0.794090   0.000000
    12  H    0.000000   0.000000   0.000000   0.000000   0.000000   0.794085
          Atomic-Atomic Spin Densities.
               1          2          3          4          5          6
     1  C    0.174746   0.000000   0.000000   0.000000   0.000000   0.000000
     2  C    0.000000   0.251137   0.000000   0.000000   0.000000   0.000000
     3  C    0.000000   0.000000   0.174750   0.000000   0.000000   0.000000
     4  C    0.000000   0.000000   0.000000   0.251143   0.000000   0.000000
     5  H    0.000000   0.000000   0.000000   0.000000  -0.009612   0.000000
     6  H    0.000000   0.000000   0.000000   0.000000   0.000000  -0.009614
     7  H    0.000000   0.000000   0.000000   0.000000   0.000000   0.000000
     8  H    0.000000   0.000000   0.000000   0.000000   0.000000   0.000000
     9  H    0.000000   0.000000   0.000000   0.000000   0.000000   0.000000
    10  H    0.000000   0.000000   0.000000   0.000000   0.000000   0.000000
    11  H    0.000000   0.000000   0.000000   0.000000   0.000000   0.000000
    12  H    0.000000   0.000000   0.000000   0.000000   0.000000   0.000000
               7          8          9         10         11         12
     1  C    0.000000   0.000000   0.000000   0.000000   0.000000   0.000000
     2  C    0.000000   0.000000   0.000000   0.000000   0.000000   0.000000
     3  C    0.000000   0.000000   0.000000   0.000000   0.000000   0.000000
     4  C    0.000000   0.000000   0.000000   0.000000   0.000000   0.000000
     5  H    0.000000   0.000000   0.000000   0.000000   0.000000   0.000000
     6  H    0.000000   0.000000   0.000000   0.000000   0.000000   0.000000
     7  H    0.046680   0.000000   0.000000   0.000000   0.000000   0.000000
     8  H    0.000000   0.046658   0.000000   0.000000   0.000000   0.000000
     9  H    0.000000   0.000000  -0.009614   0.000000   0.000000   0.000000
    10  H    0.000000   0.000000   0.000000  -0.009612   0.000000   0.000000
    11  H    0.000000   0.000000   0.000000   0.000000   0.046694   0.000000
    12  H    0.000000   0.000000   0.000000   0.000000   0.000000   0.046644
 Mulliken charges and spin densities:
               1          2
     1  C   -0.136033   0.174746
     2  C   -0.102254   0.251137
     3  C   -0.136031   0.174750
     4  C   -0.102251   0.251143
     5  H    0.163207  -0.009612
     6  H    0.163252  -0.009614
     7  H    0.205900   0.046680
     8  H    0.205925   0.046658
     9  H    0.163251  -0.009614
    10  H    0.163208  -0.009612
    11  H    0.205910   0.046694
    12  H    0.205915   0.046644
 Sum of Mulliken charges =   1.00000   1.00000
 Mulliken charges and spin densities with hydrogens summed into heavy atoms:
               1          2
     1  C    0.190426   0.155520
     2  C    0.309570   0.344475
     3  C    0.190428   0.155524
     4  C    0.309575   0.344481
 APT charges:
               1
     1  C    0.332162
     2  C   -0.740988
     3  C    0.332059
     4  C   -0.740805
     5  H    0.199262
     6  H    0.200371
     7  H    0.317833
     8  H    0.320489
     9  H    0.200364
    10  H    0.199286
    11  H    0.320888
    12  H    0.317394
 Sum of APT charges =   1.25832
 APT charges with hydrogens summed into heavy atoms:
               1
     1  C    0.731795
     2  C   -0.102665
     3  C    0.731709
     4  C   -0.102523
 Charge=              1.0000 electrons
 Dipole moment (field-independent basis, Debye):
    X=              0.0000    Y=             -0.0000    Z=             -0.0002  Tot=              0.0002
 N-N= 8.342211042048D+01 E-N=-1.307598468275D+02  KE=-1.443931638791D+01
  Exact polarizability:  43.713  -3.236  45.148   0.426  -0.389  31.626
 Approx polarizability:  25.740  -5.470  28.151   0.343  -0.379  18.293
 Calling FoFJK, ICntrl=    100127 FMM=F ISym2X=0 I1Cent= 0 IOpClX= 1 NMat=1 NMatS=1 NMatT=0.
 Full mass-weighted force constant matrix:
 Low frequencies ----6840.6538 -625.1565 -173.8369  -47.1371   -2.6699  155.7822
 Low frequencies ---  169.5530  182.7988  250.9860
 ******    2 imaginary frequencies (negative Signs) ****** 
 Diagonal vibrational polarizability:
       77.7497855      49.0045389      18.7087927
 Harmonic frequencies (cm**-1), IR intensities (KM/Mole), Raman scattering
 activities (A**4/AMU), depolarization ratios for plane and unpolarized
 incident light, reduced masses (AMU), force constants (mDyne/A),
 and normal coordinates:
                      1                      2                      3
                      A                      A                      A
 Frequencies --  -6840.5734              -571.7017               168.7883
 Red. masses --      4.5816                 2.3957                 1.9251
 Frc consts  --    126.3130                 0.4613                 0.0323
 IR Inten    --      0.0000              1480.6144                16.6297
  Atom  AN      X      Y      Z        X      Y      Z        X      Y      Z
     1   6    -0.18   0.22  -0.01    -0.09  -0.08  -0.00    -0.01   0.00   0.14
     2   6     0.22   0.18   0.00     0.17   0.14   0.01     0.01  -0.00  -0.15
     3   6     0.18  -0.22   0.01    -0.09  -0.08  -0.00    -0.01   0.00   0.14
     4   6    -0.22  -0.18  -0.00     0.17   0.14   0.01     0.01  -0.00  -0.15
     5   1     0.18  -0.24   0.01    -0.11  -0.13   0.02    -0.21  -0.14   0.31
     6   1     0.18  -0.24   0.01    -0.14  -0.10  -0.03     0.18   0.15   0.31
     7   1    -0.22  -0.17  -0.00    -0.33  -0.28  -0.01     0.08  -0.13  -0.23
     8   1    -0.23  -0.18  -0.00    -0.34  -0.28   0.00    -0.07   0.11  -0.23
     9   1    -0.18   0.24  -0.01    -0.11  -0.13   0.02    -0.21  -0.14   0.31
    10   1    -0.18   0.24  -0.01    -0.14  -0.10  -0.03     0.18   0.15   0.31
    11   1     0.23   0.18   0.00    -0.34  -0.28   0.00    -0.07   0.11  -0.23
    12   1     0.22   0.17   0.00    -0.33  -0.28  -0.01     0.08  -0.13  -0.23
                      4                      5                      6
                      A                      A                      A
 Frequencies --    499.8806               522.5122               760.9864
 Red. masses --      1.0090                 1.0215                 4.4054
 Frc consts  --      0.1485                 0.1643                 1.5031
 IR Inten    --      0.7007                 0.0003                 0.0000
  Atom  AN      X      Y      Z        X      Y      Z        X      Y      Z
     1   6     0.00   0.00   0.00     0.00   0.00  -0.02     0.20   0.17   0.00
     2   6    -0.00  -0.00  -0.01     0.00  -0.00   0.00     0.19  -0.23   0.01
     3   6     0.00   0.00   0.00    -0.00  -0.00   0.02    -0.20  -0.17  -0.00
     4   6    -0.00  -0.00  -0.01    -0.00   0.00  -0.00    -0.19   0.23  -0.01
     5   1     0.21  -0.27   0.02    -0.20  -0.15   0.17     0.19   0.25  -0.03
     6   1    -0.20   0.27  -0.00     0.19   0.16   0.17     0.26   0.14   0.03
     7   1     0.28   0.24   0.01    -0.30  -0.25  -0.01     0.17  -0.17   0.05
     8   1    -0.28  -0.24   0.00     0.31   0.26   0.00     0.20  -0.23   0.02
     9   1     0.21  -0.27   0.02     0.20   0.15  -0.17    -0.19  -0.25   0.03
    10   1    -0.20   0.28  -0.00    -0.19  -0.16  -0.17    -0.26  -0.14  -0.03
    11   1    -0.28  -0.23   0.00    -0.31  -0.26  -0.00    -0.21   0.23  -0.02
    12   1     0.28   0.24   0.01     0.30   0.26   0.01    -0.17   0.17  -0.05
                      7                      8                      9
                      A                      A                      A
 Frequencies --    798.1008               844.4013               956.2218
 Red. masses --      1.0363                 1.0555                 4.4720
 Frc consts  --      0.3889                 0.4434                 2.4092
 IR Inten    --      0.0000                39.3284                 2.9496
  Atom  AN      X      Y      Z        X      Y      Z        X      Y      Z
     1   6     0.01   0.01   0.00    -0.00   0.00   0.02    -0.17   0.19  -0.02
     2   6     0.01  -0.01   0.03     0.00  -0.01   0.04     0.20  -0.23   0.02
     3   6    -0.01  -0.01  -0.00    -0.00   0.00   0.02    -0.17   0.19  -0.02
     4   6    -0.01   0.01  -0.03     0.00  -0.01   0.04     0.20  -0.23   0.02
     5   1     0.25  -0.28   0.01     0.18   0.09  -0.12    -0.29   0.25   0.02
     6   1    -0.24   0.29  -0.02    -0.18  -0.08  -0.13    -0.22   0.32   0.01
     7   1     0.19  -0.23  -0.16     0.22  -0.31  -0.22     0.09  -0.07   0.09
     8   1    -0.16   0.21  -0.18    -0.21   0.30  -0.26     0.10  -0.10  -0.06
     9   1    -0.25   0.28  -0.01     0.18   0.09  -0.12    -0.29   0.25   0.02
    10   1     0.24  -0.29   0.02    -0.18  -0.08  -0.13    -0.22   0.32   0.01
    11   1     0.16  -0.21   0.18    -0.21   0.30  -0.26     0.10  -0.10  -0.06
    12   1    -0.19   0.23   0.16     0.22  -0.31  -0.22     0.09  -0.07   0.09
                     10                     11                     12
                      A                      A                      A
 Frequencies --   1053.2380              1065.4139              1065.7479
 Red. masses --      1.0998                 1.4607                 1.3757
 Frc consts  --      0.7188                 0.9769                 0.9206
 IR Inten    --      1.0358                 5.8163                 0.0009
  Atom  AN      X      Y      Z        X      Y      Z        X      Y      Z
     1   6    -0.03  -0.02   0.04    -0.01   0.01   0.11    -0.00   0.01  -0.13
     2   6     0.02   0.01  -0.03     0.00  -0.01  -0.09     0.00   0.00  -0.00
     3   6    -0.03  -0.02   0.04    -0.01   0.01   0.11     0.00  -0.01   0.13
     4   6     0.02   0.01  -0.03     0.00  -0.01  -0.09    -0.00  -0.00  -0.00
     5   1    -0.11   0.33  -0.08     0.38   0.08  -0.15    -0.27  -0.21   0.13
     6   1     0.07  -0.38  -0.07    -0.37  -0.07  -0.17     0.23   0.25   0.14
     7   1     0.31   0.28  -0.00    -0.26   0.01   0.05     0.29   0.23   0.00
     8   1    -0.14  -0.16   0.00     0.25  -0.06   0.08    -0.21  -0.17  -0.01
     9   1    -0.11   0.33  -0.08     0.37   0.07  -0.15     0.28   0.21  -0.13
    10   1     0.07  -0.38  -0.07    -0.36  -0.06  -0.17    -0.24  -0.25  -0.14
    11   1    -0.14  -0.16   0.00     0.25  -0.07   0.08     0.21   0.17   0.01
    12   1     0.30   0.28  -0.00    -0.25   0.02   0.05    -0.30  -0.23   0.00
                     13                     14                     15
                      A                      A                      A
 Frequencies --   1084.4736              1093.1230              1200.2869
 Red. masses --      1.4159                 1.1872                 1.3605
 Frc consts  --      0.9811                 0.8358                 1.1549
 IR Inten    --     30.3335                 0.0002                 0.0000
  Atom  AN      X      Y      Z        X      Y      Z        X      Y      Z
     1   6     0.09   0.08   0.01    -0.05   0.06   0.01     0.04  -0.05   0.00
     2   6    -0.05  -0.04  -0.01     0.02   0.02   0.00     0.09   0.07   0.00
     3   6     0.09   0.08   0.01     0.05  -0.07  -0.01    -0.04   0.05  -0.00
     4   6    -0.05  -0.04  -0.01    -0.02  -0.02  -0.00    -0.09  -0.07  -0.00
     5   1     0.03   0.21  -0.03    -0.11   0.21  -0.03    -0.28   0.35  -0.02
     6   1     0.13   0.00   0.01    -0.17   0.15  -0.02    -0.28   0.35  -0.02
     7   1    -0.26  -0.23  -0.02     0.32   0.26  -0.00    -0.15  -0.13  -0.00
     8   1    -0.40  -0.36   0.01     0.36   0.29   0.01    -0.15  -0.13   0.00
     9   1     0.03   0.21  -0.03     0.11  -0.21   0.03     0.28  -0.35   0.02
    10   1     0.13   0.00   0.00     0.16  -0.15   0.02     0.28  -0.35   0.02
    11   1    -0.40  -0.37   0.01    -0.36  -0.29  -0.01     0.15   0.13  -0.00
    12   1    -0.26  -0.23  -0.02    -0.32  -0.26   0.00     0.15   0.13   0.00
                     16                     17                     18
                      A                      A                      A
 Frequencies --   1229.5875              1272.1470              1328.1107
 Red. masses --      1.2452                 2.2198                 1.0546
 Frc consts  --      1.1092                 2.1166                 1.0960
 IR Inten    --      8.9392                 0.0000                35.4669
  Atom  AN      X      Y      Z        X      Y      Z        X      Y      Z
     1   6    -0.06   0.08  -0.01     0.13   0.10   0.00     0.01  -0.01  -0.00
     2   6    -0.00  -0.00   0.00    -0.10   0.13  -0.01    -0.03   0.03   0.00
     3   6    -0.06   0.08  -0.01    -0.13  -0.10  -0.00     0.01  -0.01  -0.00
     4   6    -0.00  -0.00   0.00     0.10  -0.13   0.01    -0.03   0.03   0.00
     5   1     0.29  -0.34   0.01     0.29   0.21  -0.13    -0.14   0.13   0.01
     6   1     0.30  -0.34   0.03     0.27   0.23   0.14    -0.13   0.14  -0.02
     7   1     0.11  -0.14  -0.12    -0.18   0.20   0.08     0.26  -0.29  -0.26
     8   1     0.09  -0.13   0.12    -0.16   0.19  -0.09     0.24  -0.26   0.28
     9   1     0.29  -0.34   0.01    -0.29  -0.21   0.13    -0.14   0.13   0.01
    10   1     0.30  -0.34   0.03    -0.27  -0.23  -0.14    -0.13   0.14  -0.02
    11   1     0.09  -0.13   0.12     0.16  -0.19   0.09     0.24  -0.26   0.28
    12   1     0.11  -0.14  -0.12     0.18  -0.20  -0.08     0.26  -0.29  -0.26
                     19                     20                     21
                      A                      A                      A
 Frequencies --   1344.0759              1401.2773              1407.7012
 Red. masses --      1.1632                 1.1348                 1.4330
 Frc consts  --      1.2381                 1.3128                 1.6731
 IR Inten    --      0.0000                27.6297                 0.0000
  Atom  AN      X      Y      Z        X      Y      Z        X      Y      Z
     1   6     0.01   0.01   0.00     0.06   0.05   0.00    -0.10  -0.08  -0.00
     2   6    -0.05   0.06  -0.00    -0.01  -0.01   0.00     0.03  -0.04   0.00
     3   6    -0.01  -0.01  -0.00     0.06   0.05   0.00     0.10   0.08   0.00
     4   6     0.05  -0.06   0.00    -0.01  -0.01   0.00    -0.03   0.04  -0.00
     5   1     0.06   0.03  -0.04    -0.30  -0.25   0.31     0.29   0.22  -0.33
     6   1     0.06   0.04   0.04    -0.28  -0.26  -0.31     0.27   0.23   0.33
     7   1     0.24  -0.31  -0.29    -0.00   0.01   0.01    -0.00  -0.00   0.02
     8   1     0.23  -0.30   0.31    -0.00   0.01  -0.01    -0.00  -0.00  -0.01
     9   1    -0.06  -0.03   0.04    -0.30  -0.25   0.31    -0.29  -0.22   0.33
    10   1    -0.06  -0.04  -0.04    -0.28  -0.26  -0.31    -0.27  -0.23  -0.33
    11   1    -0.23   0.30  -0.31    -0.00   0.01  -0.01     0.00   0.00   0.01
    12   1    -0.24   0.31   0.29    -0.00   0.01   0.01     0.00   0.00  -0.02
                     22                     23                     24
                      A                      A                      A
 Frequencies --   2510.2082              3001.7439              3076.3060
 Red. masses --      1.0476                 1.0856                 1.0472
 Frc consts  --      3.8891                 5.7635                 5.8388
 IR Inten    --      0.0041               351.9341               744.5630
  Atom  AN      X      Y      Z        X      Y      Z        X      Y      Z
     1   6     0.00  -0.00  -0.00     0.00  -0.00  -0.01     0.00  -0.00  -0.00
     2   6    -0.00   0.00   0.04    -0.00   0.00   0.06     0.03  -0.03  -0.00
     3   6    -0.00   0.00   0.00     0.00  -0.00  -0.01     0.00  -0.00  -0.00
     4   6     0.00  -0.00  -0.04    -0.00   0.00   0.06     0.03  -0.03  -0.00
     5   1    -0.15   0.19  -0.01     0.04   0.03   0.07     0.02   0.01   0.03
     6   1     0.15  -0.19   0.01    -0.04  -0.03   0.07    -0.02  -0.01   0.03
     7   1     0.25  -0.30   0.19    -0.17   0.22  -0.41    -0.16   0.20  -0.41
     8   1    -0.27   0.31   0.16     0.20  -0.24  -0.37    -0.19   0.23   0.42
     9   1     0.15  -0.19   0.01     0.04   0.03   0.07     0.02   0.02   0.03
    10   1    -0.15   0.19  -0.01    -0.04  -0.03   0.07    -0.02  -0.01   0.03
    11   1     0.27  -0.31  -0.16     0.19  -0.23  -0.37    -0.19   0.23   0.41
    12   1    -0.25   0.30  -0.19    -0.17   0.22  -0.41    -0.16   0.20  -0.41
                     25                     26                     27
                      A                      A                      A
 Frequencies --   3093.1756              3100.2157              3142.1940
 Red. masses --      1.0996                 1.0959                 1.0446
 Frc consts  --      6.1985                 6.2056                 6.0769
 IR Inten    --    195.7196                 0.0030                 0.0013
  Atom  AN      X      Y      Z        X      Y      Z        X      Y      Z
     1   6    -0.00   0.00   0.06    -0.00   0.00   0.06    -0.00  -0.00   0.00
     2   6     0.00  -0.00   0.01    -0.00  -0.00  -0.00    -0.03   0.03  -0.00
     3   6    -0.00   0.00   0.06     0.00  -0.00  -0.06     0.00   0.00  -0.00
     4   6     0.00  -0.00   0.01     0.00   0.00   0.00     0.03  -0.03   0.00
     5   1    -0.22  -0.20  -0.39    -0.22  -0.20  -0.39    -0.02  -0.02  -0.04
     6   1     0.25   0.18  -0.39     0.25   0.18  -0.39    -0.02  -0.02   0.04
     7   1    -0.04   0.05  -0.10    -0.00  -0.00   0.00     0.16  -0.20   0.42
     8   1     0.01  -0.02  -0.03     0.00   0.00   0.00     0.19  -0.22  -0.41
     9   1    -0.22  -0.20  -0.39     0.23   0.20   0.40     0.02   0.02   0.04
    10   1     0.24   0.18  -0.38    -0.25  -0.18   0.39     0.02   0.02  -0.04
    11   1     0.01  -0.02  -0.03    -0.00  -0.00  -0.00    -0.19   0.22   0.41
    12   1    -0.04   0.05  -0.10     0.00   0.00  -0.00    -0.16   0.20  -0.42
                     28                     29                     30
                      A                      A                      A
 Frequencies --   3162.3743              3175.5437              3963.1497
 Red. masses --      1.0554                 1.0546                 1.4427
 Frc consts  --      6.2189                 6.2659                13.3505
 IR Inten    --    202.1448                 0.0013                 0.0251
  Atom  AN      X      Y      Z        X      Y      Z        X      Y      Z
     1   6    -0.04  -0.03  -0.00     0.04   0.03   0.00     0.00   0.00  -0.00
     2   6     0.00   0.00  -0.00     0.00  -0.01  -0.00    -0.01   0.01   0.14
     3   6    -0.04  -0.03  -0.00    -0.04  -0.03  -0.00    -0.00  -0.00   0.00
     4   6     0.00   0.00  -0.00    -0.00   0.01   0.00     0.01  -0.01  -0.14
     5   1     0.21   0.19   0.42    -0.21  -0.19  -0.41    -0.15   0.18  -0.01
     6   1     0.23   0.17  -0.41    -0.23  -0.17   0.41     0.15  -0.19   0.01
     7   1    -0.01  -0.01   0.00    -0.02   0.02  -0.04    -0.01   0.03  -0.43
     8   1    -0.01  -0.01  -0.00    -0.02   0.02   0.04     0.03  -0.05  -0.42
     9   1     0.20   0.18   0.41     0.21   0.18   0.41     0.15  -0.18   0.01
    10   1     0.23   0.17  -0.41     0.23   0.17  -0.41    -0.15   0.19  -0.01
    11   1    -0.01  -0.01  -0.00     0.02  -0.02  -0.04    -0.03   0.05   0.42
    12   1    -0.01  -0.01   0.00     0.02  -0.02   0.04     0.01  -0.03   0.43

 -------------------
 - Thermochemistry -
 -------------------
 Temperature   298.150 Kelvin.  Pressure   1.00000 Atm.
 Atom     1 has atomic number  6 and mass  12.00000
 Atom     2 has atomic number  6 and mass  12.00000
 Atom     3 has atomic number  6 and mass  12.00000
 Atom     4 has atomic number  6 and mass  12.00000
 Atom     5 has atomic number  1 and mass   1.00783
 Atom     6 has atomic number  1 and mass   1.00783
 Atom     7 has atomic number  1 and mass   1.00783
 Atom     8 has atomic number  1 and mass   1.00783
 Atom     9 has atomic number  1 and mass   1.00783
 Atom    10 has atomic number  1 and mass   1.00783
 Atom    11 has atomic number  1 and mass   1.00783
 Atom    12 has atomic number  1 and mass   1.00783
 Molecular mass:    56.06260 amu.
 Principal axes and moments of inertia in atomic units:
                           1         2         3
     Eigenvalues --   168.87297 168.87344 290.42359
           X            0.99798  -0.05596  -0.02999
           Y            0.05663   0.99816   0.02182
           Z            0.02872  -0.02347   0.99931
 This molecule is an asymmetric top.
 Rotational symmetry number  1.
 Rotational temperatures (Kelvin)      0.51289     0.51289     0.29823
 Rotational constants (GHZ):          10.68698    10.68694     6.21417
    2 imaginary frequencies ignored.
 Zero-point vibrational energy     283042.3 (Joules/Mol)
                                   67.64874 (Kcal/Mol)
 Warning -- explicit consideration of   3 degrees of freedom as
           vibrations may cause significant error
 Vibrational temperatures:    242.85   719.22   751.78  1094.89  1148.29
          (Kelvin)           1214.90  1375.79  1515.37  1532.89  1533.37
                             1560.31  1572.76  1726.94  1769.10  1830.33
                             1910.85  1933.82  2016.12  2025.37  3611.63
                             4318.83  4426.11  4450.38  4460.51  4520.91
                             4549.95  4568.89  5702.08
 
 Zero-point correction=                           0.107805 (Hartree/Particle)
 Thermal correction to Energy=                    0.112178
 Thermal correction to Enthalpy=                  0.113122
 Thermal correction to Gibbs Free Energy=         0.080818
 Sum of electronic and zero-point Energies=              0.507078
 Sum of electronic and thermal Energies=                 0.511451
 Sum of electronic and thermal Enthalpies=               0.512395
 Sum of electronic and thermal Free Energies=            0.480091
 
                     E (Thermal)             CV                S
                      KCal/Mol        Cal/Mol-Kelvin    Cal/Mol-Kelvin
 Total                   70.393             15.222             67.989
 Electronic               0.000              0.000              1.377
 Translational            0.889              2.981             37.993
 Rotational               0.889              2.981             23.631
 Vibrational             68.615              9.261              4.988
 Vibration     1          0.625              1.881              2.449
 Vibration     2          0.855              1.250              0.658
 Vibration     3          0.877              1.200              0.604
                       Q            Log10(Q)             Ln(Q)
 Total Bot       0.670185D-37        -37.173805        -85.595850
 Total V=0       0.258827D+13         12.413010         28.582011
 Vib (Bot)       0.623414D-49        -49.205223       -113.299214
 Vib (Bot)    1  0.119443D+01          0.077160          0.177667
 Vib (Bot)    2  0.328820D+00         -0.483042         -1.112246
 Vib (Bot)    3  0.308207D+00         -0.511158         -1.176985
 Vib (V=0)       0.240764D+01          0.381591          0.878647
 Vib (V=0)    1  0.179486D+01          0.254030          0.584926
 Vib (V=0)    2  0.109843D+01          0.040774          0.093885
 Vib (V=0)    3  0.108736D+01          0.036373          0.083752
 Electronic      0.200000D+01          0.301030          0.693147
 Translational   0.164993D+08          7.217465         16.618827
 Rotational      0.325779D+05          4.512923         10.391389
 ***** Axes restored to original set *****
 -------------------------------------------------------------------
 Center     Atomic                   Forces (Hartrees/Bohr)
 Number     Number              X              Y              Z
 -------------------------------------------------------------------
      1        6           0.002606140    0.056789296   -0.000554296
      2        6           0.026669714   -0.001233892   -0.000955606
      3        6          -0.002605665   -0.056787868    0.000548053
      4        6          -0.026672367    0.001234781    0.000967443
      5        1           0.000300714    0.003829307    0.003455145
      6        1           0.000045517    0.003730142   -0.003496184
      7        1           0.005706340   -0.000410381   -0.015373440
      8        1           0.006841166   -0.000168413    0.014890310
      9        1          -0.000298049   -0.003787002   -0.003423045
     10        1          -0.000046701   -0.003774276    0.003529473
     11        1          -0.006802900    0.000166488   -0.014927416
     12        1          -0.005743909    0.000411819    0.015339562
 -------------------------------------------------------------------
 Cartesian Forces:  Max     0.056789296 RMS     0.015875004

 GradGradGradGradGradGradGradGradGradGradGradGradGradGradGradGradGradGrad
 Berny optimization.
 Search for a local minimum.
 Step number   1 out of a maximum of    2
 All quantities printed in internal units (Hartrees-Bohrs-Radians)
 Second derivative matrix not updated -- analytic derivatives used.
 ITU=  0
     Eigenvalues ---  -18.29169  -0.02435   0.00205   0.00955   0.00979
     Eigenvalues ---    0.02536   0.03283   0.04277   0.05300   0.05472
     Eigenvalues ---    0.06111   0.06756   0.06780   0.09244   0.10059
     Eigenvalues ---    0.12941   0.16980   0.17985   0.21528   0.25442
     Eigenvalues ---    0.30319   0.34826   0.62988   0.64478   0.65675
     Eigenvalues ---    0.72645   0.74383   0.75828   1.00123   2.57078
 Eigenvalue     1 is  -1.83D+01 should be greater than     0.000000 Eigenvector:
                          X3        X1        Y4        Y2        X5
   1                    0.49711  -0.49711  -0.49381   0.49380   0.04491
                          X9        X10       X6        Y11       Y8
   1                   -0.04488  -0.04429   0.04426   0.04278  -0.04275
 Eigenvalue     2 is  -2.43D-02 should be greater than     0.000000 Eigenvector:
                          Y2        Y4        Y7        Y12       Y11
   1                    0.49011   0.49010  -0.34777  -0.34715  -0.34603
                          Y8        Y10       Y6        Y5        Y9
   1                   -0.34540  -0.08846  -0.08837  -0.07962  -0.07953
 Quadratic step=7.303D-01 exceeds max=3.000D-01 adjusted using Lamda=-9.791D-02.
 Angle between NR and scaled steps=  15.39 degrees.
 Angle between quadratic step and forces=  39.06 degrees.
 Linear search not attempted -- first point.
 TrRot= -0.000041 -0.000095  0.000254  0.000014  0.000076  0.000014
 Variable       Old X    -DE/DX   Delta X   Delta X   Delta X     New X
                                 (Linear)    (Quad)   (Total)
    X1        3.44280   0.00261   0.00000   0.00400   0.00394   3.44673
    Y1        5.36630   0.05679   0.00000   0.10571   0.10572   5.47201
    Z1        1.75824  -0.00055   0.00000  -0.00091  -0.00092   1.75732
    X2        1.28990   0.02667   0.00000   0.07484   0.07484   1.36475
    Y2        3.40164  -0.00123   0.00000  -0.00332  -0.00338   3.39826
    Z2        1.85219  -0.00096   0.00000  -0.00138  -0.00123   1.85096
    X3        3.25395  -0.00261   0.00000  -0.00400  -0.00394   3.25001
    Y3        1.24683  -0.05679   0.00000  -0.10571  -0.10571   1.14112
    Z3        1.79825   0.00055   0.00000   0.00101   0.00102   1.79927
    X4        5.40686  -0.02667   0.00000  -0.07485  -0.07486   5.33200
    Y4        3.21148   0.00123   0.00000   0.00332   0.00338   3.21486
    Z4        1.70456   0.00097   0.00000   0.00128   0.00113   1.70569
    X5        3.56025   0.00030   0.00000   0.00190   0.00193   3.56218
    Y5        6.58892   0.00383   0.00000   0.05742   0.05743   6.64635
    Z5        3.45847   0.00346   0.00000   0.02466   0.02464   3.48311
    X6        3.43621   0.00005   0.00000   0.00216   0.00193   3.43814
    Y6        6.56172   0.00373   0.00000   0.05695   0.05695   6.61867
    Z6        0.03463  -0.00350   0.00000  -0.02543  -0.02544   0.00919
    X7        0.01977   0.00571   0.00000   0.08974   0.08961   0.10938
    Y7        3.44366  -0.00041   0.00000  -0.00383  -0.00392   3.43973
    Z7        0.18353  -0.01537   0.00000  -0.04722  -0.04698   0.13656
    X8        0.14344   0.00684   0.00000   0.09196   0.09210   0.23554
    Y8        3.47124  -0.00017   0.00000  -0.00245  -0.00254   3.46871
    Z8        3.60738   0.01489   0.00000   0.04055   0.04079   3.64817
    X9        3.13650  -0.00030   0.00000  -0.00189  -0.00193   3.13457
    Y9        0.02385  -0.00379   0.00000  -0.05728  -0.05728  -0.03343
    Z9        0.09812  -0.00342   0.00000  -0.02456  -0.02454   0.07358
   X10        3.26056  -0.00005   0.00000  -0.00216  -0.00193   3.25863
   Y10        0.05178  -0.00377   0.00000  -0.05710  -0.05710  -0.00532
   Z10        3.52197   0.00353   0.00000   0.02553   0.02554   3.54751
   X11        6.55293  -0.00680   0.00000  -0.09183  -0.09197   6.46096
   Y11        3.14189   0.00017   0.00000   0.00244   0.00253   3.14442
   Z11       -0.05073  -0.01493   0.00000  -0.04065  -0.04089  -0.09162
   X12        6.67732  -0.00574   0.00000  -0.08987  -0.08974   6.58758
   Y12        3.16945   0.00041   0.00000   0.00384   0.00393   3.17338
   Z12        3.37311   0.01534   0.00000   0.04712   0.04688   3.41999
         Item               Value     Threshold  Converged?
 Maximum Force            0.056789     0.000450     NO 
 RMS     Force            0.015875     0.000300     NO 
 Maximum Displacement     0.105715     0.001800     NO 
 RMS     Displacement     0.050007     0.001200     NO 
 Predicted change in Energy=-1.550293D-02
 GradGradGradGradGradGradGradGradGradGradGradGradGradGradGradGradGradGrad

 1\1\GINC-GTX1080DELTA\Freq\UAM1\ZDO\C4H8(1+,2)\MVEROT\16-Apr-2022\0\\#
 n AM1 freq\\Optimisation de geometrie\\1,2\C,1.8218492588,2.8397225726
 ,0.9304198945\C,0.6825866827,1.8000727664,0.9801354936\C,1.721915757,0
 .6597918284,0.9515944686\C,2.8611864453,1.6994437333,0.9020158343\H,1.
 8840016512,3.4867064405,1.8301445186\H,1.8183661073,3.4723131437,0.018
 3253459\H,0.0104626701,1.8223038456,0.097122538\H,0.0759068859,1.83690
 25883,1.9089430416\H,1.6597626314,0.0126231753,0.0519236835\H,1.725413
 9746,0.0274000156,1.8637452549\H,3.4676611733,1.6626178849,-0.02684420
 24\H,3.5334867623,1.6772020054,1.7849741288\\Version=AM64L-G09RevD.01\
 State=2-A\HF=0.3992727\S2=0.753228\S2-1=0.\S2A=0.750008\RMSD=9.273e-09
 \RMSF=1.588e-02\ZeroPoint=0.1078051\Thermal=0.112178\Dipole=0.0000027,
 -0.0000042,-0.0000691\DipoleDeriv=-0.0389652,0.0434854,0.0069768,0.043
 6287,0.9068164,-0.0074824,0.0051044,-0.006531,0.1286335,-0.0275583,-0.
 0732902,-0.0565117,-0.0748522,-1.5886424,0.0055653,-0.0087865,0.008658
 3,-0.6067619,-0.0392661,0.0438564,0.0070027,0.0436433,0.9068084,-0.007
 6199,0.0051122,-0.0061746,0.1286357,-0.0278174,-0.0734758,-0.0564222,-
 0.0747614,-1.5889961,0.0055353,-0.0253516,0.0049207,-0.605601,0.082462
 1,0.0061335,0.0075316,0.0114579,0.3319752,0.0592544,0.0090692,0.118762
 ,0.1833498,0.0855188,0.0026948,-0.0016147,0.0093333,0.3288263,-0.06250
 41,-0.0021109,-0.1232511,0.1867668,0.2224666,0.0140399,0.1282599,0.023
 7763,0.4453886,-0.0033335,0.398302,-0.0215045,0.2856451,0.1944512,0.01
 5021,-0.1077429,0.0209799,0.4435178,0.0038554,-0.4003413,0.0153661,0.3
 234988,0.0856724,0.0067983,0.0073143,0.011328,0.3320216,0.0592728,0.00
 89654,0.1187739,0.1833986,0.0823533,0.00201,-0.0013965,0.0094594,0.328
 7847,-0.0625032,-0.0020083,-0.1231929,0.1867191,0.1957647,0.0152601,-0
 .1077513,0.0210379,0.4436409,0.0038578,-0.3973696,0.0160354,0.323258,0
 .2214121,0.013845,0.1284075,0.0237579,0.4453154,-0.003324,0.4013916,-0
 .0208144,0.2854554\Polar=47.7290293,-0.3110845,41.1308983,-0.5901627,-
 0.0691568,31.6269883\HyperPolar=-0.5174067,-0.0861761,0.1298324,-0.025
 989,-5.3589142,-0.7662081,0.0233258,0.6647106,0.0421698,-0.076923\PG=C
 01 [X(C4H8)]\NImag=2\\-4.31082582,0.22672049,0.58440993,0.17254839,-0.
 00897549,0.50276970,0.12377159,-0.10186491,-0.00160595,0.52572868,4.54
 347639,-0.22961784,-0.16217281,-0.22384995,-4.38549766,-0.06625136,0.0
 0691638,-0.02161251,0.00853870,0.08141795,1.40584270,4.62706009,-0.223
 04649,-0.16573986,-0.28469753,-4.53908196,0.07046934,-4.31093409,-0.22
 296365,-0.18882757,0.00944258,0.10579190,0.18104855,-0.00613411,0.2266
 3679,0.58441361,-0.16574375,0.00939932,0.00836584,0.01150937,0.1633740
 8,-0.02651925,0.17254757,-0.00905050,0.50277608,-0.28473180,0.10580069
 ,0.01149609,-0.12695518,0.21002683,-0.01763677,0.12380863,-0.10185865,
 -0.00161611,0.52570991,-4.53915648,0.18113245,0.16333926,0.21000389,4.
 42853097,-0.08055592,4.54365814,-0.22954767,-0.16214001,-0.22389591,-4
 .38574563,0.07043756,-0.00609456,-0.02652229,-0.01763954,-0.08057413,-
 0.96862396,-0.06629436,0.00688095,-0.02161351,0.00847581,0.08140826,1.
 40584030,0.37017114,-0.02649924,-0.02638844,-0.02844693,-0.42466099,-0
 .18239659,-0.40938570,0.01901129,0.01462929,0.01751062,0.42235010,0.18
 104938,0.03666035,-0.03838520,-0.13659335,-0.12100709,-0.00915817,0.03
 529484,-0.00786066,0.02897707,-0.01605069,0.00149297,0.00883277,-0.025
 99709,-0.02246631,0.01132476,0.15334567,-0.03512522,-0.12774956,-0.211
 75938,-0.00239555,0.02243380,0.00568522,0.02281185,-0.00339526,-0.0009
 0083,0.00251943,-0.02469421,-0.00559387,0.01503053,0.14438303,0.241712
 21,0.37008728,-0.01764151,-0.01570192,-0.02203398,-0.41855281,0.195863
 68,-0.40851723,0.01879388,0.01460890,0.01131176,0.41792778,-0.19361400
 ,-0.05934151,0.00415897,0.00114234,0.03589912,-0.03291416,-0.13242743,
 0.12219424,-0.00801876,0.03905712,0.00784898,0.03247853,-0.01618713,-0
 .00349063,0.00984041,-0.02922129,0.02227350,0.00391195,0.00665130,-0.0
 0724612,0.00121443,0.14870840,-0.02330921,0.12894460,-0.21648678,0.005
 05113,0.02374464,-0.00657058,0.02291069,0.00168355,-0.00086383,-0.0045
 6247,-0.02206103,0.00596342,0.00208050,0.00634128,-0.03064877,0.002169
 67,-0.14332822,0.24714638,-0.04383166,-0.01207067,-0.01146929,-0.11493
 863,0.03218140,-0.05041326,0.01375110,0.01129952,-0.01240529,-0.007409
 61,-0.02702181,-0.06404354,-0.01333742,-0.00058036,-0.00044558,0.01521
 915,-0.00074213,-0.00118568,0.15700575,-0.39807505,-0.00795041,-0.0019
 6538,0.02080884,0.38652008,-0.00060442,0.39826715,-0.04482486,0.003512
 58,-0.01671814,-0.35207402,0.00559570,0.02839206,-0.00805790,-0.001529
 81,0.03642648,-0.00432269,-0.00025532,-0.00563703,-0.00515096,-0.00047
 254,-0.00781539,-0.00779953,-0.12651047,-0.00461148,-0.36917038,-0.012
 88375,0.00886450,-0.00780200,0.00443345,0.00841231,0.18330777,0.032908
 10,-0.00147123,-0.00111943,-0.03284848,0.00102302,0.00196153,0.1284168
 5,-0.00422421,0.26325660,-0.04033871,-0.01185578,0.01252551,-0.1010946
 3,0.03081023,0.02610749,0.01410857,0.01094036,0.00902541,-0.00459582,-
 0.02363816,0.08724509,0.01870498,-0.00081385,0.00009855,-0.01736561,-0
 .00048229,0.00148350,0.00206262,-0.00279367,0.00939886,0.13993595,-0.3
 9934858,-0.00749754,0.03010702,0.02184454,0.38878369,-0.02108827,0.400
 16602,-0.04513640,-0.03249236,-0.01666811,-0.35533017,0.01416213,0.038
 51551,-0.00396087,-0.00402995,0.02667882,-0.00847816,-0.00187214,-0.00
 320509,-0.02745460,0.00215081,-0.00672005,-0.00516675,0.01357017,0.008
 89874,-0.00945611,0.11689941,-0.01582501,-0.37840125,-0.00031085,-0.00
 906677,-0.00847096,0.00484603,0.00829018,0.17610983,0.03021239,-0.0010
 0906,-0.00003597,-0.03214530,0.00164346,0.00079533,-0.00868299,-0.0004
 4516,0.00340511,-0.11861499,0.01025378,0.27990253,-0.40911781,0.019005
 81,0.01462006,0.01749250,0.42206116,0.18100979,0.36991093,-0.02647895,
 -0.02637188,-0.02843986,-0.42438752,-0.18235226,0.00338236,-0.00137509
 ,-0.00104909,0.07133884,-0.00466506,-0.00318804,0.00975306,-0.03614244
 ,-0.03143064,-0.02105070,-0.03000635,-0.03108484,0.03670435,0.02897097
 ,-0.01605122,0.00149897,0.00882797,-0.02598356,-0.02245771,-0.03837784
 ,-0.13661214,-0.12097227,-0.00915279,0.03529329,-0.00786019,-0.0013766
 2,-0.00115020,-0.00120136,-0.00429464,-0.00149287,0.00036891,-0.000417
 57,0.00126151,0.00149668,0.00169817,-0.00333849,0.00091095,0.01132123,
 0.15335368,0.02279869,-0.00339427,-0.00089839,0.00251768,-0.02467539,-
 0.00559348,-0.03510631,-0.12771166,-0.21166720,-0.00239247,0.02242399,
 0.00568618,-0.00104885,-0.00120112,-0.00020986,-0.00321508,0.00006829,
 0.00040518,-0.00118353,0.00002319,0.00196292,0.00178591,0.00260082,0.0
 0072163,0.01502120,0.14434154,0.24161581,-0.40879457,0.01881236,0.0146
 1768,0.01132312,0.41821478,-0.19366714,0.37037609,-0.01764661,-0.01571
 515,-0.02204462,-0.41886448,0.19591392,0.07140339,-0.00429787,-0.00321
 796,0.00325598,-0.00164165,-0.00115425,-0.01769884,-0.02889201,0.03384
 377,0.01314710,-0.03562468,0.03150583,-0.05934345,0.00415929,0.0011426
 4,0.03585157,0.03248615,-0.01618751,-0.00348499,0.00984476,-0.02923387
 ,0.02227865,-0.03291935,-0.13240694,0.12222893,-0.00802363,0.03906150,
 0.00785377,-0.00466782,-0.00149272,0.00006795,-0.00164057,-0.00106832,
 0.00142643,0.00154486,-0.00296622,-0.00099735,-0.00048749,0.00169518,-
 0.00135193,0.00391030,0.00665128,-0.00725308,0.00121492,0.14869770,0.0
 2292432,0.00168346,-0.00086489,-0.00456562,-0.02207092,0.00596203,-0.0
 2332574,0.12898286,-0.21658493,0.00505446,0.02376428,-0.00657120,-0.00
 319078,0.00036951,0.00040512,-0.00115473,0.00142677,-0.00027468,-0.000
 29503,0.00137155,-0.00114929,0.00072265,0.00435806,-0.00017555,0.00207
 989,0.00633454,-0.03064822,0.00217537,-0.14336976,0.24724951,0.0141308
 8,0.01094361,0.00902502,-0.00459627,-0.02366212,0.08726709,-0.04037024
 ,-0.01185923,0.01252533,-0.10106030,0.03083817,0.02614021,-0.02106203,
 0.00169901,0.00178577,0.01314475,-0.00048779,0.00072196,0.00588916,0.0
 0211873,-0.01660238,-0.00971230,0.00178962,-0.01324104,0.01870252,-0.0
 0081383,0.00009822,-0.01736795,-0.00048252,0.00148325,0.13992134,0.400
 46713,-0.04516418,-0.03249716,-0.01667796,-0.35561335,0.01415320,-0.39
 966084,-0.00749502,0.03011294,0.02186422,0.38913028,-0.02108221,-0.030
 05382,-0.00333837,0.00260271,-0.03562932,0.00169454,0.00435886,0.00281
 378,0.02589195,-0.00233483,0.00179061,0.02911075,-0.00150748,0.0385159
 3,-0.00396439,-0.00403109,0.02673237,-0.00848289,-0.00187471,-0.006725
 36,-0.00524119,-0.00030433,-0.00907531,-0.00846867,0.00484490,0.008297
 83,0.17618634,0.01358580,0.00890627,-0.00945669,0.11692855,-0.01583084
 ,-0.37858319,-0.03110754,0.00091222,0.00072190,0.03151347,-0.00135213,
 -0.00017583,0.01180537,-0.00022112,-0.02920693,-0.01324378,-0.00150971
 ,-0.03568560,0.03022031,-0.00100918,-0.00003616,-0.03216989,0.00164410
 ,0.00079554,-0.11864376,0.01025598,0.28003571,0.01374156,0.01129362,-0
 .01240644,-0.00740946,-0.02701023,-0.06402756,-0.04381592,-0.01206487,
 -0.01147152,-0.11495978,0.03216881,-0.05036880,0.00975495,-0.00041755,
 -0.00118401,-0.01769055,0.00154459,-0.00029533,-0.00692732,0.00244453,
 0.00989201,0.00588490,0.00281166,0.01179524,-0.01333488,-0.00058042,-0
 .00044561,0.01522254,-0.00074215,-0.00118609,0.00206166,-0.00320467,-0
 .00869555,0.15701280,0.39799211,-0.04481381,0.00352738,-0.01670451,-0.
 35180165,0.00558453,-0.39780796,-0.00796465,-0.00198122,0.02080090,0.3
 8623147,-0.00059056,-0.03613853,0.00126188,0.00002402,-0.02884599,-0.0
 0296652,0.00136863,0.00244304,0.02830624,-0.00095032,0.00211551,0.0258
 4822,-0.00021940,0.02834443,-0.00805395,-0.00152722,0.03642751,-0.0043
 1977,-0.00025660,-0.00279587,-0.02745848,-0.00044700,-0.00563439,-0.00
 508348,-0.01287119,0.00885591,-0.00780188,0.00443187,0.00841203,0.1832
 3339,-0.00046471,-0.00780873,-0.00779944,-0.12647110,-0.00460423,-0.36
 900295,-0.03142318,0.00149720,0.00196209,0.03381887,-0.00099669,-0.001
 14877,0.00988920,-0.00095175,-0.03737432,-0.01659024,-0.00233627,-0.02
 917899,0.03288495,-0.00147013,-0.00111892,-0.03284144,0.00102193,0.001
 96071,0.00938574,0.00214770,0.00340743,0.12837996,-0.00422664,0.263137
 79\\-0.00260614,-0.05678930,0.00055430,-0.02666971,0.00123389,0.000955
 61,0.00260567,0.05678787,-0.00054805,0.02667237,-0.00123478,-0.0009674
 4,-0.00030071,-0.00382931,-0.00345515,-0.00004552,-0.00373014,0.003496
 18,-0.00570634,0.00041038,0.01537344,-0.00684117,0.00016841,-0.0148903
 1,0.00029805,0.00378700,0.00342304,0.00004670,0.00377428,-0.00352947,0
 .00680290,-0.00016649,0.01492742,0.00574391,-0.00041182,-0.01533956\\\
 @


 JUST WHEN YOU THINK YOU'VE GOT THE WORLD ON A STRING,
 YOU FIND OUT IT'S YOUR LEASH.
 Job cpu time:       0 days  0 hours  0 minutes  1.1 seconds.
 File lengths (MBytes):  RWF=    152 Int=      0 D2E=      0 Chk=      2 Scr=      2
 Normal termination of Gaussian 09 at Sat Apr 16 16:11:31 2022.
