 Entering Gaussian System, Link 0=g09
 Input=/scratch/mverot/1-3-propanediol-redundant-opt/1-3-propanediol-redundant-opt.com
 Output=/scratch/mverot/1-3-propanediol-redundant-opt/1-3-propanediol-redundant-opt.log
 Initial command:
 /opt/g09/l1.exe "/scratch/mverot/1-3-propanediol-redundant-opt/Gau-1484102.inp" -scrdir="/scratch/mverot/1-3-propanediol-redundant-opt/"
 Entering Link 1 = /opt/g09/l1.exe PID=   1484104.
  
 Copyright (c) 1988,1990,1992,1993,1995,1998,2003,2009,2013,
            Gaussian, Inc.  All Rights Reserved.
  
 This is part of the Gaussian(R) 09 program.  It is based on
 the Gaussian(R) 03 system (copyright 2003, Gaussian, Inc.),
 the Gaussian(R) 98 system (copyright 1998, Gaussian, Inc.),
 the Gaussian(R) 94 system (copyright 1995, Gaussian, Inc.),
 the Gaussian 92(TM) system (copyright 1992, Gaussian, Inc.),
 the Gaussian 90(TM) system (copyright 1990, Gaussian, Inc.),
 the Gaussian 88(TM) system (copyright 1988, Gaussian, Inc.),
 the Gaussian 86(TM) system (copyright 1986, Carnegie Mellon
 University), and the Gaussian 82(TM) system (copyright 1983,
 Carnegie Mellon University). Gaussian is a federally registered
 trademark of Gaussian, Inc.
  
 This software contains proprietary and confidential information,
 including trade secrets, belonging to Gaussian, Inc.
  
 This software is provided under written license and may be
 used, copied, transmitted, or stored only in accord with that
 written license.
  
 The following legend is applicable only to US Government
 contracts under FAR:
  
                    RESTRICTED RIGHTS LEGEND
  
 Use, reproduction and disclosure by the US Government is
 subject to restrictions as set forth in subparagraphs (a)
 and (c) of the Commercial Computer Software - Restricted
 Rights clause in FAR 52.227-19.
  
 Gaussian, Inc.
 340 Quinnipiac St., Bldg. 40, Wallingford CT 06492
  
  
 ---------------------------------------------------------------
 Warning -- This program may not be used in any manner that
 competes with the business of Gaussian, Inc. or will provide
 assistance to any competitor of Gaussian, Inc.  The licensee
 of this program is prohibited from giving any competitor of
 Gaussian, Inc. access to this program.  By using this program,
 the user acknowledges that Gaussian, Inc. is engaged in the
 business of creating and licensing software in the field of
 computational chemistry and represents and warrants to the
 licensee that it is not a competitor of Gaussian, Inc. and that
 it will not use this program in any manner prohibited above.
 ---------------------------------------------------------------
  

 Cite this work as:
 Gaussian 09, Revision D.01,
 M. J. Frisch, G. W. Trucks, H. B. Schlegel, G. E. Scuseria, 
 M. A. Robb, J. R. Cheeseman, G. Scalmani, V. Barone, B. Mennucci, 
 G. A. Petersson, H. Nakatsuji, M. Caricato, X. Li, H. P. Hratchian, 
 A. F. Izmaylov, J. Bloino, G. Zheng, J. L. Sonnenberg, M. Hada, 
 M. Ehara, K. Toyota, R. Fukuda, J. Hasegawa, M. Ishida, T. Nakajima, 
 Y. Honda, O. Kitao, H. Nakai, T. Vreven, J. A. Montgomery, Jr., 
 J. E. Peralta, F. Ogliaro, M. Bearpark, J. J. Heyd, E. Brothers, 
 K. N. Kudin, V. N. Staroverov, T. Keith, R. Kobayashi, J. Normand, 
 K. Raghavachari, A. Rendell, J. C. Burant, S. S. Iyengar, J. Tomasi, 
 M. Cossi, N. Rega, J. M. Millam, M. Klene, J. E. Knox, J. B. Cross, 
 V. Bakken, C. Adamo, J. Jaramillo, R. Gomperts, R. E. Stratmann, 
 O. Yazyev, A. J. Austin, R. Cammi, C. Pomelli, J. W. Ochterski, 
 R. L. Martin, K. Morokuma, V. G. Zakrzewski, G. A. Voth, 
 P. Salvador, J. J. Dannenberg, S. Dapprich, A. D. Daniels, 
 O. Farkas, J. B. Foresman, J. V. Ortiz, J. Cioslowski, 
 and D. J. Fox, Gaussian, Inc., Wallingford CT, 2013.
 
 ******************************************
 Gaussian 09:  AM64L-G09RevD.01 24-Apr-2013
                18-Apr-2022 
 ******************************************
 %chk=1-3-propanediol-opt
 -----------------------
 #n AM1 Opt=modredundant
 -----------------------
 1/14=-1,18=120,19=15,26=1,38=1/1,3;
 2/9=110,12=2,17=6,18=5,40=1/2;
 3/5=2,16=1,25=1,41=700000,71=1/1,2,3;
 4/35=1/1;
 5/5=2,35=1,38=5/2;
 6/7=2,8=2,9=2,10=2,28=1/1;
 7//1,2,3,16;
 1/14=-1,18=20,19=15,26=1/3(2);
 2/9=110/2;
 99//99;
 2/9=110/2;
 3/5=2,16=1,25=1,41=700000,71=1,135=20/1,2,3;
 4/5=5,16=3,35=1/1;
 5/5=2,35=1,38=5/2;
 7//1,2,3,16;
 1/14=-1,18=20,19=15,26=1/3(-5);
 2/9=110/2;
 6/7=2,8=2,9=2,10=2,19=2,28=1/1;
 99/9=1/99;
 -------------------------
 Optimisation de geometrie
 -------------------------
 Symbolic Z-matrix:
 Charge =  0 Multiplicity = 1
 C                     1.0003    2.0505    1.2298 
 O                     1.6167    3.2158    0.6619 
 C                     1.9842    0.8895    1.1354 
 C                     3.2981    1.1469    1.8851 
 O                     4.1136    2.1208    1.2591 
 H                     0.0703    1.8109    0.6924 
 H                     0.7421    2.2317    2.2855 
 H                     1.0489    3.9812    0.8361 
 H                     2.2102    0.6867    0.0812 
 H                     1.4929   -0.0037    1.5453 
 H                     3.8898    0.225     1.9226 
 H                     3.0683    1.4232    2.9315 
 H                     3.5208    2.8609    1.0374 
 
 The following ModRedundant input section has been read:
 D       2       1       3       4 S  36 10.000                                
 

 GradGradGradGradGradGradGradGradGradGradGradGradGradGradGradGradGradGrad
 Berny optimization.
 Initialization pass.
                           ----------------------------
                           !    Initial Parameters    !
                           ! (Angstroms and Degrees)  !
 --------------------------                            --------------------------
 ! Name  Definition              Value          Derivative Info.                !
 --------------------------------------------------------------------------------
 ! R1    R(1,2)                  1.4354         estimate D2E/DX2                !
 ! R2    R(1,3)                  1.5248         estimate D2E/DX2                !
 ! R3    R(1,6)                  1.1005         estimate D2E/DX2                !
 ! R4    R(1,7)                  1.1018         estimate D2E/DX2                !
 ! R5    R(2,8)                  0.9688         estimate D2E/DX2                !
 ! R6    R(3,4)                  1.5345         estimate D2E/DX2                !
 ! R7    R(3,9)                  1.0971         estimate D2E/DX2                !
 ! R8    R(3,10)                 1.0987         estimate D2E/DX2                !
 ! R9    R(4,5)                  1.4161         estimate D2E/DX2                !
 ! R10   R(4,11)                 1.0961         estimate D2E/DX2                !
 ! R11   R(4,12)                 1.1064         estimate D2E/DX2                !
 ! R12   R(5,13)                 0.9738         estimate D2E/DX2                !
 ! A1    A(2,1,3)              108.4547         estimate D2E/DX2                !
 ! A2    A(2,1,6)              110.2701         estimate D2E/DX2                !
 ! A3    A(2,1,7)              110.2551         estimate D2E/DX2                !
 ! A4    A(3,1,6)              110.4443         estimate D2E/DX2                !
 ! A5    A(3,1,7)              109.6186         estimate D2E/DX2                !
 ! A6    A(6,1,7)              107.7975         estimate D2E/DX2                !
 ! A7    A(1,2,8)              108.576          estimate D2E/DX2                !
 ! A8    A(1,3,4)              113.2378         estimate D2E/DX2                !
 ! A9    A(1,3,9)              109.4619         estimate D2E/DX2                !
 ! A10   A(1,3,10)             107.9003         estimate D2E/DX2                !
 ! A11   A(4,3,9)              108.9109         estimate D2E/DX2                !
 ! A12   A(4,3,10)             109.6925         estimate D2E/DX2                !
 ! A13   A(9,3,10)             107.4775         estimate D2E/DX2                !
 ! A14   A(3,4,5)              113.1086         estimate D2E/DX2                !
 ! A15   A(3,4,11)             109.7463         estimate D2E/DX2                !
 ! A16   A(3,4,12)             109.0336         estimate D2E/DX2                !
 ! A17   A(5,4,11)             106.4205         estimate D2E/DX2                !
 ! A18   A(5,4,12)             111.4659         estimate D2E/DX2                !
 ! A19   A(11,4,12)            106.8466         estimate D2E/DX2                !
 ! A20   A(4,5,13)             105.8283         estimate D2E/DX2                !
 ! D1    D(3,1,2,8)           -171.8373         estimate D2E/DX2                !
 ! D2    D(6,1,2,8)             67.1123         estimate D2E/DX2                !
 ! D3    D(7,1,2,8)            -51.8083         estimate D2E/DX2                !
 ! D4    D(2,1,3,4)             60.0254         Scan                            !
 ! D5    D(2,1,3,9)            -61.6978         estimate D2E/DX2                !
 ! D6    D(2,1,3,10)          -178.3692         estimate D2E/DX2                !
 ! D7    D(6,1,3,4)           -179.0318         estimate D2E/DX2                !
 ! D8    D(6,1,3,9)             59.2449         estimate D2E/DX2                !
 ! D9    D(6,1,3,10)           -57.4264         estimate D2E/DX2                !
 ! D10   D(7,1,3,4)            -60.3999         estimate D2E/DX2                !
 ! D11   D(7,1,3,9)            177.8768         estimate D2E/DX2                !
 ! D12   D(7,1,3,10)            61.2055         estimate D2E/DX2                !
 ! D13   D(1,3,4,5)            -70.6852         estimate D2E/DX2                !
 ! D14   D(1,3,4,11)           170.6476         estimate D2E/DX2                !
 ! D15   D(1,3,4,12)            53.9321         estimate D2E/DX2                !
 ! D16   D(9,3,4,5)             51.3464         estimate D2E/DX2                !
 ! D17   D(9,3,4,11)           -67.3209         estimate D2E/DX2                !
 ! D18   D(9,3,4,12)           175.9636         estimate D2E/DX2                !
 ! D19   D(10,3,4,5)           168.7207         estimate D2E/DX2                !
 ! D20   D(10,3,4,11)           50.0534         estimate D2E/DX2                !
 ! D21   D(10,3,4,12)          -66.6621         estimate D2E/DX2                !
 ! D22   D(3,4,5,13)            46.2397         estimate D2E/DX2                !
 ! D23   D(11,4,5,13)          166.8172         estimate D2E/DX2                !
 ! D24   D(12,4,5,13)          -77.0447         estimate D2E/DX2                !
 --------------------------------------------------------------------------------
 Trust Radius=3.00D-01 FncErr=1.00D-07 GrdErr=1.00D-07
 Number of optimizations in scan=  37
 Number of steps in this run=     66 maximum allowed number of steps=    100.
 GradGradGradGradGradGradGradGradGradGradGradGradGradGradGradGradGradGrad

                          Input orientation:                          
 ---------------------------------------------------------------------
 Center     Atomic      Atomic             Coordinates (Angstroms)
 Number     Number       Type             X           Y           Z
 ---------------------------------------------------------------------
      1          6           0        1.000300    2.050500    1.229800
      2          8           0        1.616700    3.215800    0.661900
      3          6           0        1.984200    0.889500    1.135400
      4          6           0        3.298100    1.146900    1.885100
      5          8           0        4.113600    2.120800    1.259100
      6          1           0        0.070300    1.810900    0.692400
      7          1           0        0.742100    2.231700    2.285500
      8          1           0        1.048900    3.981200    0.836100
      9          1           0        2.210200    0.686700    0.081200
     10          1           0        1.492900   -0.003700    1.545300
     11          1           0        3.889800    0.225000    1.922600
     12          1           0        3.068300    1.423200    2.931500
     13          1           0        3.520800    2.860900    1.037400
 ---------------------------------------------------------------------
                    Distance matrix (angstroms):
                    1          2          3          4          5
     1  C    0.000000
     2  O    1.435404   0.000000
     3  C    1.524760   2.402276   0.000000
     4  C    2.554564   2.933202   1.534483   0.000000
     5  O    3.114231   2.791090   2.462873   1.416121   0.000000
     6  H    1.100503   2.089504   2.169848   3.504586   4.094565
     7  H    1.101818   2.090324   2.160334   2.805396   3.526019
     8  H    1.971031   0.968803   3.243914   3.767301   3.610042
     9  H    2.154783   2.661917   1.097060   2.156239   2.658387
    10  H    2.135868   3.340794   1.098727   2.167508   3.385776
    11  H    3.487353   3.962478   2.166231   1.096091   2.020984
    12  H    2.750620   3.235992   2.164736   1.106392   2.091942
    13  H    2.654560   1.972955   2.501432   1.925094   0.973812
                    6          7          8          9         10
     6  H    0.000000
     7  H    1.779426   0.000000
     8  H    2.385060   2.292518   0.000000
     9  H    2.493304   3.066151   3.573825   0.000000
    10  H    2.458455   2.471560   4.071797   1.770525   0.000000
    11  H    4.314748   3.750541   4.833243   2.534754   2.437168
    12  H    3.761899   2.546015   3.874538   3.066428   2.537613
    13  H    3.623186   3.110437   2.721375   2.712773   3.546304
                   11         12         13
    11  H    0.000000
    12  H    1.768735   0.000000
    13  H    2.804944   2.420610   0.000000
 Stoichiometry    C3H8O2
 Framework group  C1[X(C3H8O2)]
 Deg. of freedom    33
 Full point group                 C1      NOp   1
 Largest Abelian subgroup         C1      NOp   1
 Largest concise Abelian subgroup C1      NOp   1
                         Standard orientation:                         
 ---------------------------------------------------------------------
 Center     Atomic      Atomic             Coordinates (Angstroms)
 Number     Number       Type             X           Y           Z
 ---------------------------------------------------------------------
      1          6           0        1.279122    0.476932    0.183540
      2          8           0        1.313242   -0.929184   -0.102915
      3          6           0       -0.033396    1.045416   -0.344677
      4          6           0       -1.272035    0.399497    0.290304
      5          8           0       -1.477722   -0.937696   -0.128032
      6          1           0        2.134825    0.983046   -0.288400
      7          1           0        1.345017    0.646545    1.270229
      8          1           0        2.081408   -1.316380    0.342709
      9          1           0       -0.079373    0.909092   -1.432263
     10          1           0       -0.037080    2.126234   -0.147141
     11          1           0       -2.170198    0.956633   -0.000073
     12          1           0       -1.192079    0.471487    1.391452
     13          1           0       -0.608824   -1.372689   -0.063945
 ---------------------------------------------------------------------
 Rotational constants (GHZ):      7.6403067      3.9465992      2.8720686
 Standard basis: VSTO-6G (5D, 7F)
 There are    28 symmetry adapted cartesian basis functions of A   symmetry.
 There are    28 symmetry adapted basis functions of A   symmetry.
    28 basis functions,   168 primitive gaussians,    28 cartesian basis functions
    16 alpha electrons       16 beta electrons
       nuclear repulsion energy       140.5615088079 Hartrees.
 Integral buffers will be    131072 words long.
 Regular integral format.
 Two-electron integral symmetry is turned off.
 Do NDO integrals.
 One-electron integrals computed using PRISM.
 NBasis=    28 RedAO= F EigKep=  0.00D+00  NBF=    28
 NBsUse=    28 1.00D-04 EigRej=  0.00D+00 NBFU=    28
 Simple Huckel Guess.
 Overlap will be assumed to be unity.
 Keep J ints in memory in canonical form, NReq=891302.
 Requested convergence on RMS density matrix=1.00D-08 within 128 cycles.
 Requested convergence on MAX density matrix=1.00D-06.
 Requested convergence on             energy=1.00D-06.
 No special actions if energy rises.
 SCF Done:  E(RAM1) = -0.182111719359     A.U. after   13 cycles
            NFock= 12  Conv=0.38D-08     -V/T= 0.9913

 **********************************************************************

            Population analysis using the SCF density.

 **********************************************************************

 Orbital symmetries:
       Occupied  (A) (A) (A) (A) (A) (A) (A) (A) (A) (A) (A) (A)
                 (A) (A) (A) (A)
       Virtual   (A) (A) (A) (A) (A) (A) (A) (A) (A) (A) (A) (A)
 The electronic state is 1-A.
 Alpha  occ. eigenvalues --   -1.43618  -1.35983  -1.19643  -0.97662  -0.82155
 Alpha  occ. eigenvalues --   -0.69327  -0.65897  -0.58056  -0.57642  -0.56701
 Alpha  occ. eigenvalues --   -0.52259  -0.48525  -0.47739  -0.43686  -0.41242
 Alpha  occ. eigenvalues --   -0.39416
 Alpha virt. eigenvalues --    0.10974   0.13053   0.13651   0.14479   0.15504
 Alpha virt. eigenvalues --    0.15782   0.16085   0.16916   0.18030   0.18476
 Alpha virt. eigenvalues --    0.21696   0.24853
          Condensed to atoms (all electrons):
               1          2          3          4          5          6
     1  C    4.016435   0.000000   0.000000   0.000000   0.000000   0.000000
     2  O    0.000000   6.347495   0.000000   0.000000   0.000000   0.000000
     3  C    0.000000   0.000000   4.203134   0.000000   0.000000   0.000000
     4  C    0.000000   0.000000   0.000000   4.007751   0.000000   0.000000
     5  O    0.000000   0.000000   0.000000   0.000000   6.331545   0.000000
     6  H    0.000000   0.000000   0.000000   0.000000   0.000000   0.931558
     7  H    0.000000   0.000000   0.000000   0.000000   0.000000   0.000000
     8  H    0.000000   0.000000   0.000000   0.000000   0.000000   0.000000
     9  H    0.000000   0.000000   0.000000   0.000000   0.000000   0.000000
    10  H    0.000000   0.000000   0.000000   0.000000   0.000000   0.000000
    11  H    0.000000   0.000000   0.000000   0.000000   0.000000   0.000000
    12  H    0.000000   0.000000   0.000000   0.000000   0.000000   0.000000
    13  H    0.000000   0.000000   0.000000   0.000000   0.000000   0.000000
               7          8          9         10         11         12
     1  C    0.000000   0.000000   0.000000   0.000000   0.000000   0.000000
     2  O    0.000000   0.000000   0.000000   0.000000   0.000000   0.000000
     3  C    0.000000   0.000000   0.000000   0.000000   0.000000   0.000000
     4  C    0.000000   0.000000   0.000000   0.000000   0.000000   0.000000
     5  O    0.000000   0.000000   0.000000   0.000000   0.000000   0.000000
     6  H    0.000000   0.000000   0.000000   0.000000   0.000000   0.000000
     7  H    0.938951   0.000000   0.000000   0.000000   0.000000   0.000000
     8  H    0.000000   0.791830   0.000000   0.000000   0.000000   0.000000
     9  H    0.000000   0.000000   0.895201   0.000000   0.000000   0.000000
    10  H    0.000000   0.000000   0.000000   0.907889   0.000000   0.000000
    11  H    0.000000   0.000000   0.000000   0.000000   0.906072   0.000000
    12  H    0.000000   0.000000   0.000000   0.000000   0.000000   0.945719
    13  H    0.000000   0.000000   0.000000   0.000000   0.000000   0.000000
              13
     1  C    0.000000
     2  O    0.000000
     3  C    0.000000
     4  C    0.000000
     5  O    0.000000
     6  H    0.000000
     7  H    0.000000
     8  H    0.000000
     9  H    0.000000
    10  H    0.000000
    11  H    0.000000
    12  H    0.000000
    13  H    0.776419
 Mulliken charges:
               1
     1  C   -0.016435
     2  O   -0.347495
     3  C   -0.203134
     4  C   -0.007751
     5  O   -0.331545
     6  H    0.068442
     7  H    0.061049
     8  H    0.208170
     9  H    0.104799
    10  H    0.092111
    11  H    0.093928
    12  H    0.054281
    13  H    0.223581
 Sum of Mulliken charges =  -0.00000
 Mulliken charges with hydrogens summed into heavy atoms:
               1
     1  C    0.113056
     2  O   -0.139325
     3  C   -0.006224
     4  C    0.140458
     5  O   -0.107964
 Charge=             -0.0000 electrons
 Dipole moment (field-independent basis, Debye):
    X=              2.4977    Y=              1.7051    Z=              1.2843  Tot=              3.2857
 N-N= 1.405615088079D+02 E-N=-2.374109646595D+02  KE=-2.088525046707D+01
 Calling FoFJK, ICntrl=      2127 FMM=F ISym2X=0 I1Cent= 0 IOpClX= 0 NMat=1 NMatS=1 NMatT=0.
 ***** Axes restored to original set *****
 -------------------------------------------------------------------
 Center     Atomic                   Forces (Hartrees/Bohr)
 Number     Number              X              Y              Z
 -------------------------------------------------------------------
      1        6           0.018905703    0.008703528   -0.004245968
      2        8          -0.009793329   -0.008063448    0.002016436
      3        6           0.008530762    0.018105490    0.006133982
      4        6          -0.014737198    0.007474746   -0.011504996
      5        8          -0.010204436   -0.002308567    0.003270147
      6        1          -0.010734489   -0.001882120   -0.010133437
      7        1          -0.001793304    0.004861154    0.014065596
      8        1           0.000263351   -0.007073252    0.001034910
      9        1           0.004272777   -0.000967954   -0.016006226
     10        1          -0.005912513   -0.011322615    0.007565922
     11        1           0.012093626   -0.014397421   -0.003047670
     12        1          -0.001697331    0.008504964    0.010080309
     13        1           0.010806381   -0.001634506    0.000770995
 -------------------------------------------------------------------
 Cartesian Forces:  Max     0.018905703 RMS     0.009104519

 GradGradGradGradGradGradGradGradGradGradGradGradGradGradGradGradGradGrad
 Berny optimization.
 FormGI is forming the generalized inverse of G from B-inverse, IUseBI=4.
 Internal  Forces:  Max     0.018533588 RMS     0.006905733
 Search for a local minimum.
 Step number   1 out of a maximum of   66 on scan point     1 out of    37
 All quantities printed in internal units (Hartrees-Bohrs-Radians)
 Mixed Optimization -- RFO/linear search
 Second derivative matrix not updated -- first step.
 ITU=  0
     Eigenvalues ---    0.00310   0.01223   0.01479   0.01719   0.04333
     Eigenvalues ---    0.04700   0.04853   0.05833   0.05910   0.08401
     Eigenvalues ---    0.11134   0.11531   0.11726   0.13531   0.14030
     Eigenvalues ---    0.16000   0.16000   0.21957   0.21979   0.22027
     Eigenvalues ---    0.29013   0.29913   0.32985   0.33482   0.33627
     Eigenvalues ---    0.33823   0.34009   0.34118   0.40223   0.43050
     Eigenvalues ---    0.52605   0.536221000.000001000.000001000.00000
     Eigenvalues --- 1000.000001000.000001000.000001000.000001000.00000
     Eigenvalues --- 1000.000001000.000001000.000001000.000001000.00000
     Eigenvalues --- 1000.000001000.000001000.000001000.000001000.00000
     Eigenvalues --- 1000.000001000.000001000.000001000.000001000.00000
     Eigenvalues --- 1000.00000
 RFO step:  Lambda=-1.06517078D-02 EMin= 3.09803529D-03
 Linear search not attempted -- first point.
 Iteration  1 RMS(Cart)=  0.10915090 RMS(Int)=  0.00618966
 Iteration  2 RMS(Cart)=  0.00678490 RMS(Int)=  0.00029153
 Iteration  3 RMS(Cart)=  0.00002453 RMS(Int)=  0.00029063
 Iteration  4 RMS(Cart)=  0.00000001 RMS(Int)=  0.00029063
 Iteration  1 RMS(Cart)=  0.00003113 RMS(Int)=  0.00002587
 Iteration  2 RMS(Cart)=  0.00002003 RMS(Int)=  0.00002868
 Iteration  3 RMS(Cart)=  0.00001288 RMS(Int)=  0.00003292
 Iteration  4 RMS(Cart)=  0.00000829 RMS(Int)=  0.00003631
 Iteration  5 RMS(Cart)=  0.00000533 RMS(Int)=  0.00003870
 Iteration  6 RMS(Cart)=  0.00000343 RMS(Int)=  0.00004030
 Iteration  7 RMS(Cart)=  0.00000220 RMS(Int)=  0.00004136
 Iteration  8 RMS(Cart)=  0.00000142 RMS(Int)=  0.00004205
 Iteration  9 RMS(Cart)=  0.00000091 RMS(Int)=  0.00004249
 Variable       Old X    -DE/DX   Delta X   Delta X   Delta X     New X
                                 (Linear)    (Quad)   (Total)
    R1        2.71252  -0.01759   0.00000  -0.04260  -0.04260   2.66992
    R2        2.88138  -0.00043   0.00000  -0.00138  -0.00138   2.88000
    R3        2.07965   0.01443   0.00000   0.04159   0.04159   2.12124
    R4        2.08213   0.01470   0.00000   0.04254   0.04254   2.12468
    R5        1.83077  -0.00556   0.00000  -0.01016  -0.01016   1.82061
    R6        2.89975  -0.00381   0.00000  -0.01266  -0.01266   2.88709
    R7        2.07314   0.01644   0.00000   0.04687   0.04687   2.12002
    R8        2.07629   0.01467   0.00000   0.04205   0.04205   2.11834
    R9        2.67608  -0.00415   0.00000  -0.00941  -0.00941   2.66667
   R10        2.07131   0.01853   0.00000   0.05268   0.05268   2.12399
   R11        2.09078   0.01201   0.00000   0.03527   0.03527   2.12605
   R12        1.84024  -0.00800   0.00000  -0.01490  -0.01490   1.82534
    A1        1.89289   0.00553   0.00000   0.02060   0.02066   1.91355
    A2        1.92458  -0.00451   0.00000  -0.02194  -0.02186   1.90272
    A3        1.92431  -0.00183   0.00000  -0.02259  -0.02279   1.90152
    A4        1.92762  -0.00176   0.00000  -0.00413  -0.00403   1.92359
    A5        1.91321   0.00053   0.00000   0.00867   0.00870   1.92191
    A6        1.88142   0.00197   0.00000   0.01903   0.01884   1.90026
    A7        1.89501  -0.00824   0.00000  -0.04831  -0.04831   1.84670
    A8        1.97637   0.01054   0.00000   0.04548   0.04546   2.02184
    A9        1.91047  -0.00205   0.00000   0.00492   0.00466   1.91513
   A10        1.88322  -0.00428   0.00000  -0.02911  -0.02868   1.85454
   A11        1.90085  -0.00217   0.00000  -0.00962  -0.01029   1.89056
   A12        1.91450  -0.00513   0.00000  -0.02580  -0.02535   1.88914
   A13        1.87584   0.00277   0.00000   0.01279   0.01266   1.88850
   A14        1.97412   0.01247   0.00000   0.04999   0.04986   2.02398
   A15        1.91543  -0.00328   0.00000  -0.02062  -0.01995   1.89549
   A16        1.90300  -0.00055   0.00000   0.01782   0.01754   1.92054
   A17        1.85739  -0.00700   0.00000  -0.05763  -0.05731   1.80008
   A18        1.94545  -0.00565   0.00000  -0.02056  -0.02163   1.92381
   A19        1.86482   0.00340   0.00000   0.02802   0.02772   1.89255
   A20        1.84705   0.01327   0.00000   0.07778   0.07778   1.92483
    D1       -2.99913  -0.00155   0.00000  -0.00856  -0.00847  -3.00759
    D2        1.17133  -0.00011   0.00000  -0.00308  -0.00291   1.16842
    D3       -0.90422   0.00142   0.00000   0.00126   0.00101  -0.90322
    D4        1.04764   0.00438   0.00000   0.00000   0.00000   1.04765
    D5       -1.07683   0.00147   0.00000  -0.02218  -0.02241  -1.09924
    D6       -3.11313   0.00167   0.00000  -0.02381  -0.02397  -3.13710
    D7       -3.12469   0.00125   0.00000  -0.01645  -0.01636  -3.14106
    D8        1.03402  -0.00166   0.00000  -0.03863  -0.03878   0.99524
    D9       -1.00228  -0.00146   0.00000  -0.04027  -0.04034  -1.04262
   D10       -1.05418   0.00292   0.00000   0.00978   0.00987  -1.04431
   D11        3.10454   0.00001   0.00000  -0.01239  -0.01255   3.09199
   D12        1.06824   0.00021   0.00000  -0.01403  -0.01411   1.05413
   D13       -1.23369  -0.00434   0.00000  -0.13778  -0.13814  -1.37183
   D14        2.97836  -0.00128   0.00000  -0.08304  -0.08302   2.89534
   D15        0.94129  -0.00320   0.00000  -0.11535  -0.11505   0.82625
   D16        0.89616  -0.00144   0.00000  -0.10782  -0.10825   0.78791
   D17       -1.17497   0.00162   0.00000  -0.05308  -0.05313  -1.22810
   D18        3.07115  -0.00030   0.00000  -0.08540  -0.08516   2.98599
   D19        2.94473  -0.00229   0.00000  -0.11272  -0.11298   2.83176
   D20        0.87360   0.00077   0.00000  -0.05797  -0.05785   0.81575
   D21       -1.16347  -0.00115   0.00000  -0.09029  -0.08988  -1.25335
   D22        0.80703   0.00307   0.00000   0.07346   0.07356   0.88059
   D23        2.91151   0.00173   0.00000   0.03903   0.03828   2.94979
   D24       -1.34468  -0.00122   0.00000   0.02820   0.02885  -1.31583
         Item               Value     Threshold  Converged?
 Maximum Force            0.018534     0.000450     NO 
 RMS     Force            0.006898     0.000300     NO 
 Maximum Displacement     0.547054     0.001800     NO 
 RMS     Displacement     0.111154     0.001200     NO 
 Predicted change in Energy=-6.041211D-03
 GradGradGradGradGradGradGradGradGradGradGradGradGradGradGradGradGradGrad

                          Input orientation:                          
 ---------------------------------------------------------------------
 Center     Atomic      Atomic             Coordinates (Angstroms)
 Number     Number       Type             X           Y           Z
 ---------------------------------------------------------------------
      1          6           0        0.963245    2.054860    1.223918
      2          8           0        1.514481    3.245786    0.700457
      3          6           0        1.988637    0.931290    1.129942
      4          6           0        3.297376    1.159235    1.884504
      5          8           0        4.233651    2.007137    1.255401
      6          1           0        0.042718    1.789794    0.638763
      7          1           0        0.675179    2.226739    2.297041
      8          1           0        0.875454    3.939414    0.897217
      9          1           0        2.232583    0.730269    0.053532
     10          1           0        1.493949    0.018756    1.553214
     11          1           0        3.845821    0.180686    1.954860
     12          1           0        3.082817    1.522609    2.927422
     13          1           0        3.810289    2.832824    0.987030
 ---------------------------------------------------------------------
                    Distance matrix (angstroms):
                    1          2          3          4          5
     1  C    0.000000
     2  O    1.412861   0.000000
     3  C    1.524031   2.401286   0.000000
     4  C    2.585863   2.989043   1.527783   0.000000
     5  O    3.270906   3.039095   2.492644   1.411141   0.000000
     6  H    1.122513   2.071185   2.182862   3.541508   4.241627
     7  H    1.124330   2.071706   2.182997   2.861061   3.714291
     8  H    1.914676   0.963427   3.215921   3.817046   3.890949
     9  H    2.176135   2.694811   1.121864   2.161078   2.660668
    10  H    2.129743   3.337865   1.120979   2.159351   3.398281
    11  H    3.515118   4.050125   2.166340   1.123966   1.993885
    12  H    2.770884   3.223102   2.185822   1.125057   2.086825
    13  H    2.960912   2.350190   2.637171   1.967089   0.965929
                    6          7          8          9         10
     6  H    0.000000
     7  H    1.827789   0.000000
     8  H    2.319723   2.221008   0.000000
     9  H    2.502118   3.114203   3.584999   0.000000
    10  H    2.465536   2.469585   4.022988   1.816832   0.000000
    11  H    4.334159   3.788983   4.906091   2.553356   2.391410
    12  H    3.814649   2.586483   3.851640   3.099991   2.583510
    13  H    3.924766   3.451432   3.137812   2.789500   3.688492
                   11         12         13
    11  H    0.000000
    12  H    1.824503   0.000000
    13  H    2.823436   2.451734   0.000000
 Stoichiometry    C3H8O2
 Framework group  C1[X(C3H8O2)]
 Deg. of freedom    33
 Full point group                 C1      NOp   1
 Largest Abelian subgroup         C1      NOp   1
 Largest concise Abelian subgroup C1      NOp   1
                         Standard orientation:                         
 ---------------------------------------------------------------------
 Center     Atomic      Atomic             Coordinates (Angstroms)
 Number     Number       Type             X           Y           Z
 ---------------------------------------------------------------------
      1          6           0        1.335239    0.442506    0.149515
      2          8           0        1.382004   -0.950988   -0.078884
      3          6           0        0.004104    0.997838   -0.342779
      4          6           0       -1.244938    0.418350    0.319195
      5          8           0       -1.654848   -0.851488   -0.139938
      6          1           0        2.185288    0.931432   -0.396749
      7          1           0        1.451374    0.636047    1.250956
      8          1           0        2.182161   -1.261916    0.358452
      9          1           0       -0.082255    0.847561   -1.451173
     10          1           0        0.029527    2.099986   -0.139757
     11          1           0       -2.121410    1.075804    0.068492
     12          1           0       -1.118086    0.405485    1.437004
     13          1           0       -0.910271   -1.466762   -0.132232
 ---------------------------------------------------------------------
 Rotational constants (GHZ):      7.9871685      3.5564476      2.7087492
 Standard basis: VSTO-6G (5D, 7F)
 There are    28 symmetry adapted cartesian basis functions of A   symmetry.
 There are    28 symmetry adapted basis functions of A   symmetry.
    28 basis functions,   168 primitive gaussians,    28 cartesian basis functions
    16 alpha electrons       16 beta electrons
       nuclear repulsion energy       139.2601244227 Hartrees.
 Integral buffers will be    131072 words long.
 Regular integral format.
 Two-electron integral symmetry is turned off.
 Do NDO integrals.
 One-electron integrals computed using PRISM.
 NBasis=    28 RedAO= F EigKep=  0.00D+00  NBF=    28
 NBsUse=    28 1.00D-04 EigRej=  0.00D+00 NBFU=    28
 Initial guess from the checkpoint file:  "1-3-propanediol-opt.chk"
 B after Tr=    -0.000000   -0.000000   -0.000000
         Rot=    0.999830    0.001385   -0.005698    0.017494 Ang=   2.11 deg.
 Overlap will be assumed to be unity.
 Keep J ints in memory in canonical form, NReq=891302.
 Requested convergence on RMS density matrix=1.00D-08 within 128 cycles.
 Requested convergence on MAX density matrix=1.00D-06.
 Requested convergence on             energy=1.00D-06.
 No special actions if energy rises.
 SCF Done:  E(RAM1) = -0.184362968095     A.U. after   12 cycles
            NFock= 11  Conv=0.28D-08     -V/T= 0.9912
 Calling FoFJK, ICntrl=      2127 FMM=F ISym2X=0 I1Cent= 0 IOpClX= 0 NMat=1 NMatS=1 NMatT=0.
 ***** Axes restored to original set *****
 -------------------------------------------------------------------
 Center     Atomic                   Forces (Hartrees/Bohr)
 Number     Number              X              Y              Z
 -------------------------------------------------------------------
      1        6           0.004722112   -0.005446046    0.006026678
      2        8           0.005846373    0.002471052   -0.002691455
      3        6           0.004601883    0.006138372   -0.002118796
      4        6          -0.007420266    0.001252412    0.000573694
      5        8          -0.001589347   -0.000753137   -0.002734659
      6        1          -0.000593345   -0.001986375   -0.000338360
      7        1          -0.000504272   -0.001838823    0.001066851
      8        1           0.000423544    0.002237357   -0.001198133
      9        1          -0.000686763    0.001694398    0.000355461
     10        1           0.000861181   -0.001164190   -0.000008303
     11        1           0.000642615   -0.002021570    0.000715650
     12        1          -0.000261841    0.002130023   -0.001933484
     13        1          -0.006041872   -0.002713473    0.002284857
 -------------------------------------------------------------------
 Cartesian Forces:  Max     0.007420266 RMS     0.002997865

 GradGradGradGradGradGradGradGradGradGradGradGradGradGradGradGradGradGrad
 Berny optimization.
 Using GEDIIS/GDIIS optimizer.
 FormGI is forming the generalized inverse of G from B-inverse, IUseBI=4.
 GSVD:  received Info=                   1 from GESDD.
 Internal  Forces:  Max     0.014920352 RMS     0.004820832
 Search for a local minimum.
 Step number   2 out of a maximum of   66 on scan point     1 out of    37
 All quantities printed in internal units (Hartrees-Bohrs-Radians)
 Mixed Optimization -- RFO/linear search
 Update second derivatives using D2CorX and points    1    2
 DE= -2.25D-03 DEPred=-6.04D-03 R= 3.73D-01
 Trust test= 3.73D-01 RLast= 3.66D-01 DXMaxT set to 3.00D-01
 ITU=  0  0
 Use linear search instead of GDIIS.
     Eigenvalues ---    0.00350   0.01223   0.01490   0.01672   0.04209
     Eigenvalues ---    0.04622   0.04812   0.05545   0.05834   0.08785
     Eigenvalues ---    0.11367   0.11866   0.12090   0.13593   0.14204
     Eigenvalues ---    0.15905   0.16982   0.21996   0.22074   0.24337
     Eigenvalues ---    0.27345   0.29645   0.33053   0.33537   0.33703
     Eigenvalues ---    0.33894   0.34018   0.36747   0.42040   0.48057
     Eigenvalues ---    0.52541   0.538221000.000001000.000001000.00000
     Eigenvalues --- 1000.000001000.000001000.000001000.000001000.00000
     Eigenvalues --- 1000.000001000.000001000.000001000.000001000.00000
     Eigenvalues --- 1000.000001000.000001000.000001000.000001000.00000
     Eigenvalues --- 1000.000001000.000001000.000001000.000001000.00000
     Eigenvalues --- 1000.00000
 RFO step:  Lambda=-2.84832847D-03 EMin= 3.50375153D-03
 Quartic linear search produced a step of -0.37373.
 Iteration  1 RMS(Cart)=  0.10924878 RMS(Int)=  0.00474151
 Iteration  2 RMS(Cart)=  0.00577137 RMS(Int)=  0.00015537
 Iteration  3 RMS(Cart)=  0.00001069 RMS(Int)=  0.00015505
 Iteration  4 RMS(Cart)=  0.00000000 RMS(Int)=  0.00015505
 Iteration  1 RMS(Cart)=  0.00000217 RMS(Int)=  0.00000177
 Iteration  2 RMS(Cart)=  0.00000140 RMS(Int)=  0.00000197
 Iteration  3 RMS(Cart)=  0.00000090 RMS(Int)=  0.00000226
 Variable       Old X    -DE/DX   Delta X   Delta X   Delta X     New X
                                 (Linear)    (Quad)   (Total)
    R1        2.66992   0.00786   0.01592  -0.01580   0.00012   2.67004
    R2        2.88000  -0.00984   0.00051  -0.02176  -0.02124   2.85876
    R3        2.12124   0.00113  -0.01554   0.02951   0.01396   2.13520
    R4        2.12468   0.00087  -0.01590   0.02963   0.01373   2.13841
    R5        1.82061   0.00109   0.00380  -0.00550  -0.00170   1.81891
    R6        2.88709  -0.01342   0.00473  -0.03759  -0.03286   2.85424
    R7        2.12002  -0.00079  -0.01752   0.02938   0.01186   2.13187
    R8        2.11834   0.00056  -0.01572   0.02874   0.01302   2.13136
    R9        2.66667  -0.00695   0.00352  -0.01650  -0.01298   2.65369
   R10        2.12399   0.00212  -0.01969   0.03862   0.01894   2.14292
   R11        2.12605  -0.00105  -0.01318   0.02117   0.00798   2.13403
   R12        1.82534  -0.00031   0.00557  -0.01031  -0.00474   1.82060
    A1        1.91355  -0.00893  -0.00772  -0.01268  -0.02046   1.89309
    A2        1.90272   0.00395   0.00817  -0.00057   0.00745   1.91016
    A3        1.90152   0.00429   0.00852   0.00315   0.01168   1.91320
    A4        1.92359   0.00026   0.00151  -0.00822  -0.00676   1.91682
    A5        1.92191   0.00107  -0.00325   0.00527   0.00204   1.92395
    A6        1.90026  -0.00048  -0.00704   0.01329   0.00627   1.90653
    A7        1.84670   0.00416   0.01806  -0.01408   0.00397   1.85067
    A8        2.02184  -0.01319  -0.01699  -0.01246  -0.02961   1.99222
    A9        1.91513   0.00228  -0.00174  -0.00664  -0.00862   1.90651
   A10        1.85454   0.00547   0.01072   0.00918   0.01987   1.87441
   A11        1.89056   0.00466   0.00385  -0.00384  -0.00023   1.89034
   A12        1.88914   0.00296   0.00948  -0.00060   0.00893   1.89808
   A13        1.88850  -0.00173  -0.00473   0.01689   0.01220   1.90070
   A14        2.02398  -0.01492  -0.01863  -0.01473  -0.03362   1.99036
   A15        1.89549   0.00383   0.00746   0.01123   0.01852   1.91400
   A16        1.92054   0.00304  -0.00656   0.00669  -0.00048   1.92005
   A17        1.80008   0.00579   0.02142  -0.00546   0.01614   1.81622
   A18        1.92381   0.00372   0.00809  -0.02446  -0.01655   1.90726
   A19        1.89255  -0.00065  -0.01036   0.03049   0.02014   1.91269
   A20        1.92483  -0.01275  -0.02907  -0.00109  -0.03016   1.89467
    D1       -3.00759  -0.00068   0.00316  -0.01819  -0.01503  -3.02262
    D2        1.16842   0.00203   0.00109   0.00001   0.00111   1.16952
    D3       -0.90322  -0.00217  -0.00038  -0.01752  -0.01791  -0.92113
    D4        1.04765  -0.00015  -0.00000   0.00000  -0.00000   1.04765
    D5       -1.09924   0.00156   0.00838   0.01977   0.02805  -1.07119
    D6       -3.13710  -0.00056   0.00896  -0.00178   0.00710  -3.13000
    D7       -3.14106  -0.00075   0.00612  -0.01384  -0.00761   3.13451
    D8        0.99524   0.00096   0.01449   0.00593   0.02044   1.01568
    D9       -1.04262  -0.00116   0.01508  -0.01562  -0.00051  -1.04313
   D10       -1.04431  -0.00051  -0.00369   0.00079  -0.00285  -1.04716
   D11        3.09199   0.00121   0.00469   0.02056   0.02520   3.11719
   D12        1.05413  -0.00091   0.00527  -0.00099   0.00426   1.05839
   D13       -1.37183   0.00311   0.05163   0.11659   0.16817  -1.20366
   D14        2.89534   0.00213   0.03103   0.12456   0.15566   3.05101
   D15        0.82625  -0.00115   0.04300   0.07697   0.11988   0.94613
   D16        0.78791   0.00035   0.04046   0.09570   0.13618   0.92409
   D17       -1.22810  -0.00063   0.01986   0.10367   0.12367  -1.10442
   D18        2.98599  -0.00390   0.03183   0.05609   0.08789   3.07388
   D19        2.83176   0.00242   0.04222   0.11330   0.15547   2.98722
   D20        0.81575   0.00144   0.02162   0.12127   0.14296   0.95870
   D21       -1.25335  -0.00183   0.03359   0.07368   0.10718  -1.14618
   D22        0.88059  -0.00205  -0.02749  -0.00948  -0.03667   0.84392
   D23        2.94979  -0.00131  -0.01431  -0.00719  -0.02119   2.92860
   D24       -1.31583   0.00258  -0.01078   0.01442   0.00303  -1.31280
         Item               Value     Threshold  Converged?
 Maximum Force            0.014920     0.000450     NO 
 RMS     Force            0.004864     0.000300     NO 
 Maximum Displacement     0.462750     0.001800     NO 
 RMS     Displacement     0.109388     0.001200     NO 
 Predicted change in Energy=-1.287240D-03
 GradGradGradGradGradGradGradGradGradGradGradGradGradGradGradGradGradGrad

                          Input orientation:                          
 ---------------------------------------------------------------------
 Center     Atomic      Atomic             Coordinates (Angstroms)
 Number     Number       Type             X           Y           Z
 ---------------------------------------------------------------------
      1          6           0        1.007476    2.059444    1.227688
      2          8           0        1.616447    3.197157    0.652262
      3          6           0        1.979824    0.903318    1.147413
      4          6           0        3.283181    1.140670    1.872826
      5          8           0        4.101180    2.113546    1.275861
      6          1           0        0.065231    1.808047    0.657031
      7          1           0        0.743560    2.274662    2.306826
      8          1           0        1.017377    3.932004    0.818322
      9          1           0        2.211193    0.686778    0.064696
     10          1           0        1.471880    0.003502    1.599535
     11          1           0        3.912195    0.197517    1.845792
     12          1           0        3.081244    1.430470    2.945446
     13          1           0        3.565412    2.892285    1.089603
 ---------------------------------------------------------------------
                    Distance matrix (angstroms):
                    1          2          3          4          5
     1  C    0.000000
     2  O    1.412923   0.000000
     3  C    1.512790   2.374640   0.000000
     4  C    2.537554   2.914948   1.510397   0.000000
     5  O    3.094551   2.781544   2.445669   1.404271   0.000000
     6  H    1.129901   2.082288   2.173632   3.504105   4.094528
     7  H    1.131596   2.085788   2.180177   2.814955   3.516028
     8  H    1.916809   0.962528   3.194924   3.746651   3.609151
     9  H    2.164647   2.645933   1.128139   2.150467   2.659819
    10  H    2.140289   3.334315   1.127869   2.156072   3.386777
    11  H    3.505170   3.961415   2.172543   1.133986   2.007909
    12  H    2.765287   3.244303   2.173461   1.129281   2.072287
    13  H    2.693645   2.020564   2.544291   1.939394   0.963418
                    6          7          8          9         10
     6  H    0.000000
     7  H    1.843823   0.000000
     8  H    2.333193   2.244416   0.000000
     9  H    2.492641   3.114879   3.539017   0.000000
    10  H    2.474542   2.487745   4.031127   1.835532   0.000000
    11  H    4.336599   3.816717   4.835499   2.510992   2.460370
    12  H    3.804700   2.566176   3.878385   3.099804   2.537275
    13  H    3.689710   3.134635   2.765337   2.783631   3.603882
                   11         12         13
    11  H    0.000000
    12  H    1.849295   0.000000
    13  H    2.820257   2.411529   0.000000
 Stoichiometry    C3H8O2
 Framework group  C1[X(C3H8O2)]
 Deg. of freedom    33
 Full point group                 C1      NOp   1
 Largest Abelian subgroup         C1      NOp   1
 Largest concise Abelian subgroup C1      NOp   1
                         Standard orientation:                         
 ---------------------------------------------------------------------
 Center     Atomic      Atomic             Coordinates (Angstroms)
 Number     Number       Type             X           Y           Z
 ---------------------------------------------------------------------
      1          6           0        1.274597    0.460183    0.186844
      2          8           0        1.305519   -0.920092   -0.113549
      3          6           0       -0.026438    1.033915   -0.329557
      4          6           0       -1.260904    0.406701    0.273763
      5          8           0       -1.476017   -0.924489   -0.118201
      6          1           0        2.146328    0.974127   -0.315773
      7          1           0        1.350156    0.607170    1.306306
      8          1           0        2.089536   -1.269489    0.321995
      9          1           0       -0.072659    0.901527   -1.448948
     10          1           0       -0.026741    2.136419   -0.091703
     11          1           0       -2.184419    0.954115   -0.091455
     12          1           0       -1.210058    0.459984    1.400640
     13          1           0       -0.651690   -1.411999   -0.013355
 ---------------------------------------------------------------------
 Rotational constants (GHZ):      7.7791988      3.9682115      2.9009803
 Standard basis: VSTO-6G (5D, 7F)
 There are    28 symmetry adapted cartesian basis functions of A   symmetry.
 There are    28 symmetry adapted basis functions of A   symmetry.
    28 basis functions,   168 primitive gaussians,    28 cartesian basis functions
    16 alpha electrons       16 beta electrons
       nuclear repulsion energy       140.7492627959 Hartrees.
 Integral buffers will be    131072 words long.
 Regular integral format.
 Two-electron integral symmetry is turned off.
 Do NDO integrals.
 One-electron integrals computed using PRISM.
 NBasis=    28 RedAO= F EigKep=  0.00D+00  NBF=    28
 NBsUse=    28 1.00D-04 EigRej=  0.00D+00 NBFU=    28
 Initial guess from the checkpoint file:  "1-3-propanediol-opt.chk"
 B after Tr=     0.000000   -0.000000   -0.000000
         Rot=    0.999856   -0.002099    0.005782   -0.015844 Ang=  -1.95 deg.
 Overlap will be assumed to be unity.
 Keep J ints in memory in canonical form, NReq=891302.
 Requested convergence on RMS density matrix=1.00D-08 within 128 cycles.
 Requested convergence on MAX density matrix=1.00D-06.
 Requested convergence on             energy=1.00D-06.
 No special actions if energy rises.
 SCF Done:  E(RAM1) = -0.185137661604     A.U. after   12 cycles
            NFock= 11  Conv=0.24D-08     -V/T= 0.9911
 Calling FoFJK, ICntrl=      2127 FMM=F ISym2X=0 I1Cent= 0 IOpClX= 0 NMat=1 NMatS=1 NMatT=0.
 ***** Axes restored to original set *****
 -------------------------------------------------------------------
 Center     Atomic                   Forces (Hartrees/Bohr)
 Number     Number              X              Y              Z
 -------------------------------------------------------------------
      1        6          -0.006110891   -0.003419421    0.006441501
      2        8          -0.002038169    0.004863060   -0.003032691
      3        6          -0.002370338   -0.007738406   -0.006330661
      4        6           0.002053243   -0.004954448    0.008646223
      5        8           0.007067936    0.001362539   -0.003609891
      6        1           0.002424253    0.000999196    0.002578375
      7        1           0.000185908   -0.001159254   -0.004141560
      8        1           0.000309186    0.002731376   -0.001110826
      9        1          -0.001882960    0.000500719    0.003498196
     10        1           0.002149558    0.002354394   -0.002910196
     11        1          -0.002994908    0.004119737    0.001664446
     12        1           0.000454290   -0.001460555   -0.002088275
     13        1           0.000752891    0.001801062    0.000395358
 -------------------------------------------------------------------
 Cartesian Forces:  Max     0.008646223 RMS     0.003638686

 GradGradGradGradGradGradGradGradGradGradGradGradGradGradGradGradGradGrad
 Berny optimization.
 Using GEDIIS/GDIIS optimizer.
 FormGI is forming the generalized inverse of G from B-inverse, IUseBI=4.
 Internal  Forces:  Max     0.008869837 RMS     0.003161215
 Search for a local minimum.
 Step number   3 out of a maximum of   66 on scan point     1 out of    37
 All quantities printed in internal units (Hartrees-Bohrs-Radians)
 Mixed Optimization -- RFO/linear search
 Update second derivatives using D2CorX and points    1    2    3
 DE= -7.75D-04 DEPred=-1.29D-03 R= 6.02D-01
 TightC=F SS=  1.41D+00  RLast= 4.21D-01 DXNew= 5.0454D-01 1.2633D+00
 Trust test= 6.02D-01 RLast= 4.21D-01 DXMaxT set to 5.05D-01
 ITU=  1  0  0
 Use linear search instead of GDIIS.
     Eigenvalues ---    0.00359   0.01220   0.01491   0.01734   0.04372
     Eigenvalues ---    0.04828   0.05117   0.05720   0.06129   0.08500
     Eigenvalues ---    0.11217   0.11619   0.11919   0.13493   0.14074
     Eigenvalues ---    0.16238   0.17037   0.22032   0.22113   0.26236
     Eigenvalues ---    0.29606   0.31622   0.33045   0.33536   0.33751
     Eigenvalues ---    0.33912   0.34065   0.39844   0.44267   0.52305
     Eigenvalues ---    0.53749   0.560401000.000001000.000001000.00000
     Eigenvalues --- 1000.000001000.000001000.000001000.000001000.00000
     Eigenvalues --- 1000.000001000.000001000.000001000.000001000.00000
     Eigenvalues --- 1000.000001000.000001000.000001000.000001000.00000
     Eigenvalues --- 1000.000001000.000001000.000001000.000001000.00000
     Eigenvalues --- 1000.00000
 RFO step:  Lambda=-4.11234749D-04 EMin= 3.59329026D-03
 Quartic linear search produced a step of -0.34833.
 Iteration  1 RMS(Cart)=  0.03454808 RMS(Int)=  0.00044722
 Iteration  2 RMS(Cart)=  0.00056705 RMS(Int)=  0.00004747
 Iteration  3 RMS(Cart)=  0.00000017 RMS(Int)=  0.00004747
 Iteration  1 RMS(Cart)=  0.00000338 RMS(Int)=  0.00000276
 Iteration  2 RMS(Cart)=  0.00000217 RMS(Int)=  0.00000306
 Iteration  3 RMS(Cart)=  0.00000140 RMS(Int)=  0.00000351
 Iteration  4 RMS(Cart)=  0.00000090 RMS(Int)=  0.00000387
 Variable       Old X    -DE/DX   Delta X   Delta X   Delta X     New X
                                 (Linear)    (Quad)   (Total)
    R1        2.67004   0.00706  -0.00004   0.01425   0.01421   2.68424
    R2        2.85876   0.00647   0.00740   0.00194   0.00934   2.86809
    R3        2.13520  -0.00355  -0.00486  -0.00443  -0.00930   2.12591
    R4        2.13841  -0.00421  -0.00478  -0.00567  -0.01045   2.12795
    R5        1.81891   0.00170   0.00059   0.00220   0.00279   1.82170
    R6        2.85424   0.00887   0.01144   0.00278   0.01422   2.86846
    R7        2.13187  -0.00384  -0.00413  -0.00637  -0.01050   2.12138
    R8        2.13136  -0.00401  -0.00454  -0.00556  -0.01010   2.12127
    R9        2.65369   0.00811   0.00452   0.00520   0.00972   2.66341
   R10        2.14292  -0.00513  -0.00660  -0.00594  -0.01253   2.13039
   R11        2.13403  -0.00244  -0.00278  -0.00461  -0.00740   2.12664
   R12        1.82060   0.00096   0.00165   0.00084   0.00249   1.82309
    A1        1.89309   0.00579   0.00713   0.00351   0.01063   1.90372
    A2        1.91016  -0.00276  -0.00259   0.00212  -0.00043   1.90973
    A3        1.91320  -0.00069  -0.00407   0.00630   0.00224   1.91544
    A4        1.91682  -0.00118   0.00235  -0.00478  -0.00243   1.91439
    A5        1.92395  -0.00101  -0.00071  -0.00195  -0.00270   1.92125
    A6        1.90653  -0.00015  -0.00218  -0.00507  -0.00726   1.89927
    A7        1.85067   0.00438  -0.00138   0.02057   0.01919   1.86986
    A8        1.99222   0.00567   0.01031  -0.00298   0.00736   1.99959
    A9        1.90651  -0.00136   0.00300  -0.00159   0.00146   1.90797
   A10        1.87441  -0.00210  -0.00692   0.00235  -0.00461   1.86980
   A11        1.89034  -0.00015   0.00008   0.00534   0.00554   1.89588
   A12        1.89808  -0.00246  -0.00311  -0.00029  -0.00346   1.89462
   A13        1.90070   0.00022  -0.00425  -0.00298  -0.00723   1.89347
   A14        1.99036   0.00659   0.01171  -0.00365   0.00812   1.99848
   A15        1.91400  -0.00149  -0.00645   0.00176  -0.00471   1.90929
   A16        1.92005  -0.00132   0.00017   0.00073   0.00107   1.92112
   A17        1.81622  -0.00291  -0.00562  -0.00068  -0.00639   1.80983
   A18        1.90726  -0.00087   0.00576   0.00242   0.00832   1.91559
   A19        1.91269  -0.00020  -0.00702  -0.00059  -0.00757   1.90512
   A20        1.89467   0.00233   0.01051  -0.01420  -0.00369   1.89098
    D1       -3.02262  -0.00067   0.00524  -0.01970  -0.01448  -3.03710
    D2        1.16952  -0.00108  -0.00039  -0.01725  -0.01767   1.15186
    D3       -0.92113   0.00122   0.00624  -0.01618  -0.00988  -0.93102
    D4        1.04765   0.00285   0.00000   0.00000  -0.00001   1.04764
    D5       -1.07119   0.00017  -0.00977  -0.00368  -0.01339  -1.08459
    D6       -3.13000   0.00183  -0.00247  -0.00059  -0.00303  -3.13302
    D7        3.13451   0.00230   0.00265   0.00188   0.00447   3.13899
    D8        1.01568  -0.00038  -0.00712  -0.00180  -0.00891   1.00677
    D9       -1.04313   0.00128   0.00018   0.00129   0.00145  -1.04167
   D10       -1.04716   0.00072   0.00099  -0.00870  -0.00773  -1.05489
   D11        3.11719  -0.00196  -0.00878  -0.01238  -0.02112   3.09607
   D12        1.05839  -0.00031  -0.00148  -0.00929  -0.01075   1.04763
   D13       -1.20366  -0.00293  -0.05858   0.00092  -0.05762  -1.26128
   D14        3.05101  -0.00234  -0.05422   0.00285  -0.05141   2.99960
   D15        0.94613  -0.00031  -0.04176   0.00200  -0.03977   0.90635
   D16        0.92409  -0.00099  -0.04744   0.00079  -0.04659   0.87750
   D17       -1.10442  -0.00040  -0.04308   0.00273  -0.04038  -1.14480
   D18        3.07388   0.00163  -0.03061   0.00187  -0.02874   3.04514
   D19        2.98722  -0.00218  -0.05415   0.00007  -0.05404   2.93318
   D20        0.95870  -0.00159  -0.04980   0.00200  -0.04783   0.91088
   D21       -1.14618   0.00044  -0.03733   0.00115  -0.03619  -1.18237
   D22        0.84392   0.00151   0.01277   0.01971   0.03241   0.87633
   D23        2.92860   0.00134   0.00738   0.01945   0.02682   2.95543
   D24       -1.31280  -0.00081  -0.00105   0.01952   0.01855  -1.29425
         Item               Value     Threshold  Converged?
 Maximum Force            0.008870     0.000450     NO 
 RMS     Force            0.003124     0.000300     NO 
 Maximum Displacement     0.138899     0.001800     NO 
 RMS     Displacement     0.034694     0.001200     NO 
 Predicted change in Energy=-9.010584D-04
 GradGradGradGradGradGradGradGradGradGradGradGradGradGradGradGradGradGrad

                          Input orientation:                          
 ---------------------------------------------------------------------
 Center     Atomic      Atomic             Coordinates (Angstroms)
 Number     Number       Type             X           Y           Z
 ---------------------------------------------------------------------
      1          6           0        0.993618    2.057207    1.229536
      2          8           0        1.583548    3.221919    0.670000
      3          6           0        1.982491    0.909206    1.141645
      4          6           0        3.289279    1.144171    1.877299
      5          8           0        4.146757    2.078264    1.261954
      6          1           0        0.060619    1.798419    0.656712
      7          1           0        0.718463    2.249003    2.304489
      8          1           0        0.973424    3.951939    0.825307
      9          1           0        2.211186    0.697791    0.063128
     10          1           0        1.481509    0.006741    1.582824
     11          1           0        3.892234    0.191627    1.882907
     12          1           0        3.084157    1.457615    2.938492
     13          1           0        3.638914    2.875498    1.069007
 ---------------------------------------------------------------------
                    Distance matrix (angstroms):
                    1          2          3          4          5
     1  C    0.000000
     2  O    1.420441   0.000000
     3  C    1.517730   2.393793   0.000000
     4  C    2.554074   2.946885   1.517924   0.000000
     5  O    3.153376   2.868518   2.462767   1.409414   0.000000
     6  H    1.124982   2.084668   2.172431   3.513136   4.140188
     7  H    1.126064   2.089615   2.178309   2.830591   3.587372
     8  H    1.937477   0.964003   3.221260   3.788593   3.710978
     9  H    2.165870   2.670851   1.122584   2.157025   2.662578
    10  H    2.137115   3.343804   1.122525   2.156037   3.390827
    11  H    3.508456   3.997980   2.170601   1.127353   2.002439
    12  H    2.765935   3.242014   2.177862   1.125368   2.079689
    13  H    2.773619   2.122203   2.572026   1.942440   0.964735
                    6          7          8          9         10
     6  H    0.000000
     7  H    1.830560   0.000000
     8  H    2.345056   2.270017   0.000000
     9  H    2.487703   3.107761   3.564050   0.000000
    10  H    2.467128   2.476041   4.049268   1.821937   0.000000
    11  H    4.332045   3.805700   4.876260   2.528580   2.436355
    12  H    3.803216   2.573862   3.891323   3.099537   2.551734
    13  H    3.759559   3.232329   2.884953   2.791524   3.626040
                   11         12         13
    11  H    0.000000
    12  H    1.835749   0.000000
    13  H    2.815984   2.411042   0.000000
 Stoichiometry    C3H8O2
 Framework group  C1[X(C3H8O2)]
 Deg. of freedom    33
 Full point group                 C1      NOp   1
 Largest Abelian subgroup         C1      NOp   1
 Largest concise Abelian subgroup C1      NOp   1
                         Standard orientation:                         
 ---------------------------------------------------------------------
 Center     Atomic      Atomic             Coordinates (Angstroms)
 Number     Number       Type             X           Y           Z
 ---------------------------------------------------------------------
      1          6           0        1.292465    0.460192    0.175038
      2          8           0        1.335380   -0.932997   -0.098518
      3          6           0       -0.020196    1.025704   -0.335474
      4          6           0       -1.258506    0.410308    0.290599
      5          8           0       -1.532853   -0.906811   -0.129379
      6          1           0        2.151500    0.969673   -0.342720
      7          1           0        1.382627    0.633100    1.284088
      8          1           0        2.131989   -1.280009    0.318972
      9          1           0       -0.075553    0.889265   -1.448360
     10          1           0       -0.015752    2.125646   -0.111483
     11          1           0       -2.169522    0.989347   -0.034502
     12          1           0       -1.181002    0.443362    1.412808
     13          1           0       -0.727081   -1.429149   -0.036598
 ---------------------------------------------------------------------
 Rotational constants (GHZ):      7.7932026      3.8235575      2.8277417
 Standard basis: VSTO-6G (5D, 7F)
 There are    28 symmetry adapted cartesian basis functions of A   symmetry.
 There are    28 symmetry adapted basis functions of A   symmetry.
    28 basis functions,   168 primitive gaussians,    28 cartesian basis functions
    16 alpha electrons       16 beta electrons
       nuclear repulsion energy       140.1444076496 Hartrees.
 Integral buffers will be    131072 words long.
 Regular integral format.
 Two-electron integral symmetry is turned off.
 Do NDO integrals.
 One-electron integrals computed using PRISM.
 NBasis=    28 RedAO= F EigKep=  0.00D+00  NBF=    28
 NBsUse=    28 1.00D-04 EigRej=  0.00D+00 NBFU=    28
 Initial guess from the checkpoint file:  "1-3-propanediol-opt.chk"
 B after Tr=    -0.000000   -0.000000    0.000000
         Rot=    0.999990    0.001002   -0.001839    0.004043 Ang=   0.52 deg.
 Overlap will be assumed to be unity.
 Keep J ints in memory in canonical form, NReq=891302.
 Requested convergence on RMS density matrix=1.00D-08 within 128 cycles.
 Requested convergence on MAX density matrix=1.00D-06.
 Requested convergence on             energy=1.00D-06.
 No special actions if energy rises.
 SCF Done:  E(RAM1) = -0.185860353460     A.U. after   11 cycles
            NFock= 10  Conv=0.54D-08     -V/T= 0.9911
 Calling FoFJK, ICntrl=      2127 FMM=F ISym2X=0 I1Cent= 0 IOpClX= 0 NMat=1 NMatS=1 NMatT=0.
 ***** Axes restored to original set *****
 -------------------------------------------------------------------
 Center     Atomic                   Forces (Hartrees/Bohr)
 Number     Number              X              Y              Z
 -------------------------------------------------------------------
      1        6          -0.000164444    0.001208089    0.003306045
      2        8           0.000724688   -0.002174337   -0.000271502
      3        6           0.001263444    0.000919723   -0.003573687
      4        6          -0.000707942   -0.001559312    0.003041537
      5        8           0.000441366   -0.000277748   -0.001784860
      6        1           0.000489312    0.000513898    0.000385725
      7        1           0.000311124    0.000223468   -0.001196364
      8        1          -0.000426348   -0.000913368    0.000110545
      9        1          -0.000444805    0.000715502    0.000553216
     10        1           0.000665719   -0.000075926   -0.000879940
     11        1          -0.000863137    0.000403932    0.001116359
     12        1          -0.000097970    0.000420148   -0.000913723
     13        1          -0.001191006    0.000595930    0.000106650
 -------------------------------------------------------------------
 Cartesian Forces:  Max     0.003573687 RMS     0.001230550

 GradGradGradGradGradGradGradGradGradGradGradGradGradGradGradGradGradGrad
 Berny optimization.
 Using GEDIIS/GDIIS optimizer.
 FormGI is forming the generalized inverse of G from B-inverse, IUseBI=4.
 Internal  Forces:  Max     0.003879871 RMS     0.001156816
 Search for a local minimum.
 Step number   4 out of a maximum of   66 on scan point     1 out of    37
 All quantities printed in internal units (Hartrees-Bohrs-Radians)
 Mixed Optimization -- RFO/linear search
 Update second derivatives using D2CorX and points    1    2    3    4
 DE= -7.23D-04 DEPred=-9.01D-04 R= 8.02D-01
 TightC=F SS=  1.41D+00  RLast= 1.57D-01 DXNew= 8.4853D-01 4.7005D-01
 Trust test= 8.02D-01 RLast= 1.57D-01 DXMaxT set to 5.05D-01
 ITU=  1  1  0  0
 Use linear search instead of GDIIS.
     Eigenvalues ---    0.00371   0.01166   0.01462   0.01713   0.04320
     Eigenvalues ---    0.04786   0.05114   0.05822   0.06193   0.08567
     Eigenvalues ---    0.11325   0.11699   0.11961   0.13543   0.14088
     Eigenvalues ---    0.16444   0.18176   0.21963   0.22102   0.24197
     Eigenvalues ---    0.29610   0.30051   0.33054   0.33509   0.33736
     Eigenvalues ---    0.33910   0.34062   0.39993   0.46372   0.52378
     Eigenvalues ---    0.53845   0.689481000.000001000.000001000.00000
     Eigenvalues --- 1000.000001000.000001000.000001000.000001000.00000
     Eigenvalues --- 1000.000001000.000001000.000001000.000001000.00000
     Eigenvalues --- 1000.000001000.000001000.000001000.000001000.00000
     Eigenvalues --- 1000.000001000.000001000.000001000.000001000.00000
     Eigenvalues --- 1000.00000
 RFO step:  Lambda=-7.29642420D-04 EMin= 3.70529406D-03
 Quartic linear search produced a step of -0.00661.
 Iteration  1 RMS(Cart)=  0.06335152 RMS(Int)=  0.00194113
 Iteration  2 RMS(Cart)=  0.00261141 RMS(Int)=  0.00001996
 Iteration  3 RMS(Cart)=  0.00000358 RMS(Int)=  0.00001987
 Iteration  4 RMS(Cart)=  0.00000000 RMS(Int)=  0.00001987
 Iteration  1 RMS(Cart)=  0.00000080 RMS(Int)=  0.00000065
 Variable       Old X    -DE/DX   Delta X   Delta X   Delta X     New X
                                 (Linear)    (Quad)   (Total)
    R1        2.68424  -0.00234  -0.00009  -0.00203  -0.00212   2.68212
    R2        2.86809  -0.00134  -0.00006  -0.00202  -0.00208   2.86601
    R3        2.12591  -0.00072   0.00006  -0.00547  -0.00541   2.12050
    R4        2.12795  -0.00118   0.00007  -0.00688  -0.00681   2.12114
    R5        1.82170  -0.00040  -0.00002   0.00013   0.00011   1.82182
    R6        2.86846  -0.00139  -0.00009  -0.00072  -0.00081   2.86765
    R7        2.12138  -0.00076   0.00007  -0.00579  -0.00572   2.11565
    R8        2.12127  -0.00058   0.00007  -0.00513  -0.00507   2.11620
    R9        2.66341   0.00049  -0.00006   0.00310   0.00304   2.66645
   R10        2.13039  -0.00080   0.00008  -0.00672  -0.00664   2.12375
   R11        2.12664  -0.00073   0.00005  -0.00474  -0.00470   2.12194
   R12        1.82309   0.00110  -0.00002   0.00308   0.00307   1.82615
    A1        1.90372  -0.00272  -0.00007  -0.01130  -0.01136   1.89236
    A2        1.90973   0.00035   0.00000   0.00098   0.00100   1.91073
    A3        1.91544   0.00085  -0.00001   0.00006   0.00006   1.91550
    A4        1.91439   0.00082   0.00002   0.00519   0.00519   1.91958
    A5        1.92125   0.00109   0.00002   0.00488   0.00488   1.92612
    A6        1.89927  -0.00037   0.00005   0.00025   0.00027   1.89955
    A7        1.86986  -0.00162  -0.00013  -0.00549  -0.00562   1.86424
    A8        1.99959  -0.00367  -0.00005  -0.01603  -0.01607   1.98352
    A9        1.90797   0.00087  -0.00001   0.00187   0.00186   1.90983
   A10        1.86980   0.00127   0.00003   0.00556   0.00560   1.87539
   A11        1.89588   0.00159  -0.00004   0.00595   0.00589   1.90177
   A12        1.89462   0.00067   0.00002   0.00436   0.00439   1.89901
   A13        1.89347  -0.00066   0.00005  -0.00120  -0.00118   1.89229
   A14        1.99848  -0.00388  -0.00005  -0.01658  -0.01664   1.98184
   A15        1.90929   0.00103   0.00003   0.00665   0.00673   1.91602
   A16        1.92112   0.00062  -0.00001  -0.00151  -0.00155   1.91957
   A17        1.80983   0.00152   0.00004   0.01069   0.01077   1.82060
   A18        1.91559   0.00131  -0.00005   0.00386   0.00373   1.91932
   A19        1.90512  -0.00047   0.00005  -0.00203  -0.00200   1.90313
   A20        1.89098  -0.00139   0.00002  -0.01010  -0.01007   1.88091
    D1       -3.03710  -0.00036   0.00010  -0.01137  -0.01128  -3.04838
    D2        1.15186   0.00008   0.00012  -0.01144  -0.01133   1.14053
    D3       -0.93102  -0.00019   0.00007  -0.01238  -0.01230  -0.94332
    D4        1.04764   0.00073   0.00000   0.00000   0.00001   1.04765
    D5       -1.08459   0.00057   0.00009   0.00207   0.00215  -1.08243
    D6       -3.13302   0.00019   0.00002  -0.00057  -0.00056  -3.13358
    D7        3.13899  -0.00001  -0.00003  -0.00257  -0.00260   3.13639
    D8        1.00677  -0.00016   0.00006  -0.00050  -0.00046   1.00631
    D9       -1.04167  -0.00055  -0.00001  -0.00314  -0.00317  -1.04484
   D10       -1.05489   0.00072   0.00005   0.00401   0.00408  -1.05081
   D11        3.09607   0.00057   0.00014   0.00608   0.00622   3.10229
   D12        1.04763   0.00018   0.00007   0.00343   0.00351   1.05114
   D13       -1.26128  -0.00012   0.00038  -0.11125  -0.11089  -1.37217
   D14        2.99960  -0.00035   0.00034  -0.11905  -0.11869   2.88091
   D15        0.90635  -0.00079   0.00026  -0.11977  -0.11948   0.78687
   D16        0.87750  -0.00032   0.00031  -0.11540  -0.11513   0.76237
   D17       -1.14480  -0.00055   0.00027  -0.12320  -0.12294  -1.26774
   D18        3.04514  -0.00100   0.00019  -0.12392  -0.12372   2.92141
   D19        2.93318   0.00016   0.00036  -0.11109  -0.11076   2.82242
   D20        0.91088  -0.00008   0.00032  -0.11889  -0.11856   0.79231
   D21       -1.18237  -0.00052   0.00024  -0.11962  -0.11935  -1.30172
   D22        0.87633  -0.00039  -0.00021  -0.00202  -0.00222   0.87411
   D23        2.95543  -0.00020  -0.00018   0.00429   0.00408   2.95950
   D24       -1.29425   0.00064  -0.00012   0.00928   0.00918  -1.28507
         Item               Value     Threshold  Converged?
 Maximum Force            0.003880     0.000450     NO 
 RMS     Force            0.001156     0.000300     NO 
 Maximum Displacement     0.199094     0.001800     NO 
 RMS     Displacement     0.063257     0.001200     NO 
 Predicted change in Energy=-4.134969D-04
 GradGradGradGradGradGradGradGradGradGradGradGradGradGradGradGradGradGrad

                          Input orientation:                          
 ---------------------------------------------------------------------
 Center     Atomic      Atomic             Coordinates (Angstroms)
 Number     Number       Type             X           Y           Z
 ---------------------------------------------------------------------
      1          6           0        0.988658    2.046245    1.241907
      2          8           0        1.583167    3.227791    0.727151
      3          6           0        1.991416    0.914547    1.124022
      4          6           0        3.279050    1.160138    1.888527
      5          8           0        4.171033    2.029786    1.225909
      6          1           0        0.065750    1.803925    0.651417
      7          1           0        0.701189    2.203011    2.315544
      8          1           0        0.961778    3.946561    0.890436
      9          1           0        2.235855    0.744569    0.044781
     10          1           0        1.503522   -0.009734    1.526162
     11          1           0        3.851514    0.198184    1.988263
     12          1           0        3.047289    1.556447    2.913267
     13          1           0        3.675979    2.817930    0.965912
 ---------------------------------------------------------------------
                    Distance matrix (angstroms):
                    1          2          3          4          5
     1  C    0.000000
     2  O    1.419319   0.000000
     3  C    1.516629   2.382283   0.000000
     4  C    2.539528   2.915476   1.517493   0.000000
     5  O    3.182458   2.895000   2.450483   1.411022   0.000000
     6  H    1.122121   2.082230   2.173141   3.502885   4.151433
     7  H    1.122457   2.085918   2.178199   2.813414   3.641034
     8  H    1.932733   0.964063   3.210581   3.759001   3.753117
     9  H    2.164017   2.656693   1.119555   2.158785   2.606100
    10  H    2.138442   3.335615   1.119844   2.156944   3.371261
    11  H    3.488312   3.989275   2.172568   1.123840   2.009487
    12  H    2.696536   3.117073   2.174466   1.122883   2.081832
    13  H    2.809514   2.145893   2.546688   1.938310   0.966358
                    6          7          8          9         10
     6  H    0.000000
     7  H    1.825478   0.000000
     8  H    2.334713   2.266894   0.000000
     9  H    2.489899   3.104612   3.548402   0.000000
    10  H    2.474212   2.482559   4.043501   1.816528   0.000000
    11  H    4.324069   3.748466   4.858614   2.585732   2.402048
    12  H    3.750572   2.505894   3.762160   3.089625   2.600038
    13  H    3.763093   3.324005   2.940475   2.687241   3.609589
                   11         12         13
    11  H    0.000000
    12  H    1.829560   0.000000
    13  H    2.817637   2.403909   0.000000
 Stoichiometry    C3H8O2
 Framework group  C1[X(C3H8O2)]
 Deg. of freedom    33
 Full point group                 C1      NOp   1
 Largest Abelian subgroup         C1      NOp   1
 Largest concise Abelian subgroup C1      NOp   1
                         Standard orientation:                         
 ---------------------------------------------------------------------
 Center     Atomic      Atomic             Coordinates (Angstroms)
 Number     Number       Type             X           Y           Z
 ---------------------------------------------------------------------
      1          6           0        1.304989    0.454894    0.154708
      2          8           0        1.319763   -0.946038   -0.072530
      3          6           0       -0.012139    1.009054   -0.353468
      4          6           0       -1.228058    0.412552    0.331012
      5          8           0       -1.573200   -0.868725   -0.148766
      6          1           0        2.159248    0.932055   -0.394579
      7          1           0        1.418590    0.662385    1.251956
      8          1           0        2.125332   -1.285936    0.333603
      9          1           0       -0.090856    0.830103   -1.455822
     10          1           0       -0.002968    2.114416   -0.174186
     11          1           0       -2.133177    1.042957    0.115685
     12          1           0       -1.063554    0.374852    1.441140
     13          1           0       -0.773871   -1.411734   -0.140939
 ---------------------------------------------------------------------
 Rotational constants (GHZ):      7.8881078      3.7927423      2.8392441
 Standard basis: VSTO-6G (5D, 7F)
 There are    28 symmetry adapted cartesian basis functions of A   symmetry.
 There are    28 symmetry adapted basis functions of A   symmetry.
    28 basis functions,   168 primitive gaussians,    28 cartesian basis functions
    16 alpha electrons       16 beta electrons
       nuclear repulsion energy       140.2442577007 Hartrees.
 Integral buffers will be    131072 words long.
 Regular integral format.
 Two-electron integral symmetry is turned off.
 Do NDO integrals.
 One-electron integrals computed using PRISM.
 NBasis=    28 RedAO= F EigKep=  0.00D+00  NBF=    28
 NBsUse=    28 1.00D-04 EigRej=  0.00D+00 NBFU=    28
 Initial guess from the checkpoint file:  "1-3-propanediol-opt.chk"
 B after Tr=    -0.000000   -0.000000    0.000000
         Rot=    0.999963    0.000958   -0.004385    0.007402 Ang=   0.99 deg.
 Overlap will be assumed to be unity.
 Keep J ints in memory in canonical form, NReq=891302.
 Requested convergence on RMS density matrix=1.00D-08 within 128 cycles.
 Requested convergence on MAX density matrix=1.00D-06.
 Requested convergence on             energy=1.00D-06.
 No special actions if energy rises.
 SCF Done:  E(RAM1) = -0.186352660334     A.U. after   12 cycles
            NFock= 11  Conv=0.15D-08     -V/T= 0.9911
 Calling FoFJK, ICntrl=      2127 FMM=F ISym2X=0 I1Cent= 0 IOpClX= 0 NMat=1 NMatS=1 NMatT=0.
 ***** Axes restored to original set *****
 -------------------------------------------------------------------
 Center     Atomic                   Forces (Hartrees/Bohr)
 Number     Number              X              Y              Z
 -------------------------------------------------------------------
      1        6           0.000606888    0.000770526    0.001559331
      2        8           0.000205168    0.000171020   -0.000599092
      3        6           0.000425392   -0.000207238   -0.001524098
      4        6          -0.000481803   -0.000481355    0.001382304
      5        8          -0.000442900   -0.000130649   -0.000828022
      6        1          -0.001009504   -0.000149167   -0.000559555
      7        1          -0.000237359    0.000277630    0.001064584
      8        1           0.000168493   -0.000177906   -0.000274880
      9        1           0.000263388    0.000271417   -0.001179284
     10        1          -0.000279898   -0.001187963   -0.000174746
     11        1           0.000648824   -0.000444693    0.000384407
     12        1           0.000125310    0.001038874    0.000474763
     13        1           0.000008001    0.000249504    0.000274288
 -------------------------------------------------------------------
 Cartesian Forces:  Max     0.001559331 RMS     0.000673284

 GradGradGradGradGradGradGradGradGradGradGradGradGradGradGradGradGradGrad
 Berny optimization.
 Using GEDIIS/GDIIS optimizer.
 FormGI is forming the generalized inverse of G from B-inverse, IUseBI=4.
 GSVD:  received Info=                   1 from GESDD.
 Internal  Forces:  Max     0.002130715 RMS     0.000630024
 Search for a local minimum.
 Step number   5 out of a maximum of   66 on scan point     1 out of    37
 All quantities printed in internal units (Hartrees-Bohrs-Radians)
 Mixed Optimization -- En-DIIS/RFO-DIIS
 Update second derivatives using D2CorX and points    1    2    3    4    5
 DE= -4.92D-04 DEPred=-4.13D-04 R= 1.19D+00
 TightC=F SS=  1.41D+00  RLast= 3.56D-01 DXNew= 8.4853D-01 1.0685D+00
 Trust test= 1.19D+00 RLast= 3.56D-01 DXMaxT set to 8.49D-01
 ITU=  1  1  1  0  0
 Use linear search instead of GDIIS.
     Eigenvalues ---    0.00258   0.01060   0.01407   0.01786   0.04412
     Eigenvalues ---    0.04832   0.05142   0.05857   0.06201   0.08422
     Eigenvalues ---    0.11276   0.11606   0.11929   0.13473   0.14045
     Eigenvalues ---    0.16536   0.18670   0.21757   0.22175   0.24534
     Eigenvalues ---    0.29586   0.33032   0.33392   0.33737   0.33873
     Eigenvalues ---    0.33930   0.35837   0.39541   0.48835   0.52813
     Eigenvalues ---    0.54761   0.650811000.000001000.000001000.00000
     Eigenvalues --- 1000.000001000.000001000.000001000.000001000.00000
     Eigenvalues --- 1000.000001000.000001000.000001000.000001000.00000
     Eigenvalues --- 1000.000001000.000001000.000001000.000001000.00000
     Eigenvalues --- 1000.000001000.000001000.000001000.000001000.00000
     Eigenvalues --- 1000.00000
 RFO step:  Lambda=-2.03544889D-04 EMin= 2.58491819D-03
 Quartic linear search produced a step of  0.46076.
 Iteration  1 RMS(Cart)=  0.04392234 RMS(Int)=  0.00102287
 Iteration  2 RMS(Cart)=  0.00131395 RMS(Int)=  0.00003841
 Iteration  3 RMS(Cart)=  0.00000107 RMS(Int)=  0.00003840
 Iteration  4 RMS(Cart)=  0.00000000 RMS(Int)=  0.00003840
 Iteration  1 RMS(Cart)=  0.00000634 RMS(Int)=  0.00000508
 Iteration  2 RMS(Cart)=  0.00000408 RMS(Int)=  0.00000564
 Iteration  3 RMS(Cart)=  0.00000263 RMS(Int)=  0.00000647
 Iteration  4 RMS(Cart)=  0.00000169 RMS(Int)=  0.00000714
 Iteration  5 RMS(Cart)=  0.00000109 RMS(Int)=  0.00000761
 Iteration  6 RMS(Cart)=  0.00000070 RMS(Int)=  0.00000793
 Variable       Old X    -DE/DX   Delta X   Delta X   Delta X     New X
                                 (Linear)    (Quad)   (Total)
[...]
           A5         110.10910 110.30359 110.38984 110.42872 110.44289
           A6         108.82942 108.88540 108.76851 108.58263 108.41454
           A7         106.71666 106.71475 106.69344 106.68630 106.68932
           A8         112.67215 112.77837 113.21705 113.74666 114.18013
           A9         107.77205 107.89226 108.05280 108.24735 108.44741
           A10        109.63385 109.63485 109.49830 109.29019 109.05752
           A11        109.89721 109.93295 109.76311 109.44963 109.06122
           A12        108.45908 108.32679 108.15399 108.06136 108.12158
           A13        108.32127 108.18134 108.03744 107.89542 107.79438
           A14        112.53334 112.39517 112.30055 112.27182 112.25332
           A15        110.30786 110.29575 110.18086 110.04219 109.92970
           A16        109.62395 109.68820 109.82809 109.97061 110.10887
           A17        104.64807 104.68161 104.65739 104.60032 104.53313
           A18        109.99997 110.02748 110.11173 110.19582 110.26753
           A19        109.61185 109.63730 109.63868 109.62462 109.59969
           A20        106.73758 106.77689 106.84839 106.94342 107.05093
           D1        -171.46700-172.26520-173.94733-176.44247-179.41851
           D2          68.38478  67.87497  66.11911  63.34871  60.03400
           D3         -51.16013 -51.56380 -53.01023 -55.42740 -58.45799
           D4         -49.97450 -39.97461 -29.97454 -19.97460  -9.97454
           D5        -171.38829-161.58340-151.76339-141.85089-131.78794
           D6          70.91298  80.81596  90.79181 100.87862 111.07821
           D7          69.42500  79.07822  89.09839  99.38266 109.80453
           D8         -51.98879 -42.53057 -32.69046 -22.49363 -12.00887
           D9        -169.68752-160.13121-150.13525-139.76413-129.14272
           D10       -170.35623-160.64202-150.73814-140.62813-130.35906
           D11         68.22998  77.74919  87.47301  97.49557 107.82753
           D12        -49.46876 -39.85145 -29.97179 -19.77492  -9.30632
           D13        -48.19316 -49.93415 -54.70576 -59.95944 -65.27096
           D14       -164.64643-166.33592-170.94561-176.02273 178.83127
           D15         74.56236  72.80760  68.17947  63.11702  57.98554
           D16         72.00479  70.51219  66.11978  61.24818  56.20427
           D17        -44.44848 -45.88959 -50.12007 -54.81511 -59.69351
           D18       -165.23969-166.74607-170.99500-175.67535 179.46076
           D19       -169.74975-171.46874-176.23055 178.50139 173.15879
           D20         73.79698  72.12949  67.52960  62.43810  57.26101
           D21        -46.99423 -48.72699 -53.34532 -58.42215 -63.58472
           D22         69.11955  68.16794  67.32239  66.85206  66.66506
           D23       -171.09078-172.11034-173.16015-173.84792-174.22116
           D24        -53.42456 -54.38255 -55.40294 -56.09767 -56.50232
                          31        32        33        34        35
     Eigenvalues --    -0.18358  -0.18382  -0.18431  -0.18496  -0.18563
           R1           1.42024   1.42013   1.42007   1.41998   1.41990
           R2           1.52199   1.52171   1.52102   1.52012   1.51927
           R3           1.12396   1.12355   1.12315   1.12292   1.12290
           R4           1.12394   1.12437   1.12463   1.12467   1.12452
           R5           0.96375   0.96368   0.96359   0.96352   0.96351
           R6           1.51988   1.52002   1.52015   1.52023   1.52021
           R7           1.12145   1.12171   1.12183   1.12176   1.12160
           R8           1.12077   1.12055   1.12031   1.12013   1.12001
           R9           1.41282   1.41272   1.41265   1.41252   1.41236
           R10          1.12397   1.12404   1.12399   1.12393   1.12387
           R11          1.12265   1.12255   1.12255   1.12268   1.12292
           R12          0.96606   0.96599   0.96597   0.96603   0.96617
           A1         109.15171 109.09989 108.93190 108.66190 108.34543
           A2         109.34841 109.66094 109.90468 110.04935 110.04048
           A3         109.16013 108.89110 108.77158 108.80918 109.01738
           A4         110.35374 110.36110 110.34340 110.32242 110.30248
           A5         110.45524 110.43844 110.40377 110.37896 110.37945
           A6         108.34791 108.36630 108.46508 108.60219 108.74202
           A7         106.71120 106.75026 106.80055 106.84274 106.86676
           A8         114.35889 114.28746 113.97891 113.53725 113.09127
           A9         108.68030 108.89108 109.07179 109.21703 109.30485
           A10        108.81452 108.57786 108.37637 108.20777 108.09666
           A11        108.69227 108.42544 108.33310 108.38181 108.53483
           A12        108.35289 108.70722 109.06993 109.37754 109.55814
           A13        107.75044 107.76498 107.84477 107.98191 108.14359
           A14        112.21769 112.17904 112.15174 112.17214 112.25080
           A15        109.88856 109.92717 110.02672 110.16397 110.28791
           A16        110.21008 110.26123 110.25475 110.21136 110.16775
           A17        104.46121 104.39905 104.35740 104.33342 104.32360
           A18        110.31377 110.32042 110.28759 110.22679 110.13656
           A19        109.59111 109.59054 109.59981 109.57235 109.51351
           A20        107.16836 107.26897 107.34003 107.39058 107.43240
           D1         177.68204 175.18511 173.73096 173.79954 175.75309
           D2          56.87271  54.20634  52.72857  52.90353  55.08440
           D3         -61.49978 -64.21228 -65.88097 -65.98026 -64.09106
           D4           0.02556  10.02555  20.02565  30.02561  40.02561
           D5        -121.60511-111.36860-101.17396 -91.04507 -81.00551
           D6         121.31803 131.55179 141.66393 151.64376 161.50458
           D7         120.21875 130.57596 140.75909 150.75328 160.53147
           D8          -1.41192   9.18181  19.55948  29.68261  39.50035
           D9        -118.48879-107.89780 -97.60263 -87.62856 -77.98955
           D10       -119.99819-109.62413 -99.35163 -89.21612 -79.27627
           D11        118.37114 128.98172 139.44876 149.71320 159.69260
           D12          1.29428  11.90211  22.28665  32.40203  42.20270
           D13        -70.42686 -75.30544 -79.68652 -83.13857 -85.19250
           D14        173.81153 169.00863 164.63293 161.11202 158.94422
           D15         52.93806  48.07804  43.63041  40.08267  37.93610
           D16         51.19723  46.34507  41.92270  38.39966  36.27360
           D17        -64.56437 -69.34087 -73.75785 -77.34975 -79.58968
           D18        174.56215 169.72855 165.23963 161.62090 159.40220
           D19        168.02659 163.23957 159.05961 155.89822 154.15574
           D20         52.26499  47.55364  43.37906  40.14881  38.29246
           D21        -68.60849 -73.37695 -77.62346 -80.88053 -82.71566
           D22         66.33184  65.69407  64.62843  63.13583  61.09069
           D23       -174.66636-175.31582-176.30169-177.63379-179.49513
           D24        -56.97489 -57.65618 -58.67004 -60.07674 -62.05544
                          36        37
     Eigenvalues --    -0.18618  -0.18654
           R1           1.41989   1.42005
           R2           1.51864   1.51841
           R3           1.12308   1.12333
           R4           1.12425   1.12391
           R5           0.96355   0.96362
           R6           1.51999   1.51960
           R7           1.12147   1.12141
           R8           1.12000   1.12003
           R9           1.41220   1.41222
           R10          1.12387   1.12390
           R11          1.12327   1.12369
           R12          0.96639   0.96670
           A1         108.07622 107.84349
           A2         109.90432 109.73172
           A3         109.31662 109.58954
           A4         110.26173 110.20115
           A5         110.43730 110.59288
           A6         108.83291 108.87000
           A7         106.87455 106.88084
           A8         112.78357 112.60530
           A9         109.32369 109.29050
           A10        108.04335 108.06770
           A11        108.71922 108.90251
           A12        109.58348 109.46910
           A13        108.29278 108.42070
           A14        112.38481 112.53296
           A15        110.36328 110.39509
           A16        110.17493 110.24027
           A17        104.33167 104.37302
           A18        110.02323 109.87193
           A19        109.39568 109.24870
           A20        107.47271 107.50591
           D1         178.53418-179.61400
           D2          58.16215  60.32942
           D3         -61.22544 -59.16584
           D4          50.02554  60.02539
           D5         -71.04926 -61.14098
           D6         171.30242-178.93762
           D7         170.17359 179.78549
           D8          49.09879  58.61911
           D9         -68.54953 -59.17753
           D10        -69.50988 -59.79047
           D11        169.41532 179.04316
           D12         51.76700  61.24652
           D13        -85.20296 -83.11190
           D14        158.79382 160.72170
           D15         37.87917  39.92737
           D16         36.21530  38.27560
           D17        -79.78791 -77.89079
           D18        159.29743 161.31488
           D19        154.39909 156.65526
           D20         38.39587  40.48886
           D21        -82.51878 -80.30547
           D22         58.27039  54.44276
           D23        177.85056 174.16544
           D24        -64.89682 -68.80246
                          Input orientation:                          
 ---------------------------------------------------------------------
 Center     Atomic      Atomic             Coordinates (Angstroms)
 Number     Number       Type             X           Y           Z
 ---------------------------------------------------------------------
      1          6           0        1.395633    2.402283    0.672547
      2          8           0        1.373702    3.142085    1.884473
      3          6           0        2.670466    1.577657    0.653829
      4          6           0        2.755421    0.606992    1.819929
      5          8           0        3.242688    1.216457    2.996991
      6          1           0        1.376459    3.106754   -0.202218
      7          1           0        0.492536    1.735179    0.621890
      8          1           0        0.557698    3.654625    1.884706
      9          1           0        3.556397    2.264352    0.687470
     10          1           0        2.701133    1.007319   -0.309630
     11          1           0        3.498538   -0.206690    1.598886
     12          1           0        1.749442    0.146528    2.016523
     13          1           0        2.686088    1.985859    3.177903
 ---------------------------------------------------------------------
                    Distance matrix (angstroms):
                    1          2          3          4          5
     1  C    0.000000
     2  O    1.420054   0.000000
     3  C    1.518406   2.375609   0.000000
     4  C    2.527563   2.887907   1.519604   0.000000
     5  O    3.197004   2.904969   2.438916   1.412216   0.000000
     6  H    1.123326   2.086992   2.178396   3.498489   4.158241
     7  H    1.123911   2.085654   2.183852   2.797990   3.670628
     8  H    1.933863   0.963618   3.208215   3.757958   3.793549
     9  H    2.165214   2.639582   1.121408   2.161219   2.555461
    10  H    2.148238   3.336673   1.120035   2.167539   3.357196
    11  H    3.476643   3.976277   2.182367   1.123904   2.011344
    12  H    2.649506   3.021916   2.180218   1.123686   2.082270
    13  H    2.848770   2.175357   2.556917   1.936537   0.966701
                    6          7          8          9         10
     6  H    0.000000
     7  H    1.828029   0.000000
     8  H    2.307765   2.298526   0.000000
     9  H    2.500663   3.109914   3.515456   0.000000
    10  H    2.484739   2.505077   4.051870   1.818190   0.000000
    11  H    4.327367   3.709639   4.862097   2.634402   2.398354
    12  H    3.718181   2.459396   3.707341   3.084906   2.656627
    13  H    3.794305   3.377531   2.997864   2.652782   3.622244
                   11         12         13
    11  H    0.000000
    12  H    1.832626   0.000000
    13  H    2.821460   2.368385   0.000000
 Stoichiometry    C3H8O2
 Framework group  C1[X(C3H8O2)]
 Deg. of freedom    33
 Full point group                 C1      NOp   1
 Largest Abelian subgroup         C1      NOp   1
 Largest concise Abelian subgroup C1      NOp   1
                         Standard orientation:                         
 ---------------------------------------------------------------------
 Center     Atomic      Atomic             Coordinates (Angstroms)
 Number     Number       Type             X           Y           Z
 ---------------------------------------------------------------------
      1          6           0        1.312132    0.452068    0.145819
      2          8           0        1.304891   -0.953935   -0.053320
      3          6           0       -0.007771    1.001253   -0.365854
      4          6           0       -1.206089    0.411665    0.359139
      5          8           0       -1.595565   -0.839385   -0.167677
      6          1           0        2.168096    0.910682   -0.418858
      7          1           0        1.436350    0.677051    1.239953
      8          1           0        2.144505   -1.288240    0.281117
      9          1           0       -0.101179    0.780391   -1.461323
     10          1           0        0.001850    2.112789   -0.228474
     11          1           0       -2.109021    1.066281    0.220019
     12          1           0       -0.986169    0.312229    1.456598
     13          1           0       -0.818676   -1.414546   -0.155680
 ---------------------------------------------------------------------
 Rotational constants (GHZ):      7.9398981      3.7781882      2.8520648

 **********************************************************************

            Population analysis using the SCF density.

 **********************************************************************

 Orbital symmetries:
       Occupied  (A) (A) (A) (A) (A) (A) (A) (A) (A) (A) (A) (A)
                 (A) (A) (A) (A)
       Virtual   (A) (A) (A) (A) (A) (A) (A) (A) (A) (A) (A) (A)
 The electronic state is 1-A.
 Alpha  occ. eigenvalues --   -1.43816  -1.36759  -1.19208  -0.96741  -0.81453
 Alpha  occ. eigenvalues --   -0.69350  -0.65985  -0.57825  -0.57679  -0.57226
 Alpha  occ. eigenvalues --   -0.51662  -0.48657  -0.46903  -0.43060  -0.41194
 Alpha  occ. eigenvalues --   -0.39512
 Alpha virt. eigenvalues --    0.11572   0.13140   0.13620   0.14185   0.15378
 Alpha virt. eigenvalues --    0.15758   0.16028   0.16854   0.17707   0.18142
 Alpha virt. eigenvalues --    0.21924   0.24953
          Condensed to atoms (all electrons):
               1          2          3          4          5          6
     1  C    4.020701   0.000000   0.000000   0.000000   0.000000   0.000000
     2  O    0.000000   6.342366   0.000000   0.000000   0.000000   0.000000
     3  C    0.000000   0.000000   4.204716   0.000000   0.000000   0.000000
     4  C    0.000000   0.000000   0.000000   4.008173   0.000000   0.000000
     5  O    0.000000   0.000000   0.000000   0.000000   6.334235   0.000000
     6  H    0.000000   0.000000   0.000000   0.000000   0.000000   0.935053
     7  H    0.000000   0.000000   0.000000   0.000000   0.000000   0.000000
     8  H    0.000000   0.000000   0.000000   0.000000   0.000000   0.000000
     9  H    0.000000   0.000000   0.000000   0.000000   0.000000   0.000000
    10  H    0.000000   0.000000   0.000000   0.000000   0.000000   0.000000
    11  H    0.000000   0.000000   0.000000   0.000000   0.000000   0.000000
    12  H    0.000000   0.000000   0.000000   0.000000   0.000000   0.000000
    13  H    0.000000   0.000000   0.000000   0.000000   0.000000   0.000000
               7          8          9         10         11         12
     1  C    0.000000   0.000000   0.000000   0.000000   0.000000   0.000000
     2  O    0.000000   0.000000   0.000000   0.000000   0.000000   0.000000
     3  C    0.000000   0.000000   0.000000   0.000000   0.000000   0.000000
     4  C    0.000000   0.000000   0.000000   0.000000   0.000000   0.000000
     5  O    0.000000   0.000000   0.000000   0.000000   0.000000   0.000000
     6  H    0.000000   0.000000   0.000000   0.000000   0.000000   0.000000
     7  H    0.937945   0.000000   0.000000   0.000000   0.000000   0.000000
     8  H    0.000000   0.794833   0.000000   0.000000   0.000000   0.000000
     9  H    0.000000   0.000000   0.890399   0.000000   0.000000   0.000000
    10  H    0.000000   0.000000   0.000000   0.906854   0.000000   0.000000
    11  H    0.000000   0.000000   0.000000   0.000000   0.901680   0.000000
    12  H    0.000000   0.000000   0.000000   0.000000   0.000000   0.940991
    13  H    0.000000   0.000000   0.000000   0.000000   0.000000   0.000000
              13
     1  C    0.000000
     2  O    0.000000
     3  C    0.000000
     4  C    0.000000
     5  O    0.000000
     6  H    0.000000
     7  H    0.000000
     8  H    0.000000
     9  H    0.000000
    10  H    0.000000
    11  H    0.000000
    12  H    0.000000
    13  H    0.782055
 Mulliken charges:
               1
     1  C   -0.020701
     2  O   -0.342366
     3  C   -0.204716
     4  C   -0.008173
     5  O   -0.334235
     6  H    0.064947
     7  H    0.062055
     8  H    0.205167
     9  H    0.109601
    10  H    0.093146
    11  H    0.098320
    12  H    0.059009
    13  H    0.217945
 Sum of Mulliken charges =  -0.00000
 Mulliken charges with hydrogens summed into heavy atoms:
               1
     1  C    0.106301
     2  O   -0.137199
     3  C   -0.001969
     4  C    0.149157
     5  O   -0.116290
 Charge=             -0.0000 electrons
 Dipole moment (field-independent basis, Debye):
    X=              2.6106    Y=              1.4911    Z=              1.0413  Tot=              3.1817
 N-N= 1.402748287921D+02 E-N=-2.369191801341D+02  KE=-2.086301431000D+01
 1\1\GINC-GTX1080DELTA\Scan\RAM1\ZDO\C3H8O2\MVEROT\18-Apr-2022\0\\#n AM
 1 Opt=modredundant\\Optimisation de geometrie\\0,1\C,1.3956327421,2.40
 22825343,0.6725472094\O,1.3737015092,3.1420846075,1.8844734374\C,2.670
 4657585,1.5776565197,0.6538287853\C,2.7554206594,0.6069921978,1.819928
 6029\O,3.2426879563,1.2164574471,2.9969913043\H,1.3764586419,3.1067543
 095,-0.2022176613\H,0.4925361069,1.7351790875,0.6218900731\H,0.5576980
 299,3.6546252488,1.8847055497\H,3.5563969661,2.264351762,0.6874702327\
 H,2.7011334914,1.0073189707,-0.3096296068\H,3.4985375899,-0.2066896864
 ,1.598885638\H,1.7494423028,0.1465281344,2.016523425\H,2.6860882456,1.
 9858588671,3.1779030102\\Version=AM64L-G09RevD.01\State=1-A\HF=-0.1865
 412,-0.1866062,-0.1862947,-0.1856232,-0.1847858,-0.184061,-0.1836387,-
 0.1835412,-0.1836788,-0.1839357,-0.1842008,-0.1843821,-0.1844261,-0.18
 43279,-0.1841222,-0.1838542,-0.1835789,-0.1833781,-0.1833193,-0.183422
 6,-0.1836602,-0.1839723,-0.1842744,-0.1844615,-0.184454,-0.1844772,-0.
 1845466,-0.1843035,-0.1839286,-0.1836364,-0.1835801,-0.183818,-0.18431
 5,-0.1849638,-0.1856274,-0.186184,-0.1865412\RMSD=7.816e-09,1.764e-09,
 5.071e-09,3.839e-09,2.780e-09,2.796e-09,8.608e-09,2.604e-09,1.755e-09,
 1.582e-09,1.839e-09,4.793e-09,3.089e-09,3.620e-09,6.315e-09,3.453e-09,
 9.775e-09,8.451e-09,3.491e-09,3.714e-09,7.900e-09,2.096e-09,2.241e-09,
 3.136e-09,2.459e-09,3.439e-09,6.698e-09,6.424e-09,3.200e-09,2.494e-09,
 4.377e-09,6.965e-09,2.581e-09,3.585e-09,3.788e-09,4.621e-09,7.833e-09\
 PG=C01 [X(C3H8O2)]\\@


 WHEN ALL ELSE FAILS, TRY THE BOSS'S SUGGESTION.
 Job cpu time:       0 days  0 hours  1 minutes 39.3 seconds.
 File lengths (MBytes):  RWF=     72 Int=      0 D2E=      0 Chk=      5 Scr=      2
 Normal termination of Gaussian 09 at Mon Apr 18 00:05:21 2022.
