 Entering Gaussian System, Link 0=g09
 Input=/scratch/mverot/2-butene-Z-opt/2-butene-Z-opt.com
 Output=/scratch/mverot/2-butene-Z-opt/2-butene-Z-opt.log
 Initial command:
 /opt/g09/l1.exe "/scratch/mverot/2-butene-Z-opt/Gau-743786.inp" -scrdir="/scratch/mverot/2-butene-Z-opt/"
 Entering Link 1 = /opt/g09/l1.exe PID=    743788.
  
 Copyright (c) 1988,1990,1992,1993,1995,1998,2003,2009,2013,
            Gaussian, Inc.  All Rights Reserved.
  
 This is part of the Gaussian(R) 09 program.  It is based on
 the Gaussian(R) 03 system (copyright 2003, Gaussian, Inc.),
 the Gaussian(R) 98 system (copyright 1998, Gaussian, Inc.),
 the Gaussian(R) 94 system (copyright 1995, Gaussian, Inc.),
 the Gaussian 92(TM) system (copyright 1992, Gaussian, Inc.),
 the Gaussian 90(TM) system (copyright 1990, Gaussian, Inc.),
 the Gaussian 88(TM) system (copyright 1988, Gaussian, Inc.),
 the Gaussian 86(TM) system (copyright 1986, Carnegie Mellon
 University), and the Gaussian 82(TM) system (copyright 1983,
 Carnegie Mellon University). Gaussian is a federally registered
 trademark of Gaussian, Inc.
  
 This software contains proprietary and confidential information,
 including trade secrets, belonging to Gaussian, Inc.
  
 This software is provided under written license and may be
 used, copied, transmitted, or stored only in accord with that
 written license.
  
 The following legend is applicable only to US Government
 contracts under FAR:
  
                    RESTRICTED RIGHTS LEGEND
  
 Use, reproduction and disclosure by the US Government is
 subject to restrictions as set forth in subparagraphs (a)
 and (c) of the Commercial Computer Software - Restricted
 Rights clause in FAR 52.227-19.
  
 Gaussian, Inc.
 340 Quinnipiac St., Bldg. 40, Wallingford CT 06492
  
  
 ---------------------------------------------------------------
 Warning -- This program may not be used in any manner that
 competes with the business of Gaussian, Inc. or will provide
 assistance to any competitor of Gaussian, Inc.  The licensee
 of this program is prohibited from giving any competitor of
 Gaussian, Inc. access to this program.  By using this program,
 the user acknowledges that Gaussian, Inc. is engaged in the
 business of creating and licensing software in the field of
 computational chemistry and represents and warrants to the
 licensee that it is not a competitor of Gaussian, Inc. and that
 it will not use this program in any manner prohibited above.
 ---------------------------------------------------------------
  

 Cite this work as:
 Gaussian 09, Revision D.01,
 M. J. Frisch, G. W. Trucks, H. B. Schlegel, G. E. Scuseria, 
 M. A. Robb, J. R. Cheeseman, G. Scalmani, V. Barone, B. Mennucci, 
 G. A. Petersson, H. Nakatsuji, M. Caricato, X. Li, H. P. Hratchian, 
 A. F. Izmaylov, J. Bloino, G. Zheng, J. L. Sonnenberg, M. Hada, 
 M. Ehara, K. Toyota, R. Fukuda, J. Hasegawa, M. Ishida, T. Nakajima, 
 Y. Honda, O. Kitao, H. Nakai, T. Vreven, J. A. Montgomery, Jr., 
 J. E. Peralta, F. Ogliaro, M. Bearpark, J. J. Heyd, E. Brothers, 
 K. N. Kudin, V. N. Staroverov, T. Keith, R. Kobayashi, J. Normand, 
 K. Raghavachari, A. Rendell, J. C. Burant, S. S. Iyengar, J. Tomasi, 
 M. Cossi, N. Rega, J. M. Millam, M. Klene, J. E. Knox, J. B. Cross, 
 V. Bakken, C. Adamo, J. Jaramillo, R. Gomperts, R. E. Stratmann, 
 O. Yazyev, A. J. Austin, R. Cammi, C. Pomelli, J. W. Ochterski, 
 R. L. Martin, K. Morokuma, V. G. Zakrzewski, G. A. Voth, 
 P. Salvador, J. J. Dannenberg, S. Dapprich, A. D. Daniels, 
 O. Farkas, J. B. Foresman, J. V. Ortiz, J. Cioslowski, 
 and D. J. Fox, Gaussian, Inc., Wallingford CT, 2013.
 
 ******************************************
 Gaussian 09:  AM64L-G09RevD.01 24-Apr-2013
                16-Apr-2022 
 ******************************************
 %chk=2-butene-Z-opt
 ---------------
 #n AM1 Opt freq
 ---------------
 1/14=-1,18=20,19=15,26=1,38=1/1,3;
 2/9=110,12=2,17=6,18=5,40=1/2;
 3/5=2,16=1,25=1,41=700000,71=1/1,2,3;
 4/35=1/1;
 5/5=2,35=1,38=5/2;
 6/7=2,8=2,9=2,10=2,28=1/1;
 7//1,2,3,16;
 1/14=-1,18=20,19=15,26=1/3(2);
 2/9=110/2;
 99//99;
 2/9=110/2;
 3/5=2,16=1,25=1,41=700000,71=1,135=20/1,2,3;
 4/5=5,16=3,35=1/1;
 5/5=2,35=1,38=5/2;
 7//1,2,3,16;
 1/14=-1,18=20,19=15,26=1/3(-5);
 2/9=110/2;
 6/7=2,8=2,9=2,10=2,19=2,28=1/1;
 99/9=1/99;
 -------------------------
 Optimisation de geometrie
 -------------------------
 Symbolic Z-matrix:
 Charge =  0 Multiplicity = 1
 C                     1.1865    1.4335    0.5859 
 C                     2.4737    1.0679    0.6131 
 C                     3.6711    1.9211    0.9268 
 C                     0.6049    2.792     0.8623 
 H                     0.4539    0.6655    0.3346 
 H                     2.7025    0.0268    0.3819 
 H                     3.4083    2.9579    1.1542 
 H                     4.2224    1.5193    1.7879 
 H                     4.3751    1.9317    0.0835 
 H                    -0.1078    2.7496    1.6973 
 H                     1.3642    3.5387    1.1104 
 H                     0.0442    3.1614   -0.0072 
 

 GradGradGradGradGradGradGradGradGradGradGradGradGradGradGradGradGradGrad
 Berny optimization.
 Initialization pass.
                           ----------------------------
                           !    Initial Parameters    !
                           ! (Angstroms and Degrees)  !
 --------------------------                            --------------------------
 ! Name  Definition              Value          Derivative Info.                !
 --------------------------------------------------------------------------------
 ! R1    R(1,2)                  1.3384         estimate D2E/DX2                !
 ! R2    R(1,4)                  1.5034         estimate D2E/DX2                !
 ! R3    R(1,5)                  1.0907         estimate D2E/DX2                !
 ! R4    R(2,3)                  1.5034         estimate D2E/DX2                !
 ! R5    R(2,6)                  1.0907         estimate D2E/DX2                !
 ! R6    R(3,7)                  1.0935         estimate D2E/DX2                !
 ! R7    R(3,8)                  1.0986         estimate D2E/DX2                !
 ! R8    R(3,9)                  1.0986         estimate D2E/DX2                !
 ! R9    R(4,10)                 1.0986         estimate D2E/DX2                !
 ! R10   R(4,11)                 1.0935         estimate D2E/DX2                !
 ! R11   R(4,12)                 1.0986         estimate D2E/DX2                !
 ! A1    A(2,1,4)              127.9639         estimate D2E/DX2                !
 ! A2    A(2,1,5)              117.2786         estimate D2E/DX2                !
 ! A3    A(4,1,5)              114.7576         estimate D2E/DX2                !
 ! A4    A(1,2,3)              127.9684         estimate D2E/DX2                !
 ! A5    A(1,2,6)              117.2692         estimate D2E/DX2                !
 ! A6    A(3,2,6)              114.7624         estimate D2E/DX2                !
 ! A7    A(2,3,7)              112.9592         estimate D2E/DX2                !
 ! A8    A(2,3,8)              110.8354         estimate D2E/DX2                !
 ! A9    A(2,3,9)              110.8365         estimate D2E/DX2                !
 ! A10   A(7,3,8)              107.7212         estimate D2E/DX2                !
 ! A11   A(7,3,9)              107.7278         estimate D2E/DX2                !
 ! A12   A(8,3,9)              106.4771         estimate D2E/DX2                !
 ! A13   A(1,4,10)             110.8441         estimate D2E/DX2                !
 ! A14   A(1,4,11)             112.9636         estimate D2E/DX2                !
 ! A15   A(1,4,12)             110.8413         estimate D2E/DX2                !
 ! A16   A(10,4,11)            107.7209         estimate D2E/DX2                !
 ! A17   A(10,4,12)            106.4654         estimate D2E/DX2                !
 ! A18   A(11,4,12)            107.7206         estimate D2E/DX2                !
 ! D1    D(4,1,2,3)             -0.0135         estimate D2E/DX2                !
 ! D2    D(4,1,2,6)            179.9937         estimate D2E/DX2                !
 ! D3    D(5,1,2,3)           -179.9954         estimate D2E/DX2                !
 ! D4    D(5,1,2,6)              0.0118         estimate D2E/DX2                !
 ! D5    D(2,1,4,10)          -120.9593         estimate D2E/DX2                !
 ! D6    D(2,1,4,11)             0.042          estimate D2E/DX2                !
 ! D7    D(2,1,4,12)           121.0412         estimate D2E/DX2                !
 ! D8    D(5,1,4,10)            59.0229         estimate D2E/DX2                !
 ! D9    D(5,1,4,11)          -179.9757         estimate D2E/DX2                !
 ! D10   D(5,1,4,12)           -58.9766         estimate D2E/DX2                !
 ! D11   D(1,2,3,7)              0.023          estimate D2E/DX2                !
 ! D12   D(1,2,3,8)            121.0155         estimate D2E/DX2                !
 ! D13   D(1,2,3,9)           -120.9788         estimate D2E/DX2                !
 ! D14   D(6,2,3,7)           -179.984          estimate D2E/DX2                !
 ! D15   D(6,2,3,8)            -58.9915         estimate D2E/DX2                !
 ! D16   D(6,2,3,9)             59.0141         estimate D2E/DX2                !
 --------------------------------------------------------------------------------
 Trust Radius=3.00D-01 FncErr=1.00D-07 GrdErr=1.00D-07
 Number of steps in this run=     55 maximum allowed number of steps=    100.
 GradGradGradGradGradGradGradGradGradGradGradGradGradGradGradGradGradGrad

                          Input orientation:                          
 ---------------------------------------------------------------------
 Center     Atomic      Atomic             Coordinates (Angstroms)
 Number     Number       Type             X           Y           Z
 ---------------------------------------------------------------------
      1          6           0        1.186500    1.433500    0.585900
      2          6           0        2.473700    1.067900    0.613100
      3          6           0        3.671100    1.921100    0.926800
      4          6           0        0.604900    2.792000    0.862300
      5          1           0        0.453900    0.665500    0.334600
      6          1           0        2.702500    0.026800    0.381900
      7          1           0        3.408300    2.957900    1.154200
      8          1           0        4.222400    1.519300    1.787900
      9          1           0        4.375100    1.931700    0.083500
     10          1           0       -0.107800    2.749600    1.697300
     11          1           0        1.364200    3.538700    1.110400
     12          1           0        0.044200    3.161400   -0.007200
 ---------------------------------------------------------------------
                    Distance matrix (angstroms):
                    1          2          3          4          5
     1  C    0.000000
     2  C    1.338390   0.000000
     3  C    2.554839   1.503371   0.000000
     4  C    1.503389   2.554806   3.188136   0.000000
     5  H    1.090724   2.078240   3.503942   2.196195   0.000000
     6  H    2.078143   1.090730   2.196241   3.503861   2.338028
     7  H    2.753753   2.176779   1.093494   2.823434   3.828227
     8  H    3.266321   2.154500   1.098576   3.944972   4.128274
     9  H    3.266157   2.154518   1.098582   3.944750   4.128211
    10  H    2.154656   3.266152   3.944638   1.098619   2.552632
    11  H    2.176820   2.753752   2.823495   1.093458   3.112200
    12  H    2.154589   3.266494   3.945263   1.098577   2.552293
                    6          7          8          9         10
     6  H    0.000000
     7  H    3.112226   0.000000
     8  H    2.552350   1.770284   0.000000
     9  H    2.552504   1.770364   1.760219   0.000000
    10  H    4.128160   3.563889   4.502497   4.834222   0.000000
    11  H    3.828211   2.125463   3.564588   3.564055   1.770287
    12  H    4.128399   3.564748   4.834897   4.503008   1.760115
                   11         12
    11  H    0.000000
    12  H    1.770250   0.000000
 Stoichiometry    C4H8
 Framework group  C1[X(C4H8)]
 Deg. of freedom    30
 Full point group                 C1      NOp   1
 Largest Abelian subgroup         C1      NOp   1
 Largest concise Abelian subgroup C1      NOp   1
                         Standard orientation:                         
 ---------------------------------------------------------------------
 Center     Atomic      Atomic             Coordinates (Angstroms)
 Number     Number       Type             X           Y           Z
 ---------------------------------------------------------------------
      1          6           0        0.669184    0.663703   -0.000071
      2          6           0       -0.669205    0.663659    0.000039
      3          6           0       -1.594081   -0.521555   -0.000012
      4          6           0        1.594055   -0.521536    0.000006
      5          1           0        1.169049    1.633143    0.000070
      6          1           0       -1.168979    1.633153    0.000061
      7          1           0       -1.062705   -1.477258    0.000246
      8          1           0       -2.251481   -0.504232    0.879984
      9          1           0       -2.251193   -0.504408   -0.880235
     10          1           0        2.251016   -0.504686    0.880393
     11          1           0        1.062757   -1.477242   -0.000566
     12          1           0        2.251815   -0.504095   -0.879721
 ---------------------------------------------------------------------
 Rotational constants (GHZ):     16.3177386      5.0376751      4.0415393
 Standard basis: VSTO-6G (5D, 7F)
 There are    24 symmetry adapted cartesian basis functions of A   symmetry.
 There are    24 symmetry adapted basis functions of A   symmetry.
    24 basis functions,   144 primitive gaussians,    24 cartesian basis functions
    12 alpha electrons       12 beta electrons
       nuclear repulsion energy        79.5104999273 Hartrees.
 Integral buffers will be    131072 words long.
 Regular integral format.
 Two-electron integral symmetry is turned off.
 Do NDO integrals.
 One-electron integrals computed using PRISM.
 NBasis=    24 RedAO= F EigKep=  0.00D+00  NBF=    24
 NBsUse=    24 1.00D-04 EigRej=  0.00D+00 NBFU=    24
 Simple Huckel Guess.
 Overlap will be assumed to be unity.
 Keep J ints in memory in canonical form, NReq=889405.
 Requested convergence on RMS density matrix=1.00D-08 within 128 cycles.
 Requested convergence on MAX density matrix=1.00D-06.
 Requested convergence on             energy=1.00D-06.
 No special actions if energy rises.
 SCF Done:  E(RAM1) =  0.616886858737E-03 A.U. after   11 cycles
            NFock= 10  Conv=0.30D-08     -V/T= 1.0000

 **********************************************************************

            Population analysis using the SCF density.

 **********************************************************************

 Orbital symmetries:
       Occupied  (A) (A) (A) (A) (A) (A) (A) (A) (A) (A) (A) (A)
       Virtual   (A) (A) (A) (A) (A) (A) (A) (A) (A) (A) (A) (A)
 The electronic state is 1-A.
 Alpha  occ. eigenvalues --   -1.31522  -1.11733  -0.96579  -0.70897  -0.60232
 Alpha  occ. eigenvalues --   -0.52726  -0.52496  -0.49734  -0.48309  -0.45491
 Alpha  occ. eigenvalues --   -0.42868  -0.35343
 Alpha virt. eigenvalues --    0.04773   0.14672   0.15864   0.16238   0.16624
 Alpha virt. eigenvalues --    0.16930   0.17434   0.18647   0.18832   0.19089
 Alpha virt. eigenvalues --    0.21089   0.22248
          Condensed to atoms (all electrons):
               1          2          3          4          5          6
     1  C    4.166110   0.000000   0.000000   0.000000   0.000000   0.000000
     2  C    0.000000   4.166123   0.000000   0.000000   0.000000   0.000000
     3  C    0.000000   0.000000   4.179076   0.000000   0.000000   0.000000
     4  C    0.000000   0.000000   0.000000   4.179093   0.000000   0.000000
     5  H    0.000000   0.000000   0.000000   0.000000   0.886695   0.000000
     6  H    0.000000   0.000000   0.000000   0.000000   0.000000   0.886705
     7  H    0.000000   0.000000   0.000000   0.000000   0.000000   0.000000
     8  H    0.000000   0.000000   0.000000   0.000000   0.000000   0.000000
     9  H    0.000000   0.000000   0.000000   0.000000   0.000000   0.000000
    10  H    0.000000   0.000000   0.000000   0.000000   0.000000   0.000000
    11  H    0.000000   0.000000   0.000000   0.000000   0.000000   0.000000
    12  H    0.000000   0.000000   0.000000   0.000000   0.000000   0.000000
               7          8          9         10         11         12
     1  C    0.000000   0.000000   0.000000   0.000000   0.000000   0.000000
     2  C    0.000000   0.000000   0.000000   0.000000   0.000000   0.000000
     3  C    0.000000   0.000000   0.000000   0.000000   0.000000   0.000000
     4  C    0.000000   0.000000   0.000000   0.000000   0.000000   0.000000
     5  H    0.000000   0.000000   0.000000   0.000000   0.000000   0.000000
     6  H    0.000000   0.000000   0.000000   0.000000   0.000000   0.000000
     7  H    0.923995   0.000000   0.000000   0.000000   0.000000   0.000000
     8  H    0.000000   0.922050   0.000000   0.000000   0.000000   0.000000
     9  H    0.000000   0.000000   0.922039   0.000000   0.000000   0.000000
    10  H    0.000000   0.000000   0.000000   0.922051   0.000000   0.000000
    11  H    0.000000   0.000000   0.000000   0.000000   0.924001   0.000000
    12  H    0.000000   0.000000   0.000000   0.000000   0.000000   0.922062
 Mulliken charges:
               1
     1  C   -0.166110
     2  C   -0.166123
     3  C   -0.179076
     4  C   -0.179093
     5  H    0.113305
     6  H    0.113295
     7  H    0.076005
     8  H    0.077950
     9  H    0.077961
    10  H    0.077949
    11  H    0.075999
    12  H    0.077938
 Sum of Mulliken charges =  -0.00000
 Mulliken charges with hydrogens summed into heavy atoms:
               1
     1  C   -0.052805
     2  C   -0.052828
     3  C    0.052841
     4  C    0.052792
 Charge=             -0.0000 electrons
 Dipole moment (field-independent basis, Debye):
    X=             -0.0000    Y=             -0.1691    Z=              0.0002  Tot=              0.1691
 N-N= 7.951049992730D+01 E-N=-1.282302569838D+02  KE=-1.483092774605D+01
 Calling FoFJK, ICntrl=      2127 FMM=F ISym2X=0 I1Cent= 0 IOpClX= 0 NMat=1 NMatS=1 NMatT=0.
 ***** Axes restored to original set *****
 -------------------------------------------------------------------
 Center     Atomic                   Forces (Hartrees/Bohr)
 Number     Number              X              Y              Z
 -------------------------------------------------------------------
      1        6           0.003970829    0.024355070    0.006275921
      2        6           0.009146683    0.022853109    0.006330343
      3        6          -0.025043445   -0.018071248   -0.006611698
      4        6           0.012006355   -0.028606289   -0.005830655
      5        1          -0.009127835   -0.003907334   -0.001771157
      6        1           0.005785920   -0.008140363   -0.001447409
      7        1          -0.007298661    0.014763663    0.002912888
      8        1           0.004043172   -0.007885359    0.012415570
      9        1           0.006381034   -0.001545159   -0.013759427
     10        1          -0.008025880   -0.004459518    0.012154379
     11        1           0.013872634    0.008768829    0.003356982
     12        1          -0.005710805    0.001874599   -0.014025737
 -------------------------------------------------------------------
 Cartesian Forces:  Max     0.028606289 RMS     0.011764025

 GradGradGradGradGradGradGradGradGradGradGradGradGradGradGradGradGradGrad
 Berny optimization.
 FormGI is forming the generalized inverse of G from B-inverse, IUseBI=4.
 Internal  Forces:  Max     0.025757630 RMS     0.008621627
 Search for a local minimum.
 Step number   1 out of a maximum of   55
 All quantities printed in internal units (Hartrees-Bohrs-Radians)
 Mixed Optimization -- RFO/linear search
 Second derivative matrix not updated -- first step.
 ITU=  0
     Eigenvalues ---    0.00721   0.00721   0.01617   0.01617   0.02904
     Eigenvalues ---    0.06931   0.06932   0.07264   0.07265   0.16000
     Eigenvalues ---    0.16000   0.16000   0.16000   0.16000   0.16000
     Eigenvalues ---    0.16000   0.16000   0.22000   0.22000   0.32024
     Eigenvalues ---    0.32026   0.33835   0.33839   0.33840   0.33840
     Eigenvalues ---    0.34412   0.34416   0.34728   0.34729   0.57567
 RFO step:  Lambda=-1.06897203D-02 EMin= 7.21120612D-03
 Linear search not attempted -- first point.
 Iteration  1 RMS(Cart)=  0.07080812 RMS(Int)=  0.00099431
 Iteration  2 RMS(Cart)=  0.00138661 RMS(Int)=  0.00012844
 Iteration  3 RMS(Cart)=  0.00000079 RMS(Int)=  0.00012844
 Variable       Old X    -DE/DX   Delta X   Delta X   Delta X     New X
                                 (Linear)    (Quad)   (Total)
    R1        2.52919  -0.00726   0.00000  -0.01238  -0.01238   2.51681
    R2        2.84099  -0.02576   0.00000  -0.07783  -0.07783   2.76316
    R3        2.06117   0.00929   0.00000   0.02595   0.02595   2.08712
    R4        2.84096  -0.02574   0.00000  -0.07777  -0.07777   2.76319
    R5        2.06118   0.00929   0.00000   0.02595   0.02595   2.08713
    R6        2.06640   0.01636   0.00000   0.04610   0.04610   2.11251
    R7        2.07601   0.01464   0.00000   0.04195   0.04195   2.11796
    R8        2.07602   0.01464   0.00000   0.04193   0.04193   2.11795
    R9        2.07609   0.01462   0.00000   0.04188   0.04188   2.11797
   R10        2.06634   0.01638   0.00000   0.04617   0.04617   2.11251
   R11        2.07601   0.01465   0.00000   0.04196   0.04196   2.11796
    A1        2.23339  -0.00693   0.00000  -0.03006  -0.03006   2.20333
    A2        2.04690   0.00751   0.00000   0.03874   0.03874   2.08563
    A3        2.00290  -0.00058   0.00000  -0.00867  -0.00867   1.99422
    A4        2.23347  -0.00695   0.00000  -0.03011  -0.03011   2.20336
    A5        2.04673   0.00753   0.00000   0.03884   0.03884   2.08558
    A6        2.00298  -0.00059   0.00000  -0.00874  -0.00874   1.99424
    A7        1.97151  -0.00323   0.00000  -0.02070  -0.02098   1.95053
    A8        1.93444  -0.00407   0.00000  -0.02292  -0.02315   1.91129
    A9        1.93446  -0.00407   0.00000  -0.02295  -0.02318   1.91128
   A10        1.88009   0.00368   0.00000   0.01989   0.01961   1.89970
   A11        1.88020   0.00367   0.00000   0.01980   0.01953   1.89974
   A12        1.85838   0.00487   0.00000   0.03209   0.03191   1.89029
   A13        1.93459  -0.00409   0.00000  -0.02307  -0.02331   1.91129
   A14        1.97159  -0.00323   0.00000  -0.02076  -0.02104   1.95055
   A15        1.93455  -0.00408   0.00000  -0.02300  -0.02323   1.91132
   A16        1.88008   0.00369   0.00000   0.01990   0.01963   1.89971
   A17        1.85817   0.00489   0.00000   0.03223   0.03206   1.89023
   A18        1.88008   0.00368   0.00000   0.01992   0.01965   1.89973
    D1       -0.00024   0.00000   0.00000   0.00015   0.00015  -0.00009
    D2        3.14148   0.00000   0.00000   0.00010   0.00010   3.14158
    D3       -3.14151  -0.00000   0.00000  -0.00008  -0.00008   3.14159
    D4        0.00021  -0.00000   0.00000  -0.00013  -0.00013   0.00007
    D5       -2.11114   0.00045   0.00000   0.00534   0.00530  -2.10584
    D6        0.00073  -0.00001   0.00000  -0.00014  -0.00014   0.00059
    D7        2.11257  -0.00046   0.00000  -0.00555  -0.00551   2.10706
    D8        1.03014   0.00046   0.00000   0.00557   0.00553   1.03568
    D9       -3.14117   0.00000   0.00000   0.00009   0.00009  -3.14108
   D10       -1.02934  -0.00045   0.00000  -0.00532  -0.00528  -1.03462
   D11        0.00040  -0.00000   0.00000  -0.00007  -0.00007   0.00033
   D12        2.11212  -0.00045   0.00000  -0.00542  -0.00539   2.10673
   D13       -2.11148   0.00045   0.00000   0.00541   0.00537  -2.10611
   D14       -3.14131  -0.00000   0.00000  -0.00002  -0.00002  -3.14133
   D15       -1.02960  -0.00045   0.00000  -0.00537  -0.00533  -1.03493
   D16        1.02999   0.00045   0.00000   0.00546   0.00542   1.03541
         Item               Value     Threshold  Converged?
 Maximum Force            0.025758     0.000450     NO 
 RMS     Force            0.008622     0.000300     NO 
 Maximum Displacement     0.231500     0.001800     NO 
 RMS     Displacement     0.070785     0.001200     NO 
 Predicted change in Energy=-5.540827D-03
 GradGradGradGradGradGradGradGradGradGradGradGradGradGradGradGradGradGrad

                          Input orientation:                          
 ---------------------------------------------------------------------
 Center     Atomic      Atomic             Coordinates (Angstroms)
 Number     Number       Type             X           Y           Z
 ---------------------------------------------------------------------
      1          6           0        1.190597    1.436132    0.586982
      2          6           0        2.471491    1.072304    0.613979
      3          6           0        3.609271    1.936484    0.924988
      4          6           0        0.665576    2.772610    0.863050
      5          1           0        0.417848    0.687764    0.336725
      6          1           0        2.744739    0.026809    0.385690
      7          1           0        3.285796    2.982788    1.149245
      8          1           0        4.157167    1.528628    1.813582
      9          1           0        4.314691    1.954375    0.054249
     10          1           0       -0.048352    2.723467    1.725626
     11          1           0        1.481638    3.495454    1.110473
     12          1           0        0.108540    3.148585   -0.033888
 ---------------------------------------------------------------------
                    Distance matrix (angstroms):
                    1          2          3          4          5
     1  C    0.000000
     2  C    1.331837   0.000000
     3  C    2.492907   1.462216   0.000000
     4  C    1.462201   2.492871   3.060765   0.000000
     5  H    1.104457   2.107651   3.477145   2.164479   0.000000
     6  H    2.107622   1.104464   2.164513   3.477099   2.419438
     7  H    2.664234   2.144657   1.117891   2.644169   3.761974
     8  H    3.211486   2.118675   1.120775   3.826514   4.107392
     9  H    3.211284   2.118663   1.120770   3.826187   4.107247
    10  H    2.118663   3.211185   3.826038   1.120779   2.508081
    11  H    2.144657   2.664202   2.644166   1.117890   3.100557
    12  H    2.118684   3.211575   3.826715   1.120779   2.507721
                    6          7          8          9         10
     6  H    0.000000
     7  H    3.100576   0.000000
     8  H    2.507846   1.820773   0.000000
     9  H    2.508010   1.820790   1.816956   0.000000
    10  H    4.107159   3.393524   4.372845   4.735098   0.000000
    11  H    3.761945   1.875984   3.394293   3.393630   1.820782
    12  H    4.107442   3.394443   4.735904   4.373284   1.816928
                   11         12
    11  H    0.000000
    12  H    1.820790   0.000000
 Stoichiometry    C4H8
 Framework group  C1[X(C4H8)]
 Deg. of freedom    30
 Full point group                 C1      NOp   1
 Largest Abelian subgroup         C1      NOp   1
 Largest concise Abelian subgroup C1      NOp   1
                         Standard orientation:                         
 ---------------------------------------------------------------------
 Center     Atomic      Atomic             Coordinates (Angstroms)
 Number     Number       Type             X           Y           Z
 ---------------------------------------------------------------------
      1          6           0        0.665928    0.660417   -0.000022
      2          6           0       -0.665909    0.660415    0.000020
      3          6           0       -1.530396   -0.518881   -0.000006
      4          6           0        1.530369   -0.518895    0.000000
      5          1           0        1.209753    1.621707    0.000003
      6          1           0       -1.209685    1.621740    0.000008
      7          1           0       -0.938010   -1.466911    0.000275
      8          1           0       -2.186735   -0.501847    0.908325
      9          1           0       -2.186325   -0.502092   -0.908631
     10          1           0        2.186109   -0.502282    0.908777
     11          1           0        0.937973   -1.466916   -0.000556
     12          1           0        2.186959   -0.501731   -0.908151
 ---------------------------------------------------------------------
 Rotational constants (GHZ):     16.3763765      5.3663228      4.2690507
 Standard basis: VSTO-6G (5D, 7F)
 There are    24 symmetry adapted cartesian basis functions of A   symmetry.
 There are    24 symmetry adapted basis functions of A   symmetry.
    24 basis functions,   144 primitive gaussians,    24 cartesian basis functions
    12 alpha electrons       12 beta electrons
       nuclear repulsion energy        80.1088477301 Hartrees.
 Integral buffers will be    131072 words long.
 Regular integral format.
 Two-electron integral symmetry is turned off.
 Do NDO integrals.
 One-electron integrals computed using PRISM.
 NBasis=    24 RedAO= F EigKep=  0.00D+00  NBF=    24
 NBsUse=    24 1.00D-04 EigRej=  0.00D+00 NBFU=    24
 Initial guess from the checkpoint file:  "2-butene-Z-opt.chk"
 B after Tr=    -0.000000    0.000000    0.000000
         Rot=    1.000000    0.000004    0.000002    0.000005 Ang=   0.00 deg.
 Overlap will be assumed to be unity.
 Keep J ints in memory in canonical form, NReq=889405.
 Requested convergence on RMS density matrix=1.00D-08 within 128 cycles.
 Requested convergence on MAX density matrix=1.00D-06.
 Requested convergence on             energy=1.00D-06.
 No special actions if energy rises.
 SCF Done:  E(RAM1) = -0.282121390704E-02 A.U. after   10 cycles
            NFock=  9  Conv=0.83D-08     -V/T= 0.9998
 Calling FoFJK, ICntrl=      2127 FMM=F ISym2X=0 I1Cent= 0 IOpClX= 0 NMat=1 NMatS=1 NMatT=0.
 ***** Axes restored to original set *****
 -------------------------------------------------------------------
 Center     Atomic                   Forces (Hartrees/Bohr)
 Number     Number              X              Y              Z
 -------------------------------------------------------------------
      1        6          -0.003057743   -0.008856238   -0.002410627
      2        6          -0.001954139   -0.009173129   -0.002399010
      3        6           0.007977329    0.003817882    0.001644311
      4        6          -0.004853610    0.007476446    0.001371994
      5        1          -0.000230505   -0.000823451   -0.000221144
      6        1          -0.000224097   -0.000819955   -0.000216950
      7        1           0.004428630    0.000127416    0.000427615
      8        1           0.000676506    0.001585613   -0.000394102
      9        1           0.000537850    0.001206613    0.001175564
     10        1           0.000275186    0.001699154   -0.000401275
     11        1          -0.003712801    0.002440051    0.000255318
     12        1           0.000137394    0.001319598    0.001168305
 -------------------------------------------------------------------
 Cartesian Forces:  Max     0.009173129 RMS     0.003346797

 GradGradGradGradGradGradGradGradGradGradGradGradGradGradGradGradGradGrad
 Berny optimization.
 Using GEDIIS/GDIIS optimizer.
 FormGI is forming the generalized inverse of G from B-inverse, IUseBI=4.
 GSVD:  received Info=                   1 from GESDD.
 Internal  Forces:  Max     0.015202832 RMS     0.004663317
 Search for a local minimum.
 Step number   2 out of a maximum of   55
 All quantities printed in internal units (Hartrees-Bohrs-Radians)
 Mixed Optimization -- RFO/linear search
 Update second derivatives using D2CorX and points    1    2
 DE= -3.44D-03 DEPred=-5.54D-03 R= 6.21D-01
 TightC=F SS=  1.41D+00  RLast= 1.92D-01 DXNew= 5.0454D-01 5.7489D-01
 Trust test= 6.21D-01 RLast= 1.92D-01 DXMaxT set to 5.05D-01
 ITU=  1  0
 Use linear search instead of GDIIS.
     Eigenvalues ---    0.00721   0.00721   0.01643   0.01643   0.02904
     Eigenvalues ---    0.07204   0.07204   0.07502   0.07522   0.15491
     Eigenvalues ---    0.16000   0.16000   0.16000   0.16000   0.16000
     Eigenvalues ---    0.16000   0.16877   0.22000   0.22966   0.30764
     Eigenvalues ---    0.32025   0.33836   0.33840   0.33840   0.34200
     Eigenvalues ---    0.34414   0.34642   0.34729   0.44481   0.62371
 RFO step:  Lambda=-9.73152215D-04 EMin= 7.21120613D-03
 Quartic linear search produced a step of -0.26712.
 Iteration  1 RMS(Cart)=  0.04937836 RMS(Int)=  0.00059239
 Iteration  2 RMS(Cart)=  0.00106265 RMS(Int)=  0.00001677
 Iteration  3 RMS(Cart)=  0.00000063 RMS(Int)=  0.00001676
 Variable       Old X    -DE/DX   Delta X   Delta X   Delta X     New X
                                 (Linear)    (Quad)   (Total)
    R1        2.51681   0.01190   0.00331   0.01049   0.01380   2.53060
    R2        2.76316   0.01520   0.02079   0.00457   0.02536   2.78852
    R3        2.08712   0.00077  -0.00693   0.01160   0.00467   2.09179
    R4        2.76319   0.01519   0.02077   0.00455   0.02533   2.78852
    R5        2.08713   0.00077  -0.00693   0.01159   0.00466   2.09179
    R6        2.11251  -0.00108  -0.01232   0.01546   0.00314   2.11565
    R7        2.11796  -0.00056  -0.01121   0.01496   0.00375   2.12171
    R8        2.11795  -0.00056  -0.01120   0.01496   0.00376   2.12170
    R9        2.11797  -0.00056  -0.01119   0.01493   0.00374   2.12171
   R10        2.11251  -0.00108  -0.01233   0.01548   0.00315   2.11566
   R11        2.11796  -0.00056  -0.01121   0.01496   0.00375   2.12171
    A1        2.20333   0.00914   0.00803   0.01829   0.02632   2.22965
    A2        2.08563  -0.00502  -0.01035  -0.00134  -0.01169   2.07394
    A3        1.99422  -0.00412   0.00232  -0.01694  -0.01463   1.97960
    A4        2.20336   0.00914   0.00804   0.01825   0.02629   2.22965
    A5        2.08558  -0.00502  -0.01038  -0.00126  -0.01164   2.07394
    A6        1.99424  -0.00412   0.00233  -0.01699  -0.01465   1.97959
    A7        1.95053   0.00580   0.00560   0.01864   0.02427   1.97480
    A8        1.91129   0.00100   0.00618  -0.00572   0.00050   1.91179
    A9        1.91128   0.00100   0.00619  -0.00572   0.00050   1.91178
   A10        1.89970  -0.00322  -0.00524  -0.00558  -0.01079   1.88891
   A11        1.89974  -0.00322  -0.00522  -0.00562  -0.01081   1.88892
   A12        1.89029  -0.00162  -0.00852   0.00364  -0.00484   1.88545
   A13        1.91129   0.00100   0.00623  -0.00578   0.00048   1.91177
   A14        1.95055   0.00580   0.00562   0.01861   0.02425   1.97480
   A15        1.91132   0.00100   0.00621  -0.00576   0.00048   1.91179
   A16        1.89971  -0.00322  -0.00524  -0.00557  -0.01079   1.88893
   A17        1.89023  -0.00161  -0.00856   0.00373  -0.00479   1.88544
   A18        1.89973  -0.00322  -0.00525  -0.00558  -0.01081   1.88892
    D1       -0.00009   0.00000  -0.00004   0.00021   0.00017   0.00009
    D2        3.14158   0.00000  -0.00003   0.00011   0.00008  -3.14152
    D3        3.14159   0.00000   0.00002  -0.00005  -0.00003   3.14157
    D4        0.00007  -0.00000   0.00004  -0.00016  -0.00012  -0.00005
    D5       -2.10584  -0.00039  -0.00142  -0.00125  -0.00268  -2.10852
    D6        0.00059   0.00000   0.00004  -0.00007  -0.00004   0.00056
    D7        2.10706   0.00038   0.00147   0.00110   0.00258   2.10963
    D8        1.03568  -0.00038  -0.00148  -0.00100  -0.00249   1.03319
    D9       -3.14108   0.00000  -0.00002   0.00018   0.00015  -3.14093
   D10       -1.03462   0.00039   0.00141   0.00135   0.00277  -1.03185
   D11        0.00033  -0.00000   0.00002  -0.00004  -0.00002   0.00031
   D12        2.10673   0.00039   0.00144   0.00119   0.00264   2.10938
   D13       -2.10611  -0.00039  -0.00143  -0.00121  -0.00265  -2.10876
   D14       -3.14133   0.00000   0.00001   0.00007   0.00007  -3.14126
   D15       -1.03493   0.00039   0.00142   0.00130   0.00273  -1.03220
   D16        1.03541  -0.00039  -0.00145  -0.00111  -0.00256   1.03285
         Item               Value     Threshold  Converged?
 Maximum Force            0.015203     0.000450     NO 
 RMS     Force            0.004663     0.000300     NO 
 Maximum Displacement     0.178320     0.001800     NO 
 RMS     Displacement     0.050190     0.001200     NO 
 Predicted change in Energy=-1.073032D-03
 GradGradGradGradGradGradGradGradGradGradGradGradGradGradGradGradGradGrad

                          Input orientation:                          
 ---------------------------------------------------------------------
 Center     Atomic      Atomic             Coordinates (Angstroms)
 Number     Number       Type             X           Y           Z
 ---------------------------------------------------------------------
      1          6           0        1.189897    1.447236    0.589665
      2          6           0        2.477816    1.081418    0.616736
      3          6           0        3.649762    1.923255    0.925445
      4          6           0        0.624179    2.782670    0.861756
      5          1           0        0.424646    0.688247    0.337447
      6          1           0        2.739215    0.030804    0.386138
      7          1           0        3.380159    2.984628    1.158260
      8          1           0        4.195468    1.497530    1.809501
      9          1           0        4.352953    1.923433    0.050169
     10          1           0       -0.097004    2.717213    1.719777
     11          1           0        1.402065    3.546768    1.115638
     12          1           0        0.059844    3.142199   -0.039832
 ---------------------------------------------------------------------
                    Distance matrix (angstroms):
                    1          2          3          4          5
     1  C    0.000000
     2  C    1.339138   0.000000
     3  C    2.527900   1.475619   0.000000
     4  C    1.475620   2.527897   3.145918   0.000000
     5  H    1.106927   2.109050   3.503193   2.168253   0.000000
     6  H    2.109049   1.106930   2.168253   3.503192   2.406622
     7  H    2.735713   2.174783   1.119554   2.779231   3.831730
     8  H    3.244070   2.132175   1.122761   3.912021   4.128073
     9  H    3.243878   2.132165   1.122758   3.911613   4.127931
    10  H    2.132160   3.243797   3.911469   1.122760   2.509912
    11  H    2.174787   2.735707   2.779228   1.119557   3.119627
    12  H    2.132179   3.244147   3.912173   1.122763   2.509443
                    6          7          8          9         10
     6  H    0.000000
     7  H    3.119625   0.000000
     8  H    2.509566   1.816674   0.000000
     9  H    2.509795   1.816681   1.816987   0.000000
    10  H    4.127896   3.532347   4.463294   4.818692   0.000000
    11  H    3.831728   2.056859   3.533259   3.532446   1.816688
    12  H    4.128106   3.533376   4.819581   4.463662   1.816986
                   11         12
    11  H    0.000000
    12  H    1.816685   0.000000
 Stoichiometry    C4H8
 Framework group  C1[X(C4H8)]
 Deg. of freedom    30
 Full point group                 C1      NOp   1
 Largest Abelian subgroup         C1      NOp   1
 Largest concise Abelian subgroup C1      NOp   1
                         Standard orientation:                         
 ---------------------------------------------------------------------
 Center     Atomic      Atomic             Coordinates (Angstroms)
 Number     Number       Type             X           Y           Z
 ---------------------------------------------------------------------
      1          6           0        0.669570    0.652433    0.000027
      2          6           0       -0.669567    0.652431   -0.000010
      3          6           0       -1.572961   -0.514330    0.000003
      4          6           0        1.572958   -0.514334   -0.000009
      5          1           0        1.203313    1.622178   -0.000017
      6          1           0       -1.203309    1.622181   -0.000040
      7          1           0       -1.028434   -1.492539    0.000374
      8          1           0       -2.231988   -0.478924    0.908310
      9          1           0       -2.231488   -0.479318   -0.908677
     10          1           0        2.231306   -0.479469    0.908810
     11          1           0        1.028425   -1.492542   -0.000648
     12          1           0        2.232173   -0.478773   -0.908176
 ---------------------------------------------------------------------
 Rotational constants (GHZ):     16.5352605      5.1257127      4.1253411
 Standard basis: VSTO-6G (5D, 7F)
 There are    24 symmetry adapted cartesian basis functions of A   symmetry.
 There are    24 symmetry adapted basis functions of A   symmetry.
    24 basis functions,   144 primitive gaussians,    24 cartesian basis functions
    12 alpha electrons       12 beta electrons
       nuclear repulsion energy        79.6147505089 Hartrees.
 Integral buffers will be    131072 words long.
 Regular integral format.
 Two-electron integral symmetry is turned off.
 Do NDO integrals.
 One-electron integrals computed using PRISM.
 NBasis=    24 RedAO= F EigKep=  0.00D+00  NBF=    24
 NBsUse=    24 1.00D-04 EigRej=  0.00D+00 NBFU=    24
 Initial guess from the checkpoint file:  "2-butene-Z-opt.chk"
 B after Tr=     0.000000    0.000000   -0.000000
         Rot=    1.000000    0.000001    0.000002   -0.000004 Ang=   0.00 deg.
 Overlap will be assumed to be unity.
 Keep J ints in memory in canonical form, NReq=889405.
 Requested convergence on RMS density matrix=1.00D-08 within 128 cycles.
 Requested convergence on MAX density matrix=1.00D-06.
 Requested convergence on             energy=1.00D-06.
 No special actions if energy rises.
 SCF Done:  E(RAM1) = -0.349914243851E-02 A.U. after   11 cycles
            NFock= 10  Conv=0.17D-08     -V/T= 0.9998
 Calling FoFJK, ICntrl=      2127 FMM=F ISym2X=0 I1Cent= 0 IOpClX= 0 NMat=1 NMatS=1 NMatT=0.
 ***** Axes restored to original set *****
 -------------------------------------------------------------------
 Center     Atomic                   Forces (Hartrees/Bohr)
 Number     Number              X              Y              Z
 -------------------------------------------------------------------
      1        6           0.004274888   -0.000469571    0.000257211
      2        6          -0.003891355    0.001842052    0.000100949
      3        6          -0.000551289    0.000032231   -0.000040743
      4        6           0.000485616   -0.000263171   -0.000016474
      5        1           0.000932675    0.000395161    0.000183070
      6        1          -0.000592111    0.000830668    0.000147856
      7        1          -0.000045176   -0.002281315   -0.000556571
      8        1          -0.000813776    0.001189379   -0.001578723
      9        1          -0.001112955    0.000375569    0.001783188
     10        1           0.001375947    0.000567942   -0.001532693
     11        1          -0.001140968   -0.001972724   -0.000578145
     12        1           0.001078504   -0.000246220    0.001831075
 -------------------------------------------------------------------
 Cartesian Forces:  Max     0.004274888 RMS     0.001385996

 GradGradGradGradGradGradGradGradGradGradGradGradGradGradGradGradGradGrad
 Berny optimization.
 Using GEDIIS/GDIIS optimizer.
 FormGI is forming the generalized inverse of G from B-inverse, IUseBI=4.
 GSVD:  received Info=                   1 from GESDD.
 Internal  Forces:  Max     0.007284814 RMS     0.001699567
 Search for a local minimum.
 Step number   3 out of a maximum of   55
 All quantities printed in internal units (Hartrees-Bohrs-Radians)
 Mixed Optimization -- RFO/linear search
 Update second derivatives using D2CorX and points    1    2    3
 DE= -6.78D-04 DEPred=-1.07D-03 R= 6.32D-01
 TightC=F SS=  1.41D+00  RLast= 7.37D-02 DXNew= 8.4853D-01 2.2097D-01
 Trust test= 6.32D-01 RLast= 7.37D-02 DXMaxT set to 5.05D-01
 ITU=  1  1  0
 Use linear search instead of GDIIS.
     Eigenvalues ---    0.00721   0.00721   0.01643   0.01643   0.02904
     Eigenvalues ---    0.07029   0.07029   0.07478   0.07528   0.15845
     Eigenvalues ---    0.16000   0.16000   0.16000   0.16000   0.16000
     Eigenvalues ---    0.16185   0.16672   0.22000   0.25070   0.32025
     Eigenvalues ---    0.33836   0.33840   0.33840   0.34061   0.34340
     Eigenvalues ---    0.34414   0.34729   0.35382   0.44538   0.75640
 RFO step:  Lambda=-1.16259758D-04 EMin= 7.21120634D-03
 Quartic linear search produced a step of -0.24996.
 Iteration  1 RMS(Cart)=  0.01610923 RMS(Int)=  0.00007353
 Iteration  2 RMS(Cart)=  0.00008569 RMS(Int)=  0.00001006
 Iteration  3 RMS(Cart)=  0.00000000 RMS(Int)=  0.00001006
 Variable       Old X    -DE/DX   Delta X   Delta X   Delta X     New X
                                 (Linear)    (Quad)   (Total)
    R1        2.53060  -0.00728  -0.00345  -0.00415  -0.00760   2.52301
    R2        2.78852  -0.00248  -0.00634   0.00420  -0.00214   2.78638
    R3        2.09179  -0.00096  -0.00117  -0.00160  -0.00277   2.08902
    R4        2.78852  -0.00248  -0.00633   0.00419  -0.00214   2.78637
    R5        2.09179  -0.00096  -0.00116  -0.00161  -0.00277   2.08902
    R6        2.11565  -0.00227  -0.00079  -0.00526  -0.00604   2.10961
    R7        2.12171  -0.00209  -0.00094  -0.00468  -0.00562   2.11609
    R8        2.12170  -0.00209  -0.00094  -0.00468  -0.00562   2.11609
    R9        2.12171  -0.00209  -0.00094  -0.00468  -0.00562   2.11609
   R10        2.11566  -0.00227  -0.00079  -0.00526  -0.00605   2.10961
   R11        2.12171  -0.00209  -0.00094  -0.00469  -0.00562   2.11609
    A1        2.22965  -0.00306  -0.00658  -0.00186  -0.00844   2.22121
    A2        2.07394   0.00113   0.00292  -0.00147   0.00145   2.07539
    A3        1.97960   0.00192   0.00366   0.00333   0.00699   1.98658
    A4        2.22965  -0.00306  -0.00657  -0.00187  -0.00844   2.22122
    A5        2.07394   0.00113   0.00291  -0.00146   0.00145   2.07538
    A6        1.97959   0.00192   0.00366   0.00333   0.00699   1.98659
    A7        1.97480  -0.00127  -0.00607  -0.00030  -0.00634   1.96845
    A8        1.91179   0.00077  -0.00013   0.00476   0.00463   1.91643
    A9        1.91178   0.00077  -0.00013   0.00477   0.00464   1.91642
   A10        1.88891   0.00002   0.00270  -0.00391  -0.00120   1.88771
   A11        1.88892   0.00002   0.00270  -0.00391  -0.00119   1.88773
   A12        1.88545  -0.00030   0.00121  -0.00168  -0.00049   1.88496
   A13        1.91177   0.00077  -0.00012   0.00477   0.00465   1.91642
   A14        1.97480  -0.00127  -0.00606  -0.00030  -0.00634   1.96846
   A15        1.91179   0.00077  -0.00012   0.00476   0.00464   1.91643
   A16        1.88893   0.00002   0.00270  -0.00391  -0.00120   1.88773
   A17        1.88544  -0.00030   0.00120  -0.00167  -0.00049   1.88495
   A18        1.88892   0.00002   0.00270  -0.00392  -0.00120   1.88772
    D1        0.00009  -0.00000  -0.00004  -0.00019  -0.00023  -0.00014
    D2       -3.14152  -0.00000  -0.00002  -0.00012  -0.00014   3.14152
    D3        3.14157   0.00000   0.00001   0.00009   0.00009  -3.14153
    D4       -0.00005   0.00000   0.00003   0.00016   0.00019   0.00014
    D5       -2.10852   0.00028   0.00067   0.00185   0.00253  -2.10598
    D6        0.00056   0.00000   0.00001   0.00004   0.00005   0.00061
    D7        2.10963  -0.00028  -0.00064  -0.00178  -0.00244   2.10719
    D8        1.03319   0.00028   0.00062   0.00159   0.00222   1.03541
    D9       -3.14093  -0.00000  -0.00004  -0.00022  -0.00026  -3.14119
   D10       -1.03185  -0.00028  -0.00069  -0.00204  -0.00275  -1.03460
   D11        0.00031   0.00000   0.00000  -0.00003  -0.00002   0.00029
   D12        2.10938  -0.00028  -0.00066  -0.00184  -0.00252   2.10686
   D13       -2.10876   0.00028   0.00066   0.00178   0.00246  -2.10630
   D14       -3.14126  -0.00000  -0.00002  -0.00009  -0.00011  -3.14137
   D15       -1.03220  -0.00028  -0.00068  -0.00191  -0.00261  -1.03481
   D16        1.03285   0.00028   0.00064   0.00171   0.00237   1.03522
         Item               Value     Threshold  Converged?
 Maximum Force            0.007285     0.000450     NO 
 RMS     Force            0.001700     0.000300     NO 
 Maximum Displacement     0.051510     0.001800     NO 
 RMS     Displacement     0.016120     0.001200     NO 
 Predicted change in Energy=-1.218001D-04
 GradGradGradGradGradGradGradGradGradGradGradGradGradGradGradGradGradGrad

                          Input orientation:                          
 ---------------------------------------------------------------------
 Center     Atomic      Atomic             Coordinates (Angstroms)
 Number     Number       Type             X           Y           Z
 ---------------------------------------------------------------------
      1          6           0        1.190076    1.440373    0.587927
      2          6           0        2.474121    1.075633    0.615004
      3          6           0        3.637646    1.926597    0.925133
      4          6           0        0.636242    2.779127    0.862006
      5          1           0        0.424679    0.683464    0.336334
      6          1           0        2.736719    0.026745    0.384953
      7          1           0        3.352901    2.981305    1.154836
      8          1           0        4.185504    1.512510    1.809613
      9          1           0        4.342662    1.937005    0.055210
     10          1           0       -0.080829    2.724586    1.720354
     11          1           0        1.423586    3.529503    1.113555
     12          1           0        0.075692    3.148554   -0.034224
 ---------------------------------------------------------------------
                    Distance matrix (angstroms):
                    1          2          3          4          5
     1  C    0.000000
     2  C    1.335118   0.000000
     3  C    2.518078   1.474486   0.000000
     4  C    1.474487   2.518075   3.120772   0.000000
     5  H    1.105461   2.105153   3.495028   2.170920   0.000000
     6  H    2.105148   1.105462   2.170921   3.495023   2.403991
     7  H    2.715449   2.166854   1.116357   2.739865   3.811102
     8  H    3.235785   2.132318   1.119786   3.885812   4.123308
     9  H    3.235618   2.132316   1.119786   3.885567   4.123225
    10  H    2.132321   3.235524   3.885385   1.119788   2.517385
    11  H    2.166858   2.715448   2.739867   1.116356   3.114775
    12  H    2.132324   3.235886   3.886008   1.119786   2.517097
                    6          7          8          9         10
     6  H    0.000000
     7  H    3.114775   0.000000
     8  H    2.517167   1.810889   0.000000
     9  H    2.517315   1.810902   1.811856   0.000000
    10  H    4.123132   3.489443   4.436067   4.791686   0.000000
    11  H    3.811101   2.006111   3.490121   3.489577   1.810900
    12  H    4.123405   3.490262   4.792382   4.436539   1.811847
                   11         12
    11  H    0.000000
    12  H    1.810894   0.000000
 Stoichiometry    C4H8
 Framework group  C1[X(C4H8)]
 Deg. of freedom    30
 Full point group                 C1      NOp   1
 Largest Abelian subgroup         C1      NOp   1
 Largest concise Abelian subgroup C1      NOp   1
                         Standard orientation:                         
 ---------------------------------------------------------------------
 Center     Atomic      Atomic             Coordinates (Angstroms)
 Number     Number       Type             X           Y           Z
 ---------------------------------------------------------------------
      1          6           0        0.667559    0.657067   -0.000047
      2          6           0       -0.667559    0.657064    0.000020
      3          6           0       -1.560387   -0.516378   -0.000004
      4          6           0        1.560385   -0.516379    0.000007
      5          1           0        1.201998    1.624754    0.000048
      6          1           0       -1.201993    1.624756    0.000032
      7          1           0       -1.003056   -1.483660    0.000209
      8          1           0       -2.218304   -0.492509    0.905809
      9          1           0       -2.217993   -0.492705   -0.906047
     10          1           0        2.217763   -0.492862    0.906223
     11          1           0        1.003055   -1.483661   -0.000508
     12          1           0        2.218546   -0.492358   -0.905624
 ---------------------------------------------------------------------
 Rotational constants (GHZ):     16.4320036      5.1986237      4.1645439
 Standard basis: VSTO-6G (5D, 7F)
 There are    24 symmetry adapted cartesian basis functions of A   symmetry.
 There are    24 symmetry adapted basis functions of A   symmetry.
    24 basis functions,   144 primitive gaussians,    24 cartesian basis functions
    12 alpha electrons       12 beta electrons
       nuclear repulsion energy        79.7604497257 Hartrees.
 Integral buffers will be    131072 words long.
 Regular integral format.
 Two-electron integral symmetry is turned off.
 Do NDO integrals.
 One-electron integrals computed using PRISM.
 NBasis=    24 RedAO= F EigKep=  0.00D+00  NBF=    24
 NBsUse=    24 1.00D-04 EigRej=  0.00D+00 NBFU=    24
 Initial guess from the checkpoint file:  "2-butene-Z-opt.chk"
 B after Tr=     0.000000   -0.000000   -0.000000
         Rot=    1.000000   -0.000001   -0.000004   -0.000000 Ang=  -0.00 deg.
 Overlap will be assumed to be unity.
 Keep J ints in memory in canonical form, NReq=889405.
 Requested convergence on RMS density matrix=1.00D-08 within 128 cycles.
 Requested convergence on MAX density matrix=1.00D-06.
 Requested convergence on             energy=1.00D-06.
 No special actions if energy rises.
 SCF Done:  E(RAM1) = -0.363169851597E-02 A.U. after   10 cycles
            NFock=  9  Conv=0.29D-08     -V/T= 0.9998
 Calling FoFJK, ICntrl=      2127 FMM=F ISym2X=0 I1Cent= 0 IOpClX= 0 NMat=1 NMatS=1 NMatT=0.
 ***** Axes restored to original set *****
 -------------------------------------------------------------------
 Center     Atomic                   Forces (Hartrees/Bohr)
 Number     Number              X              Y              Z
 -------------------------------------------------------------------
      1        6          -0.000704550    0.000266409    0.000017754
      2        6           0.000738219   -0.000141118    0.000024293
      3        6          -0.000242857   -0.000377260   -0.000111269
      4        6           0.000010919   -0.000448646   -0.000111981
      5        1          -0.000067220    0.000082713    0.000008436
      6        1           0.000100257    0.000034246    0.000018271
      7        1           0.000083343    0.000155502    0.000044571
      8        1          -0.000022209    0.000093991   -0.000058451
      9        1          -0.000035472    0.000058817    0.000089885
     10        1           0.000071997    0.000066974   -0.000056240
     11        1           0.000009317    0.000176234    0.000043145
     12        1           0.000058257    0.000032138    0.000091585
 -------------------------------------------------------------------
 Cartesian Forces:  Max     0.000738219 RMS     0.000217375

 GradGradGradGradGradGradGradGradGradGradGradGradGradGradGradGradGradGrad
 Berny optimization.
 Using GEDIIS/GDIIS optimizer.
 FormGI is forming the generalized inverse of G from B-inverse, IUseBI=4.
 GSVD:  received Info=                   1 from GESDD.
 Internal  Forces:  Max     0.000645695 RMS     0.000133176
 Search for a local minimum.
 Step number   4 out of a maximum of   55
 All quantities printed in internal units (Hartrees-Bohrs-Radians)
 Mixed Optimization -- En-DIIS/RFO-DIIS
 Update second derivatives using D2CorX and points    1    2    3    4
 DE= -1.33D-04 DEPred=-1.22D-04 R= 1.09D+00
 TightC=F SS=  1.41D+00  RLast= 2.74D-02 DXNew= 8.4853D-01 8.2087D-02
 Trust test= 1.09D+00 RLast= 2.74D-02 DXMaxT set to 5.05D-01
 ITU=  1  1  1  0
 Use linear search instead of GDIIS.
     Eigenvalues ---    0.00721   0.00721   0.01641   0.01641   0.02904
     Eigenvalues ---    0.07059   0.07059   0.07395   0.07431   0.15748
     Eigenvalues ---    0.16000   0.16000   0.16000   0.16000   0.16000
     Eigenvalues ---    0.16058   0.16716   0.22000   0.24050   0.32025
     Eigenvalues ---    0.33186   0.33836   0.33840   0.33840   0.34282
     Eigenvalues ---    0.34414   0.34729   0.35179   0.46632   0.76354
 RFO step:  Lambda=-2.42801325D-06 EMin= 7.21117734D-03
 Quartic linear search produced a step of -0.00484.
 Iteration  1 RMS(Cart)=  0.00086630 RMS(Int)=  0.00000041
 Iteration  2 RMS(Cart)=  0.00000053 RMS(Int)=  0.00000008
 Variable       Old X    -DE/DX   Delta X   Delta X   Delta X     New X
                                 (Linear)    (Quad)   (Total)
    R1        2.52301   0.00065   0.00004   0.00101   0.00105   2.52405
    R2        2.78638  -0.00022   0.00001  -0.00064  -0.00063   2.78575
    R3        2.08902  -0.00001   0.00001  -0.00006  -0.00004   2.08898
    R4        2.78637  -0.00022   0.00001  -0.00064  -0.00063   2.78575
    R5        2.08902  -0.00001   0.00001  -0.00006  -0.00004   2.08898
    R6        2.10961   0.00013   0.00003   0.00030   0.00033   2.10994
    R7        2.11609  -0.00009   0.00003  -0.00035  -0.00032   2.11577
    R8        2.11609  -0.00009   0.00003  -0.00035  -0.00032   2.11577
    R9        2.11609  -0.00009   0.00003  -0.00035  -0.00033   2.11577
   R10        2.10961   0.00013   0.00003   0.00030   0.00033   2.10994
   R11        2.11609  -0.00009   0.00003  -0.00035  -0.00032   2.11577
    A1        2.22121  -0.00015   0.00004  -0.00073  -0.00069   2.22052
    A2        2.07539   0.00018  -0.00001   0.00101   0.00100   2.07640
    A3        1.98658  -0.00004  -0.00003  -0.00028  -0.00032   1.98626
    A4        2.22122  -0.00015   0.00004  -0.00073  -0.00069   2.22053
    A5        2.07538   0.00019  -0.00001   0.00102   0.00101   2.07639
    A6        1.98659  -0.00004  -0.00003  -0.00029  -0.00032   1.98626
    A7        1.96845   0.00015   0.00003   0.00088   0.00091   1.96936
    A8        1.91643   0.00005  -0.00002   0.00039   0.00037   1.91680
    A9        1.91642   0.00005  -0.00002   0.00039   0.00037   1.91680
   A10        1.88771  -0.00011   0.00001  -0.00075  -0.00074   1.88697
   A11        1.88773  -0.00011   0.00001  -0.00076  -0.00075   1.88698
   A12        1.88496  -0.00004   0.00000  -0.00024  -0.00023   1.88473
   A13        1.91642   0.00005  -0.00002   0.00039   0.00036   1.91679
   A14        1.96846   0.00015   0.00003   0.00087   0.00091   1.96936
   A15        1.91643   0.00005  -0.00002   0.00040   0.00037   1.91680
   A16        1.88773  -0.00011   0.00001  -0.00075  -0.00075   1.88698
   A17        1.88495  -0.00004   0.00000  -0.00022  -0.00022   1.88472
   A18        1.88772  -0.00011   0.00001  -0.00075  -0.00075   1.88697
    D1       -0.00014   0.00000   0.00000   0.00015   0.00015   0.00001
    D2        3.14152   0.00000   0.00000   0.00010   0.00010  -3.14156
    D3       -3.14153  -0.00000  -0.00000  -0.00010  -0.00010   3.14156
    D4        0.00014  -0.00000  -0.00000  -0.00014  -0.00014   0.00000
    D5       -2.10598   0.00000  -0.00001  -0.00000  -0.00001  -2.10600
    D6        0.00061  -0.00000  -0.00000  -0.00010  -0.00010   0.00050
    D7        2.10719  -0.00001   0.00001  -0.00020  -0.00019   2.10700
    D8        1.03541   0.00001  -0.00001   0.00023   0.00022   1.03563
    D9       -3.14119   0.00000   0.00000   0.00013   0.00013  -3.14106
   D10       -1.03460  -0.00000   0.00001   0.00003   0.00004  -1.03456
   D11        0.00029  -0.00000   0.00000  -0.00002  -0.00002   0.00027
   D12        2.10686  -0.00000   0.00001  -0.00011  -0.00010   2.10676
   D13       -2.10630   0.00000  -0.00001   0.00008   0.00007  -2.10623
   D14       -3.14137   0.00000   0.00000   0.00002   0.00002  -3.14135
   D15       -1.03481  -0.00000   0.00001  -0.00007  -0.00005  -1.03486
   D16        1.03522   0.00000  -0.00001   0.00012   0.00011   1.03533
         Item               Value     Threshold  Converged?
 Maximum Force            0.000646     0.000450     NO 
 RMS     Force            0.000133     0.000300     YES
 Maximum Displacement     0.002297     0.001800     NO 
 RMS     Displacement     0.000866     0.001200     YES
 Predicted change in Energy=-1.216601D-06
 GradGradGradGradGradGradGradGradGradGradGradGradGradGradGradGradGradGrad

                          Input orientation:                          
 ---------------------------------------------------------------------
 Center     Atomic      Atomic             Coordinates (Angstroms)
 Number     Number       Type             X           Y           Z
 ---------------------------------------------------------------------
      1          6           0        1.189632    1.439820    0.587835
      2          6           0        2.474214    1.074943    0.614853
      3          6           0        3.636860    1.926508    0.925047
      4          6           0        0.636864    2.778640    0.861944
      5          1           0        0.423463    0.683717    0.336261
      6          1           0        2.737887    0.026319    0.384939
      7          1           0        3.352306    2.981425    1.154868
      8          1           0        4.185026    1.513231    1.809498
      9          1           0        4.342088    1.937699    0.055526
     10          1           0       -0.080005    2.725000    1.720291
     11          1           0        1.424161    3.529310    1.113532
     12          1           0        0.076504    3.148788   -0.033893
 ---------------------------------------------------------------------
                    Distance matrix (angstroms):
                    1          2          3          4          5
     1  C    0.000000
     2  C    1.335671   0.000000
     3  C    2.517838   1.474154   0.000000
     4  C    1.474153   2.517835   3.119309   0.000000
     5  H    1.105438   2.106241   3.495299   2.170387   0.000000
     6  H    2.106239   1.105439   2.170389   3.495297   2.406470
     7  H    2.715739   2.167334   1.116530   2.738714   3.811522
     8  H    3.235775   2.132171   1.119615   3.884401   4.124060
     9  H    3.235617   2.132169   1.119615   3.884092   4.123942
    10  H    2.132165   3.235541   3.883953   1.119616   2.517112
    11  H    2.167333   2.715734   2.738712   1.116530   3.114955
    12  H    2.132176   3.235850   3.884543   1.119615   2.516738
                    6          7          8          9         10
     6  H    0.000000
     7  H    3.114957   0.000000
     8  H    2.516841   1.810403   0.000000
     9  H    2.517011   1.810410   1.811425   0.000000
    10  H    4.123901   3.488011   4.434731   4.790219   0.000000
    11  H    3.811518   2.004902   3.488742   3.488108   1.810411
    12  H    4.124099   3.488846   4.790939   4.435080   1.811423
                   11         12
    11  H    0.000000
    12  H    1.810403   0.000000
 Stoichiometry    C4H8
 Framework group  C1[X(C4H8)]
 Deg. of freedom    30
 Full point group                 C1      NOp   1
 Largest Abelian subgroup         C1      NOp   1
 Largest concise Abelian subgroup C1      NOp   1
                         Standard orientation:                         
 ---------------------------------------------------------------------
 Center     Atomic      Atomic             Coordinates (Angstroms)
 Number     Number       Type             X           Y           Z
 ---------------------------------------------------------------------
      1          6           0        0.667836    0.657420    0.000006
      2          6           0       -0.667835    0.657420    0.000004
      3          6           0       -1.559655   -0.516371   -0.000001
      4          6           0        1.559654   -0.516372   -0.000003
      5          1           0        1.203237    1.624550   -0.000017
      6          1           0       -1.203233    1.624552   -0.000020
      7          1           0       -1.002453   -1.483927    0.000275
      8          1           0       -2.217644   -0.493316    0.905569
      9          1           0       -2.217261   -0.493597   -0.905856
     10          1           0        2.217086   -0.493734    0.905982
     11          1           0        1.002449   -1.483926   -0.000529
     12          1           0        2.217819   -0.493184   -0.905441
 ---------------------------------------------------------------------
 Rotational constants (GHZ):     16.4251445      5.2016407      4.1659315
 Standard basis: VSTO-6G (5D, 7F)
 There are    24 symmetry adapted cartesian basis functions of A   symmetry.
 There are    24 symmetry adapted basis functions of A   symmetry.
    24 basis functions,   144 primitive gaussians,    24 cartesian basis functions
    12 alpha electrons       12 beta electrons
       nuclear repulsion energy        79.7634436888 Hartrees.
 Integral buffers will be    131072 words long.
 Regular integral format.
 Two-electron integral symmetry is turned off.
 Do NDO integrals.
 One-electron integrals computed using PRISM.
 NBasis=    24 RedAO= F EigKep=  0.00D+00  NBF=    24
 NBsUse=    24 1.00D-04 EigRej=  0.00D+00 NBFU=    24
 Initial guess from the checkpoint file:  "2-butene-Z-opt.chk"
 B after Tr=    -0.000000    0.000000    0.000000
         Rot=    1.000000    0.000002    0.000000    0.000000 Ang=   0.00 deg.
 Overlap will be assumed to be unity.
 Keep J ints in memory in canonical form, NReq=889405.
 Requested convergence on RMS density matrix=1.00D-08 within 128 cycles.
 Requested convergence on MAX density matrix=1.00D-06.
 Requested convergence on             energy=1.00D-06.
 No special actions if energy rises.
 SCF Done:  E(RAM1) = -0.363290606779E-02 A.U. after    8 cycles
            NFock=  7  Conv=0.42D-08     -V/T= 0.9998
 Calling FoFJK, ICntrl=      2127 FMM=F ISym2X=0 I1Cent= 0 IOpClX= 0 NMat=1 NMatS=1 NMatT=0.
 ***** Axes restored to original set *****
 -------------------------------------------------------------------
 Center     Atomic                   Forces (Hartrees/Bohr)
 Number     Number              X              Y              Z
 -------------------------------------------------------------------
      1        6           0.000095457   -0.000097254   -0.000019361
      2        6          -0.000131393   -0.000034068   -0.000021137
      3        6          -0.000057154   -0.000046094   -0.000014978
      4        6           0.000023915   -0.000069081   -0.000012717
      5        1           0.000032393    0.000022186    0.000010102
      6        1          -0.000016000    0.000036547    0.000008245
      7        1           0.000018457    0.000058937    0.000015911
      8        1           0.000023425    0.000000684    0.000046607
      9        1           0.000030783    0.000020900   -0.000036776
     10        1          -0.000021265    0.000013758    0.000045977
     11        1           0.000014818    0.000060377    0.000015793
     12        1          -0.000013436    0.000033109   -0.000037664
 -------------------------------------------------------------------
 Cartesian Forces:  Max     0.000131393 RMS     0.000044513

 GradGradGradGradGradGradGradGradGradGradGradGradGradGradGradGradGradGrad
 Berny optimization.
 Using GEDIIS/GDIIS optimizer.
 FormGI is forming the generalized inverse of G from B-inverse, IUseBI=4.
 GSVD:  received Info=                   1 from GESDD.
 Internal  Forces:  Max     0.000136963 RMS     0.000032566
 Search for a local minimum.
 Step number   5 out of a maximum of   55
 All quantities printed in internal units (Hartrees-Bohrs-Radians)
 Mixed Optimization -- En-DIIS/RFO-DIIS
 Swapping is turned off.
 Update second derivatives using D2CorX and points    1    2    3    4    5
 DE= -1.21D-06 DEPred=-1.22D-06 R= 9.93D-01
 TightC=F SS=  1.41D+00  RLast= 3.23D-03 DXNew= 8.4853D-01 9.6937D-03
 Trust test= 9.93D-01 RLast= 3.23D-03 DXMaxT set to 5.05D-01
 ITU=  1  1  1  1  0
     Eigenvalues ---    0.00721   0.00721   0.01641   0.01642   0.02904
     Eigenvalues ---    0.07052   0.07052   0.07254   0.07426   0.13420
     Eigenvalues ---    0.16000   0.16000   0.16000   0.16000   0.16000
     Eigenvalues ---    0.16085   0.16585   0.22000   0.23983   0.32025
     Eigenvalues ---    0.33354   0.33836   0.33840   0.33840   0.34376
     Eigenvalues ---    0.34414   0.34729   0.37530   0.49202   0.80562
 En-DIIS/RFO-DIIS IScMMF=        0 using points:     5    4
 RFO step:  Lambda=-7.90091610D-08.
 DidBck=F Rises=F RFO-DIIS coefs:    0.99257    0.00743
 Iteration  1 RMS(Cart)=  0.00016985 RMS(Int)=  0.00000002
 Iteration  2 RMS(Cart)=  0.00000002 RMS(Int)=  0.00000000
 Variable       Old X    -DE/DX   Delta X   Delta X   Delta X     New X
                                 (Linear)    (Quad)   (Total)
    R1        2.52405  -0.00014  -0.00001  -0.00017  -0.00018   2.52388
    R2        2.78575   0.00004   0.00000   0.00005   0.00006   2.78580
    R3        2.08898  -0.00004   0.00000  -0.00010  -0.00010   2.08887
    R4        2.78575   0.00003   0.00000   0.00005   0.00005   2.78580
    R5        2.08898  -0.00004   0.00000  -0.00010  -0.00010   2.08887
    R6        2.10994   0.00005  -0.00000   0.00019   0.00019   2.11013
    R7        2.11577   0.00005   0.00000   0.00013   0.00014   2.11590
    R8        2.11577   0.00005   0.00000   0.00013   0.00014   2.11590
    R9        2.11577   0.00005   0.00000   0.00013   0.00014   2.11590
   R10        2.10994   0.00005  -0.00000   0.00020   0.00019   2.11013
   R11        2.11577   0.00005   0.00000   0.00013   0.00013   2.11590
    A1        2.22052  -0.00001   0.00001  -0.00012  -0.00011   2.22041
    A2        2.07640   0.00000  -0.00001   0.00007   0.00006   2.07646
    A3        1.98626   0.00001   0.00000   0.00005   0.00005   1.98631
    A4        2.22053  -0.00002   0.00001  -0.00012  -0.00012   2.22041
    A5        2.07639   0.00000  -0.00001   0.00007   0.00007   2.07646
    A6        1.98626   0.00001   0.00000   0.00005   0.00005   1.98631
    A7        1.96936   0.00004  -0.00001   0.00029   0.00028   1.96964
    A8        1.91680   0.00001  -0.00000   0.00010   0.00010   1.91689
    A9        1.91680   0.00001  -0.00000   0.00010   0.00009   1.91689
   A10        1.88697  -0.00003   0.00001  -0.00026  -0.00026   1.88671
   A11        1.88698  -0.00003   0.00001  -0.00027  -0.00026   1.88672
   A12        1.88473  -0.00000   0.00000   0.00003   0.00003   1.88476
   A13        1.91679   0.00001  -0.00000   0.00010   0.00010   1.91689
   A14        1.96936   0.00004  -0.00001   0.00029   0.00028   1.96964
   A15        1.91680   0.00001  -0.00000   0.00009   0.00009   1.91689
   A16        1.88698  -0.00003   0.00001  -0.00027  -0.00026   1.88672
   A17        1.88472  -0.00000   0.00000   0.00003   0.00003   1.88476
   A18        1.88697  -0.00003   0.00001  -0.00027  -0.00026   1.88671
    D1        0.00001  -0.00000  -0.00000   0.00000  -0.00000   0.00000
    D2       -3.14156  -0.00000  -0.00000  -0.00005  -0.00005   3.14158
    D3        3.14156   0.00000   0.00000   0.00006   0.00006  -3.14156
    D4        0.00000   0.00000   0.00000   0.00001   0.00001   0.00001
    D5       -2.10600   0.00001   0.00000   0.00011   0.00011  -2.10589
    D6        0.00050   0.00000   0.00000   0.00004   0.00004   0.00054
    D7        2.10700  -0.00000   0.00000  -0.00005  -0.00004   2.10696
    D8        1.03563   0.00000  -0.00000   0.00005   0.00005   1.03568
    D9       -3.14106  -0.00000  -0.00000  -0.00002  -0.00002  -3.14108
   D10       -1.03456  -0.00001  -0.00000  -0.00010  -0.00010  -1.03466
   D11        0.00027  -0.00000   0.00000  -0.00001  -0.00001   0.00026
   D12        2.10676  -0.00000   0.00000  -0.00009  -0.00009   2.10667
   D13       -2.10623   0.00000  -0.00000   0.00007   0.00006  -2.10617
   D14       -3.14135   0.00000  -0.00000   0.00003   0.00003  -3.14132
   D15       -1.03486  -0.00000   0.00000  -0.00005  -0.00005  -1.03490
   D16        1.03533   0.00001  -0.00000   0.00011   0.00011   1.03544
         Item               Value     Threshold  Converged?
 Maximum Force            0.000137     0.000450     YES
 RMS     Force            0.000033     0.000300     YES
 Maximum Displacement     0.000359     0.001800     YES
 RMS     Displacement     0.000170     0.001200     YES
 Predicted change in Energy=-7.420979D-08
 Optimization completed.
    -- Stationary point found.
                           ----------------------------
                           !   Optimized Parameters   !
                           ! (Angstroms and Degrees)  !
 --------------------------                            --------------------------
 ! Name  Definition              Value          Derivative Info.                !
 --------------------------------------------------------------------------------
 ! R1    R(1,2)                  1.3357         -DE/DX =   -0.0001              !
 ! R2    R(1,4)                  1.4742         -DE/DX =    0.0                 !
 ! R3    R(1,5)                  1.1054         -DE/DX =    0.0                 !
 ! R4    R(2,3)                  1.4742         -DE/DX =    0.0                 !
 ! R5    R(2,6)                  1.1054         -DE/DX =    0.0                 !
 ! R6    R(3,7)                  1.1165         -DE/DX =    0.0001              !
 ! R7    R(3,8)                  1.1196         -DE/DX =    0.0                 !
 ! R8    R(3,9)                  1.1196         -DE/DX =    0.0                 !
 ! R9    R(4,10)                 1.1196         -DE/DX =    0.0                 !
 ! R10   R(4,11)                 1.1165         -DE/DX =    0.0001              !
 ! R11   R(4,12)                 1.1196         -DE/DX =    0.0                 !
 ! A1    A(2,1,4)              127.2266         -DE/DX =    0.0                 !
 ! A2    A(2,1,5)              118.9688         -DE/DX =    0.0                 !
 ! A3    A(4,1,5)              113.8046         -DE/DX =    0.0                 !
 ! A4    A(1,2,3)              127.2268         -DE/DX =    0.0                 !
 ! A5    A(1,2,6)              118.9686         -DE/DX =    0.0                 !
 ! A6    A(3,2,6)              113.8046         -DE/DX =    0.0                 !
 ! A7    A(2,3,7)              112.8362         -DE/DX =    0.0                 !
 ! A8    A(2,3,8)              109.8244         -DE/DX =    0.0                 !
 ! A9    A(2,3,9)              109.8243         -DE/DX =    0.0                 !
 ! A10   A(7,3,8)              108.1154         -DE/DX =    0.0                 !
 ! A11   A(7,3,9)              108.116          -DE/DX =    0.0                 !
 ! A12   A(8,3,9)              107.9869         -DE/DX =    0.0                 !
 ! A13   A(1,4,10)             109.8239         -DE/DX =    0.0                 !
 ! A14   A(1,4,11)             112.8362         -DE/DX =    0.0                 !
 ! A15   A(1,4,12)             109.8248         -DE/DX =    0.0                 !
 ! A16   A(10,4,11)            108.116          -DE/DX =    0.0                 !
 ! A17   A(10,4,12)            107.9867         -DE/DX =    0.0                 !
 ! A18   A(11,4,12)            108.1155         -DE/DX =    0.0                 !
 ! D1    D(4,1,2,3)              0.0003         -DE/DX =    0.0                 !
 ! D2    D(4,1,2,6)            180.0019         -DE/DX =    0.0                 !
 ! D3    D(5,1,2,3)           -180.0016         -DE/DX =    0.0                 !
 ! D4    D(5,1,2,6)              0.0            -DE/DX =    0.0                 !
 ! D5    D(2,1,4,10)          -120.6648         -DE/DX =    0.0                 !
 ! D6    D(2,1,4,11)             0.0288         -DE/DX =    0.0                 !
 ! D7    D(2,1,4,12)           120.7223         -DE/DX =    0.0                 !
 ! D8    D(5,1,4,10)            59.3371         -DE/DX =    0.0                 !
 ! D9    D(5,1,4,11)          -179.9694         -DE/DX =    0.0                 !
 ! D10   D(5,1,4,12)           -59.2759         -DE/DX =    0.0                 !
 ! D11   D(1,2,3,7)              0.0155         -DE/DX =    0.0                 !
 ! D12   D(1,2,3,8)            120.7085         -DE/DX =    0.0                 !
 ! D13   D(1,2,3,9)           -120.6783         -DE/DX =    0.0                 !
 ! D14   D(6,2,3,7)           -179.9861         -DE/DX =    0.0                 !
 ! D15   D(6,2,3,8)            -59.293          -DE/DX =    0.0                 !
 ! D16   D(6,2,3,9)             59.3201         -DE/DX =    0.0                 !
 --------------------------------------------------------------------------------
 GradGradGradGradGradGradGradGradGradGradGradGradGradGradGradGradGradGrad

                          Input orientation:                          
 ---------------------------------------------------------------------
 Center     Atomic      Atomic             Coordinates (Angstroms)
 Number     Number       Type             X           Y           Z
 ---------------------------------------------------------------------
      1          6           0        1.189632    1.439820    0.587835
      2          6           0        2.474214    1.074943    0.614853
      3          6           0        3.636860    1.926508    0.925047
      4          6           0        0.636864    2.778640    0.861944
      5          1           0        0.423463    0.683717    0.336261
      6          1           0        2.737887    0.026319    0.384939
      7          1           0        3.352306    2.981425    1.154868
      8          1           0        4.185026    1.513231    1.809498
      9          1           0        4.342088    1.937699    0.055526
     10          1           0       -0.080005    2.725000    1.720291
     11          1           0        1.424161    3.529310    1.113532
     12          1           0        0.076504    3.148788   -0.033893
 ---------------------------------------------------------------------
                    Distance matrix (angstroms):
                    1          2          3          4          5
     1  C    0.000000
     2  C    1.335671   0.000000
     3  C    2.517838   1.474154   0.000000
     4  C    1.474153   2.517835   3.119309   0.000000
     5  H    1.105438   2.106241   3.495299   2.170387   0.000000
     6  H    2.106239   1.105439   2.170389   3.495297   2.406470
     7  H    2.715739   2.167334   1.116530   2.738714   3.811522
     8  H    3.235775   2.132171   1.119615   3.884401   4.124060
     9  H    3.235617   2.132169   1.119615   3.884092   4.123942
    10  H    2.132165   3.235541   3.883953   1.119616   2.517112
    11  H    2.167333   2.715734   2.738712   1.116530   3.114955
    12  H    2.132176   3.235850   3.884543   1.119615   2.516738
                    6          7          8          9         10
     6  H    0.000000
     7  H    3.114957   0.000000
     8  H    2.516841   1.810403   0.000000
     9  H    2.517011   1.810410   1.811425   0.000000
    10  H    4.123901   3.488011   4.434731   4.790219   0.000000
    11  H    3.811518   2.004902   3.488742   3.488108   1.810411
    12  H    4.124099   3.488846   4.790939   4.435080   1.811423
                   11         12
    11  H    0.000000
    12  H    1.810403   0.000000
 Stoichiometry    C4H8
 Framework group  C1[X(C4H8)]
 Deg. of freedom    30
 Full point group                 C1      NOp   1
 Largest Abelian subgroup         C1      NOp   1
 Largest concise Abelian subgroup C1      NOp   1
[...]
     Eigenvalues ---    0.32817   0.33106   0.33113   0.35598   0.36269
     Eigenvalues ---    0.36539   0.37380   0.50928   0.51442   0.85156
 Eigenvalue     1 is  -1.47D-04 should be greater than     0.000000 Eigenvector:
                          D11       D6        D5        D13       D12
   1                    0.29502   0.29502   0.29131   0.29131   0.29130
                          D7        D14       D9        D8        D16
   1                    0.29129   0.28706   0.28706   0.28334   0.28334
 Eigenvalue     2 is  -5.83D-06 should be greater than     0.000000 Eigenvector:
                          D5        D13       D12       D7        D6
   1                   -0.29502   0.29502   0.29502  -0.29501  -0.29322
                          D11       D8        D16       D15       D10
   1                    0.29322  -0.28331   0.28331   0.28331  -0.28330
 Angle between quadratic step and forces=  66.90 degrees.
 Linear search not attempted -- first point.
 Iteration  1 RMS(Cart)=  0.00031594 RMS(Int)=  0.00000007
 Iteration  2 RMS(Cart)=  0.00000007 RMS(Int)=  0.00000000
 Variable       Old X    -DE/DX   Delta X   Delta X   Delta X     New X
                                 (Linear)    (Quad)   (Total)
    R1        2.52405  -0.00014   0.00000  -0.00016  -0.00016   2.52389
    R2        2.78575   0.00004   0.00000   0.00004   0.00004   2.78578
    R3        2.08898  -0.00004   0.00000  -0.00011  -0.00011   2.08886
    R4        2.78575   0.00003   0.00000   0.00004   0.00004   2.78578
    R5        2.08898  -0.00004   0.00000  -0.00011  -0.00011   2.08886
    R6        2.10994   0.00005   0.00000   0.00016   0.00016   2.11010
    R7        2.11577   0.00005   0.00000   0.00013   0.00013   2.11590
    R8        2.11577   0.00005   0.00000   0.00013   0.00013   2.11590
    R9        2.11577   0.00005   0.00000   0.00013   0.00013   2.11590
   R10        2.10994   0.00005   0.00000   0.00016   0.00016   2.11010
   R11        2.11577   0.00005   0.00000   0.00013   0.00013   2.11590
    A1        2.22052  -0.00001   0.00000  -0.00008  -0.00008   2.22044
    A2        2.07640   0.00000   0.00000   0.00005   0.00005   2.07644
    A3        1.98626   0.00001   0.00000   0.00004   0.00004   1.98630
    A4        2.22053  -0.00002   0.00000  -0.00009  -0.00009   2.22044
    A5        2.07639   0.00000   0.00000   0.00005   0.00005   2.07644
    A6        1.98626   0.00001   0.00000   0.00004   0.00004   1.98630
    A7        1.96936   0.00004   0.00000   0.00026   0.00026   1.96962
    A8        1.91680   0.00001   0.00000   0.00009   0.00009   1.91689
    A9        1.91680   0.00001   0.00000   0.00009   0.00009   1.91689
   A10        1.88697  -0.00003   0.00000  -0.00027  -0.00027   1.88670
   A11        1.88698  -0.00003   0.00000  -0.00026  -0.00026   1.88672
   A12        1.88473  -0.00000   0.00000   0.00008   0.00008   1.88480
   A13        1.91679   0.00001   0.00000   0.00009   0.00009   1.91688
   A14        1.96936   0.00004   0.00000   0.00026   0.00026   1.96962
   A15        1.91680   0.00001   0.00000   0.00009   0.00009   1.91689
   A16        1.88698  -0.00003   0.00000  -0.00026  -0.00026   1.88672
   A17        1.88472  -0.00000   0.00000   0.00008   0.00008   1.88480
   A18        1.88697  -0.00003   0.00000  -0.00027  -0.00027   1.88670
    D1        0.00001  -0.00000   0.00000  -0.00000  -0.00000   0.00000
    D2       -3.14156  -0.00000   0.00000  -0.00002  -0.00002  -3.14158
    D3        3.14156   0.00000   0.00000   0.00006   0.00006  -3.14156
    D4        0.00000   0.00000   0.00000   0.00005   0.00005   0.00005
    D5       -2.10600   0.00001   0.00000   0.00063   0.00063  -2.10537
    D6        0.00050   0.00000   0.00000   0.00053   0.00053   0.00103
    D7        2.10700  -0.00000   0.00000   0.00042   0.00042   2.10742
    D8        1.03563   0.00000   0.00000   0.00056   0.00056   1.03619
    D9       -3.14106  -0.00000   0.00000   0.00047   0.00047  -3.14059
   D10       -1.03456  -0.00001   0.00000   0.00036   0.00036  -1.03420
   D11        0.00027  -0.00000   0.00000   0.00027   0.00027   0.00054
   D12        2.10676  -0.00000   0.00000   0.00017   0.00017   2.10693
   D13       -2.10623   0.00000   0.00000   0.00037   0.00037  -2.10587
   D14       -3.14135   0.00000   0.00000   0.00029   0.00029  -3.14106
   D15       -1.03486  -0.00000   0.00000   0.00018   0.00018  -1.03468
   D16        1.03533   0.00001   0.00000   0.00038   0.00038   1.03572
         Item               Value     Threshold  Converged?
 Maximum Force            0.000137     0.000450     YES
 RMS     Force            0.000033     0.000300     YES
 Maximum Displacement     0.000976     0.001800     YES
 RMS     Displacement     0.000316     0.001200     YES
 Predicted change in Energy=-7.061932D-08
 Optimization completed.
    -- Stationary point found.
                           ----------------------------
                           !   Optimized Parameters   !
                           ! (Angstroms and Degrees)  !
 --------------------------                            --------------------------
 ! Name  Definition              Value          Derivative Info.                !
 --------------------------------------------------------------------------------
 ! R1    R(1,2)                  1.3357         -DE/DX =   -0.0001              !
 ! R2    R(1,4)                  1.4742         -DE/DX =    0.0                 !
 ! R3    R(1,5)                  1.1054         -DE/DX =    0.0                 !
 ! R4    R(2,3)                  1.4742         -DE/DX =    0.0                 !
 ! R5    R(2,6)                  1.1054         -DE/DX =    0.0                 !
 ! R6    R(3,7)                  1.1165         -DE/DX =    0.0001              !
 ! R7    R(3,8)                  1.1196         -DE/DX =    0.0                 !
 ! R8    R(3,9)                  1.1196         -DE/DX =    0.0                 !
 ! R9    R(4,10)                 1.1196         -DE/DX =    0.0                 !
 ! R10   R(4,11)                 1.1165         -DE/DX =    0.0001              !
 ! R11   R(4,12)                 1.1196         -DE/DX =    0.0                 !
 ! A1    A(2,1,4)              127.2266         -DE/DX =    0.0                 !
 ! A2    A(2,1,5)              118.9688         -DE/DX =    0.0                 !
 ! A3    A(4,1,5)              113.8046         -DE/DX =    0.0                 !
 ! A4    A(1,2,3)              127.2268         -DE/DX =    0.0                 !
 ! A5    A(1,2,6)              118.9686         -DE/DX =    0.0                 !
 ! A6    A(3,2,6)              113.8046         -DE/DX =    0.0                 !
 ! A7    A(2,3,7)              112.8362         -DE/DX =    0.0                 !
 ! A8    A(2,3,8)              109.8244         -DE/DX =    0.0                 !
 ! A9    A(2,3,9)              109.8243         -DE/DX =    0.0                 !
 ! A10   A(7,3,8)              108.1154         -DE/DX =    0.0                 !
 ! A11   A(7,3,9)              108.116          -DE/DX =    0.0                 !
 ! A12   A(8,3,9)              107.9869         -DE/DX =    0.0                 !
 ! A13   A(1,4,10)             109.8239         -DE/DX =    0.0                 !
 ! A14   A(1,4,11)             112.8362         -DE/DX =    0.0                 !
 ! A15   A(1,4,12)             109.8248         -DE/DX =    0.0                 !
 ! A16   A(10,4,11)            108.116          -DE/DX =    0.0                 !
 ! A17   A(10,4,12)            107.9867         -DE/DX =    0.0                 !
 ! A18   A(11,4,12)            108.1155         -DE/DX =    0.0                 !
 ! D1    D(4,1,2,3)              0.0003         -DE/DX =    0.0                 !
 ! D2    D(4,1,2,6)           -179.9981         -DE/DX =    0.0                 !
 ! D3    D(5,1,2,3)           -180.0016         -DE/DX =    0.0                 !
 ! D4    D(5,1,2,6)              0.0            -DE/DX =    0.0                 !
 ! D5    D(2,1,4,10)          -120.6648         -DE/DX =    0.0                 !
 ! D6    D(2,1,4,11)             0.0288         -DE/DX =    0.0                 !
 ! D7    D(2,1,4,12)           120.7223         -DE/DX =    0.0                 !
 ! D8    D(5,1,4,10)            59.3371         -DE/DX =    0.0                 !
 ! D9    D(5,1,4,11)          -179.9694         -DE/DX =    0.0                 !
 ! D10   D(5,1,4,12)           -59.2759         -DE/DX =    0.0                 !
 ! D11   D(1,2,3,7)              0.0155         -DE/DX =    0.0                 !
 ! D12   D(1,2,3,8)            120.7085         -DE/DX =    0.0                 !
 ! D13   D(1,2,3,9)           -120.6783         -DE/DX =    0.0                 !
 ! D14   D(6,2,3,7)           -179.9861         -DE/DX =    0.0                 !
 ! D15   D(6,2,3,8)            -59.293          -DE/DX =    0.0                 !
 ! D16   D(6,2,3,9)             59.3201         -DE/DX =    0.0                 !
 --------------------------------------------------------------------------------
 GradGradGradGradGradGradGradGradGradGradGradGradGradGradGradGradGradGrad

 1\1\GINC-GTX1080DELTA\Freq\RAM1\ZDO\C4H8\MVEROT\16-Apr-2022\0\\#N Geom
 =AllCheck Guess=TCheck SCRF=Check GenChk RAM1/ZDO Freq\\Optimisation d
 e geometrie\\0,1\C,1.1896317392,1.4398195306,0.5878345122\C,2.47421446
 06,1.0749426509,0.6148526079\C,3.6368603525,1.9265080282,0.9250469828\
 C,0.6368640442,2.7786397058,0.8619436407\H,0.4234633718,0.6837173133,0
 .3362612644\H,2.7378870729,0.0263192171,0.3849385968\H,3.3523062874,2.
 9814254289,1.1548682091\H,4.1850261899,1.5132308091,1.8094981607\H,4.3
 420877776,1.9376994159,0.0555259258\H,-0.0800054808,2.7249999978,1.720
 291256\H,1.4241605025,3.5293099381,1.1135319927\H,0.0765036823,3.14878
 79643,-0.0338931491\\Version=AM64L-G09RevD.01\State=1-A\HF=-0.0036329\
 RMSD=4.991e-10\RMSF=4.451e-05\ZeroPoint=0.1082107\Thermal=0.1122973\Di
 pole=0.017004,0.0610691,0.0162859\DipoleDeriv=-0.0987893,-0.0791785,-0
 .0065968,-0.1399227,0.0107021,0.0477284,-0.0213343,0.0531679,-0.227566
 6,0.0261188,0.0666337,0.0398491,0.1273988,-0.1167124,0.0408681,0.05450
 31,0.0354372,-0.2250599,-0.0936144,0.0097805,-0.0048211,0.0522719,-0.0
 905091,-0.0139233,0.0054986,-0.0177552,-0.0172701,-0.1196951,0.0091629
 ,-0.0073181,-0.0333605,-0.0638903,-0.015215,-0.0175124,-0.011403,-0.01
 78101,0.0847199,0.024177,0.0012319,0.0767215,0.028754,-0.0190476,0.013
 9354,-0.0237764,0.1315446,0.025655,-0.020953,-0.0149762,-0.0735009,0.0
 890073,-0.0179659,-0.0276713,-0.0132501,0.1303548,0.0337287,-0.0139078
 ,-0.0039151,0.0070404,0.0124254,-0.0060258,0.0011435,-0.0079003,0.0381
 356,0.0184268,0.0011967,-0.0119779,-0.0320727,0.0364097,0.0044906,-0.0
 029966,0.0015419,0.0390407,0.0177413,-0.0032639,0.0079028,-0.0278296,0
 .0407566,-0.00958,-0.0150737,-0.0014467,0.0353665,0.0365941,-0.0015316
 ,0.0124709,0.0317199,0.0176036,-0.0010055,0.0029059,-0.0000743,0.03966
 35,0.031113,0.0027109,-0.0001268,-0.0182312,0.0150921,-0.0076428,-0.00
 52073,-0.0057601,0.0380851,0.0380013,0.005173,-0.0117229,0.0297648,0.0
 203611,-0.0026816,0.011809,-0.0087814,0.0355176\Polar=54.1598603,-6.90
 90226,31.9776187,1.3136328,2.0638365,21.4979861\HyperPolar=-37.5105664
 ,-38.4129434,21.2963489,-21.8447733,-12.7428583,1.4468235,-4.1346553,-
 0.3948168,0.606349,0.9651409\PG=C01 [X(C4H8)]\NImag=2\\0.95541993,-0.1
 4739186,0.63988266,0.03580058,0.10301442,0.18727309,-0.60282734,0.1474
 8761,-0.01314839,0.99694128,0.15182369,-0.11880562,-0.00089787,-0.0787
 2657,0.59752310,-0.01209901,-0.00128771,-0.06015679,0.05612127,0.09893
 419,0.18810962,-0.05574591,-0.01821516,-0.01001448,-0.22360525,-0.1184
 2624,-0.04230865,0.56761852,-0.00411957,0.00785279,-0.00011423,-0.1222
 9717,-0.16047443,-0.03256457,0.03823727,0.55578483,-0.00660577,-0.0013
 7863,0.00586963,-0.04324804,-0.03221836,-0.08283643,0.01622439,0.01937
 573,0.49600338,-0.09995722,0.08218309,0.01728741,-0.02863740,0.0407118
 2,0.00666554,-0.00077476,0.00072012,0.00041734,0.53037031,0.08605640,-
 0.28661731,-0.04437176,0.02661568,-0.01980287,-0.00404258,-0.00046359,
 -0.00029610,0.00072975,-0.02336229,0.59379537,0.01821871,-0.04471273,-
 0.08034296,0.00325898,-0.00277903,0.00641639,0.00013071,0.00083606,-0.
 00327255,-0.00201100,0.02302134,0.49524277,-0.16414517,-0.12478121,-0.
 04106749,-0.03978519,-0.01942043,-0.00877156,-0.00206595,0.00179323,-0
 .00060601,0.00634391,0.00168479,0.00029562,0.20109871,-0.12775083,-0.1
 6212167,-0.04033515,-0.00142418,0.00561805,-0.00013391,0.00133583,0.00
 025094,-0.00212123,-0.01379467,-0.03419521,-0.01133945,0.13917773,0.19
 333945,-0.04178549,-0.04006894,-0.05615479,-0.00442015,-0.00174859,0.0
 0482416,-0.00071614,-0.00208016,0.00895180,-0.00344878,-0.00995150,0.0
 0487146,0.04960405,0.05359504,0.04074011,-0.01826988,0.03415664,0.0061
 1378,-0.05173733,0.05814237,0.01325051,0.00088803,-0.02281737,-0.00611
 839,-0.00276484,0.00018014,-0.00105857,-0.00100380,0.00056350,0.000384
 53,0.07548798,0.01616053,-0.01633086,-0.00386382,0.06111179,-0.2767943
 3,-0.05111967,-0.00733746,-0.02862920,-0.00941555,0.00063737,0.0009638
 3,-0.00201130,0.00021223,0.00033488,0.00101196,-0.06854990,0.32148040,
 0.00176192,-0.00224930,0.00525771,0.01396899,-0.05138633,-0.05388935,-
 0.00237590,-0.01080357,0.00476135,-0.00094775,-0.00205239,0.00893781,0
 .00029969,0.00104340,-0.00349219,-0.01189668,0.06594547,0.03820929,-0.
 00016889,-0.00040175,-0.00011470,0.00338051,-0.02598800,-0.00633910,-0
 .05729601,0.06202595,0.01358057,-0.00175405,-0.00060885,-0.00029752,0.
 00014815,0.00003636,0.00002797,-0.00233694,-0.00181976,-0.00070503,0.0
 7138301,-0.00001209,0.00008762,0.00001378,-0.00689117,-0.02923829,-0.0
 0864547,0.06026926,-0.25849921,-0.04716243,0.00034354,0.00048284,0.000
 16482,0.00013773,-0.00006564,0.00001170,-0.00152142,-0.00058169,-0.000
 42674,-0.06987501,0.31138315,-0.00002071,-0.00002088,0.00001909,-0.001
 71660,-0.01035580,0.00127782,0.01315543,-0.04700582,-0.05152140,-0.000
 06840,0.00007939,-0.00006013,0.00005221,0.00000251,-0.00005708,-0.0006
 3290,-0.00045325,0.00045221,-0.01418832,0.05917379,0.05406851,-0.00075
 596,-0.00173616,-0.00062282,-0.02449750,0.00069977,-0.02577527,-0.0949
 4282,0.04501814,-0.09324863,0.00004739,0.00004716,-0.00037105,-0.00039
 637,-0.00016174,0.00120023,0.00000086,-0.00019759,-0.00000889,-0.00342
 763,0.01081924,-0.00909795,0.11614400,-0.00152026,-0.00106000,-0.00032
 303,-0.00955022,0.00726752,-0.01185675,0.04460466,-0.07481126,0.071128
 29,0.00021711,-0.00005319,-0.00020850,-0.00030661,-0.00005750,0.000908
 27,-0.00032506,-0.00017967,-0.00011280,0.01665642,-0.01859591,0.020572
 33,-0.04990679,0.08449030,0.00028281,-0.00033527,-0.00040556,-0.016135
 64,-0.00169398,-0.00826824,-0.09235819,0.07157637,-0.19103390,0.000028
 10,0.00003907,-0.00002322,-0.00006035,-0.00005305,0.00023692,-0.000251
 71,-0.00028845,-0.00008843,-0.00224834,0.00405149,0.00302432,0.1162789
 9,-0.08505396,0.22663777,-0.00066716,-0.00181118,-0.00030312,-0.030472
 86,-0.01076010,0.01861859,-0.13287635,-0.00016626,0.11932563,-0.000021
 17,-0.00011613,0.00034834,-0.00017583,0.00040550,-0.00117800,-0.000021
 46,-0.00021730,-0.00009529,-0.00641481,0.00672882,0.01287291,0.0077683
 6,0.00018806,-0.00554722,0.16282383,-0.00120888,-0.00106599,-0.0002748
 5,-0.01706209,-0.00036472,0.01168764,-0.00020071,-0.04094993,0.0011060
 5,0.00017150,-0.00011880,0.00017874,-0.00013104,0.00034367,-0.00083828
 ,-0.00040903,-0.00029883,-0.00007391,0.01771962,-0.00495583,-0.0220865
 2,-0.00459300,0.00294277,0.01177939,0.00575843,0.04441859,-0.00101151,
 -0.00033595,-0.00048708,0.00497531,0.00300807,0.00533965,0.11832521,0.
 00069642,-0.18695985,0.00005970,-0.00011020,0.00011056,-0.00008183,0.0
 0018442,-0.00038458,0.00007033,0.00013080,0.00005266,0.01009583,-0.007
 07243,-0.00762804,0.01166889,0.00491563,-0.03007099,-0.14407721,-0.001
 46725,0.22002626,-0.01284425,0.01160760,0.01538627,0.00061716,0.000708
 73,0.00039139,-0.00010640,-0.00001888,0.00020299,-0.13844132,-0.010360
 62,0.11885176,0.00018345,-0.00001345,-0.00004095,-0.00007235,0.0001804
 4,-0.00055757,0.00005230,-0.00003968,0.00004712,0.00004016,-0.00001384
 ,0.00000104,-0.00001371,0.00002942,-0.00000838,0.16310947,0.02233955,-
 0.00583646,-0.02281937,0.00050212,-0.00243817,-0.00056025,-0.00017423,
 0.00008907,-0.00038120,-0.00991808,-0.04005153,0.00944755,0.00010388,-
 0.00036891,-0.00009247,0.00027351,-0.00034571,0.00142214,0.00004264,0.
 00000236,0.00000154,-0.00001103,-0.00000098,-0.00001311,0.00001091,0.0
 0003566,0.00002649,0.00692874,0.04837226,0.01240881,-0.00951123,-0.006
 81716,-0.00038403,-0.00008589,-0.00039897,-0.00000439,0.00004601,-0.00
 001193,0.11832474,0.01028371,-0.18229066,0.00007142,-0.00037482,-0.000
 08233,0.00000828,-0.00006349,0.00020133,0.00000516,-0.00001382,0.00000
 541,-0.00000604,-0.00001113,-0.00000242,-0.00001753,0.00001128,-0.0000
 1098,-0.14614474,-0.00900471,0.21578428,0.00917716,0.00269535,0.001118
 24,0.00008282,0.00040412,0.00010253,-0.00103248,0.00153654,0.00028571,
 -0.16467185,-0.11731007,-0.03934509,-0.00038220,0.00171118,0.00032458,
 0.00001337,-0.00008522,-0.00001338,-0.00362518,0.00005844,-0.00035116,
 0.00003920,-0.00006538,-0.00000977,0.00003188,-0.00005942,-0.00001486,
 -0.02073657,-0.01628352,0.00331874,0.19670440,-0.01640455,-0.03515896,
 -0.01090937,0.00001460,-0.00016914,-0.00004577,0.00058460,-0.00025368,
 0.00000910,-0.11555329,-0.14903568,-0.03632974,0.00141297,-0.00257572,
 -0.00064557,-0.00018640,0.00007202,0.00001525,0.00217432,-0.00001645,0
 .00008903,0.00001814,0.00001770,-0.00000847,-0.00000490,0.00002337,0.0
 0001762,-0.00988677,-0.00195652,0.00194622,0.13738320,0.18362893,-0.00
 349398,-0.00920564,0.00140178,0.00000795,-0.00001092,0.00002409,0.0000
 5489,0.00009481,-0.00004518,-0.03892022,-0.03648571,-0.05360975,0.0002
 5180,-0.00061927,0.00049150,-0.00003825,0.00002480,-0.00005995,0.00015
 994,-0.00010133,0.00041567,-0.00003815,0.00002331,0.00000329,0.0000469
 7,-0.00002663,0.00000479,0.01775936,0.01216812,0.00369425,0.04708318,0
 .04670707,0.05650203,-0.00921528,0.01620713,-0.01043524,0.00054110,0.0
 0083078,0.00014374,-0.00006061,0.00008798,-0.00020982,-0.09973894,0.03
 763743,-0.09802088,0.00018028,-0.00008523,0.00004814,-0.00018365,-0.00
 009512,0.00056987,0.00005960,-0.00001768,-0.00005162,-0.00001970,0.000
 02190,0.00002030,0.00003925,-0.00001479,-0.00000148,0.00821204,-0.0038
 1450,0.01241957,-0.01560054,0.00044806,-0.02287348,0.11578644,0.022027
 86,-0.02082615,0.02088122,0.00021964,-0.00232103,-0.00036515,-0.000214
 24,-0.00006373,0.00032850,0.03764382,-0.06507128,0.06373225,0.00011673
 ,-0.00050239,-0.00010146,0.00049302,0.00030913,-0.00132124,0.00003811,
 -0.00000298,0.00000368,0.00000390,0.00004017,-0.00000001,-0.00001585,-
 0.00001000,0.00000639,0.00087827,0.00249888,0.00677788,-0.00998528,0.0
 0542414,-0.01256861,-0.05120597,0.08052520,-0.00345637,0.00609185,0.00
 454314,0.00072034,-0.00076550,-0.00044184,-0.00011288,-0.00005704,0.00
 009516,-0.09738667,0.06286088,-0.19597967,0.00001246,0.00015149,0.0000
 5502,0.00016905,0.00010250,-0.00034244,0.00002355,0.00000663,0.0000035
 5,0.00002063,0.00001838,-0.00000959,0.00000600,0.00000431,0.00000755,-
 0.00588822,0.00980524,-0.03007090,-0.01249874,-0.00084534,-0.00882259,
 0.11839084,-0.07737340,0.23096253\\-0.00009546,0.00009725,0.00001936,0
 .00013139,0.00003407,0.00002114,0.00005715,0.00004609,0.00001498,-0.00
 002392,0.00006908,0.00001272,-0.00003239,-0.00002219,-0.00001010,0.000
 01600,-0.00003655,-0.00000824,-0.00001846,-0.00005894,-0.00001591,-0.0
 0002342,-0.00000068,-0.00004661,-0.00003078,-0.00002090,0.00003678,0.0
 0002127,-0.00001376,-0.00004598,-0.00001482,-0.00006038,-0.00001579,0.
 00001344,-0.00003311,0.00003766\\\@


 THERE IS MORE TO LIFE THAN INCREASING ITS SPEED.

                                       -- GANDHI
 Job cpu time:       0 days  0 hours  0 minutes  1.0 seconds.
 File lengths (MBytes):  RWF=     82 Int=      0 D2E=      0 Chk=      2 Scr=      2
 Normal termination of Gaussian 09 at Sat Apr 16 11:42:58 2022.
