 Entering Gaussian System, Link 0=g09
 Input=/scratch/mverot/anthracene-2-6-opt-zindo/anthracene-2-6-opt-zindo.com
 Output=/scratch/mverot/anthracene-2-6-opt-zindo/anthracene-2-6-opt-zindo.log
 Initial command:
 /opt/g09/l1.exe "/scratch/mverot/anthracene-2-6-opt-zindo/Gau-2824221.inp" -scrdir="/scratch/mverot/anthracene-2-6-opt-zindo/"
 Entering Link 1 = /opt/g09/l1.exe PID=   2824223.
  
 Copyright (c) 1988,1990,1992,1993,1995,1998,2003,2009,2013,
            Gaussian, Inc.  All Rights Reserved.
  
 This is part of the Gaussian(R) 09 program.  It is based on
 the Gaussian(R) 03 system (copyright 2003, Gaussian, Inc.),
 the Gaussian(R) 98 system (copyright 1998, Gaussian, Inc.),
 the Gaussian(R) 94 system (copyright 1995, Gaussian, Inc.),
 the Gaussian 92(TM) system (copyright 1992, Gaussian, Inc.),
 the Gaussian 90(TM) system (copyright 1990, Gaussian, Inc.),
 the Gaussian 88(TM) system (copyright 1988, Gaussian, Inc.),
 the Gaussian 86(TM) system (copyright 1986, Carnegie Mellon
 University), and the Gaussian 82(TM) system (copyright 1983,
 Carnegie Mellon University). Gaussian is a federally registered
 trademark of Gaussian, Inc.
  
 This software contains proprietary and confidential information,
 including trade secrets, belonging to Gaussian, Inc.
  
 This software is provided under written license and may be
 used, copied, transmitted, or stored only in accord with that
 written license.
  
 The following legend is applicable only to US Government
 contracts under FAR:
  
                    RESTRICTED RIGHTS LEGEND
  
 Use, reproduction and disclosure by the US Government is
 subject to restrictions as set forth in subparagraphs (a)
 and (c) of the Commercial Computer Software - Restricted
 Rights clause in FAR 52.227-19.
  
 Gaussian, Inc.
 340 Quinnipiac St., Bldg. 40, Wallingford CT 06492
  
  
 ---------------------------------------------------------------
 Warning -- This program may not be used in any manner that
 competes with the business of Gaussian, Inc. or will provide
 assistance to any competitor of Gaussian, Inc.  The licensee
 of this program is prohibited from giving any competitor of
 Gaussian, Inc. access to this program.  By using this program,
 the user acknowledges that Gaussian, Inc. is engaged in the
 business of creating and licensing software in the field of
 computational chemistry and represents and warrants to the
 licensee that it is not a competitor of Gaussian, Inc. and that
 it will not use this program in any manner prohibited above.
 ---------------------------------------------------------------
  

 Cite this work as:
 Gaussian 09, Revision D.01,
 M. J. Frisch, G. W. Trucks, H. B. Schlegel, G. E. Scuseria, 
 M. A. Robb, J. R. Cheeseman, G. Scalmani, V. Barone, B. Mennucci, 
 G. A. Petersson, H. Nakatsuji, M. Caricato, X. Li, H. P. Hratchian, 
 A. F. Izmaylov, J. Bloino, G. Zheng, J. L. Sonnenberg, M. Hada, 
 M. Ehara, K. Toyota, R. Fukuda, J. Hasegawa, M. Ishida, T. Nakajima, 
 Y. Honda, O. Kitao, H. Nakai, T. Vreven, J. A. Montgomery, Jr., 
 J. E. Peralta, F. Ogliaro, M. Bearpark, J. J. Heyd, E. Brothers, 
 K. N. Kudin, V. N. Staroverov, T. Keith, R. Kobayashi, J. Normand, 
 K. Raghavachari, A. Rendell, J. C. Burant, S. S. Iyengar, J. Tomasi, 
 M. Cossi, N. Rega, J. M. Millam, M. Klene, J. E. Knox, J. B. Cross, 
 V. Bakken, C. Adamo, J. Jaramillo, R. Gomperts, R. E. Stratmann, 
 O. Yazyev, A. J. Austin, R. Cammi, C. Pomelli, J. W. Ochterski, 
 R. L. Martin, K. Morokuma, V. G. Zakrzewski, G. A. Voth, 
 P. Salvador, J. J. Dannenberg, S. Dapprich, A. D. Daniels, 
 O. Farkas, J. B. Foresman, J. V. Ortiz, J. Cioslowski, 
 and D. J. Fox, Gaussian, Inc., Wallingford CT, 2013.
 
 ******************************************
 Gaussian 09:  AM64L-G09RevD.01 24-Apr-2013
                12-Apr-2022 
 ******************************************
 %chk=anthracene-2-6-opt-zindo
 ------------------------------------
 #n ZINDO(NSTATE=10) pop=full gfinput
 ------------------------------------
 1/38=1/1;
 2/12=2,17=6,18=5,40=1/2;
 3/5=2,16=1,24=10,25=1,41=400000/1,2,8,3;
 4/5=3,35=1/1;
 5/5=2,35=1,38=5/2;
 8/6=1,108=10/1;
 9/41=10,42=1,49=10/14;
 6/7=3/1;
 99/5=1,9=1/99;
 ----------
 UV-spectra
 ----------
 Symbolic Z-matrix:
 Charge =  0 Multiplicity = 1
 C                     0.00564   1.46833   0.00037 
 C                     1.26773   0.69139   0.0002 
 C                    -1.25444   0.70246   0.00016 
 O                     0.0131    2.70758   0.00055 
 C                    -0.00075  -1.47927  -0.00027 
 C                    -1.26121  -0.70117  -0.00015 
 O                    -0.01097  -2.7192   -0.00061 
 C                     1.25966  -0.71516  -0.0001 
 C                     2.47676   1.38587   0.00036 
 C                    -2.47365  -1.3943   -0.00034 
 C                     2.47271  -1.41467  -0.00025 
 C                    -2.47079   1.40148   0.00027 
 C                     3.68575   0.66605   0.00021 
 C                     3.68749  -0.73522  -0.0001 
 C                    -3.68493   0.72566   0.00008 
 C                    -3.68065  -0.67925  -0.00022 
 H                     2.48929   2.48809   0.0006 
 H                    -2.46908  -2.49624  -0.00057 
 H                     2.45379  -2.51808  -0.00049 
 H                    -2.45119   2.50512   0.0005 
 H                     4.63558  -1.29185  -0.00021 
 H                    -4.64118   1.26847   0.00016 
 O                     4.83704   1.41329   0.00038 
 H                     5.5919    0.80551   0.00025 
 O                    -4.90574  -1.29828  -0.0004 
 H                    -4.76091  -2.2568   -0.00059 
 
                          Input orientation:                          
 ---------------------------------------------------------------------
 Center     Atomic      Atomic             Coordinates (Angstroms)
 Number     Number       Type             X           Y           Z
 ---------------------------------------------------------------------
      1          6           0        0.005644    1.468333    0.000370
      2          6           0        1.267727    0.691392    0.000203
      3          6           0       -1.254438    0.702465    0.000157
      4          8           0        0.013101    2.707576    0.000553
      5          6           0       -0.000750   -1.479273   -0.000271
      6          6           0       -1.261211   -0.701173   -0.000147
      7          8           0       -0.010971   -2.719204   -0.000614
      8          6           0        1.259663   -0.715159   -0.000103
      9          6           0        2.476763    1.385869    0.000358
     10          6           0       -2.473651   -1.394297   -0.000337
     11          6           0        2.472709   -1.414673   -0.000251
     12          6           0       -2.470786    1.401479    0.000265
     13          6           0        3.685746    0.666049    0.000208
     14          6           0        3.687489   -0.735218   -0.000097
     15          6           0       -3.684926    0.725660    0.000080
     16          6           0       -3.680650   -0.679249   -0.000222
     17          1           0        2.489290    2.488088    0.000598
     18          1           0       -2.469079   -2.496239   -0.000575
     19          1           0        2.453792   -2.518080   -0.000492
     20          1           0       -2.451190    2.505122    0.000504
     21          1           0        4.635580   -1.291855   -0.000214
     22          1           0       -4.641177    1.268468    0.000165
     23          8           0        4.837042    1.413294    0.000376
     24          1           0        5.591899    0.805509    0.000253
     25          8           0       -4.905742   -1.298282   -0.000397
     26          1           0       -4.760915   -2.256804   -0.000591
 ---------------------------------------------------------------------
                    Distance matrix (angstroms):
                    1          2          3          4          5
     1  C    0.000000
     2  C    1.482056   0.000000
     3  C    1.474572   2.522189   0.000000
     4  O    1.239265   2.374676   2.372156   0.000000
     5  C    2.947613   2.514123   2.516290   4.186871   0.000000
     6  C    2.512305   2.886998   1.403654   3.639153   1.481284
     7  O    4.187571   3.642421   3.640609   5.426834   1.239974
     8  C    2.517976   1.406574   2.886237   3.642669   1.473944
     9  C    2.472495   1.394298   3.793271   2.795808   3.787757
    10  C    3.787024   4.283457   2.425467   4.796800   2.474361
    11  C    3.794487   2.426415   4.286478   4.800272   2.474302
    12  C    2.477332   3.805351   1.402898   2.806346   3.794708
    13  C    3.766538   2.418152   4.940318   4.201923   4.265285
    14  C    4.290877   2.808997   5.146803   5.035272   3.762542
    15  C    3.764555   4.952772   2.430599   4.195640   4.293587
    16  C    4.266248   5.134695   2.792067   5.011425   3.765861
    17  H    2.684846   2.172633   4.147765   2.485898   4.684042
    18  H    4.673552   4.911691   3.421558   5.765493   2.669620
    19  H    4.678133   3.421617   4.911505   5.767535   2.665314
    20  H    2.666638   4.137627   2.163743   2.472592   4.677612
    21  H    5.390264   3.908414   6.218490   6.112509   4.640116
    22  H    4.651117   5.937016   3.433709   4.871687   5.392926
    23  O    4.831712   3.641587   6.132815   4.994555   5.636592
    24  H    5.625440   4.325678   6.847112   5.894137   6.041353
    25  O    5.637009   6.486179   4.163533   6.343651   4.908331
    26  H    6.049523   6.710915   4.588317   6.887401   4.823249
                    6          7          8          9         10
     6  C    0.000000
     7  O    2.373931   0.000000
     8  C    2.520913   2.372911   0.000000
     9  C    4.281144   4.800047   2.428097   0.000000
    10  C    1.396579   2.796457   3.794583   5.677668   0.000000
    11  C    3.801478   2.805435   1.400285   2.800545   4.946401
    12  C    2.425741   4.799033   4.289103   4.947573   2.795777
    13  C    5.132414   5.012550   2.791705   1.407047   6.494859
    14  C    4.948817   4.197000   2.427909   2.442308   6.196292
    15  C    2.812517   5.036372   5.150236   6.196958   2.441599
    16  C    2.419539   4.198567   4.940444   6.494494   1.402905
    17  H    4.923174   5.776435   3.431148   1.102290   6.301087
    18  H    2.163610   2.468200   4.132283   6.287457   1.101952
    19  H    4.135504   2.472955   2.162514   3.904017   5.053967
    20  H    3.419996   5.766130   4.913312   5.053458   3.899483
    21  H    5.926301   4.860839   3.424820   3.439578   7.109969
    22  H    3.911989   6.110675   6.225327   7.118908   3.433437
    23  O    6.454429   6.370304   4.162686   2.360439   7.831271
    24  H    7.016780   6.619347   4.591372   3.168736   8.360158
    25  O    3.693122   5.096843   6.192920   7.855320   2.433986
    26  H    3.829872   4.772398   6.214823   8.102657   2.444483
                   11         12         13         14         15
    11  C    0.000000
    12  C    5.689363   0.000000
    13  C    2.408499   6.200301   0.000000
    14  C    1.391888   6.518422   1.401268   0.000000
    15  C    6.519010   1.389557   7.370913   7.515762   0.000000
    16  C    6.197151   2.406907   7.488232   7.368352   1.404916
    17  H    3.902797   5.077703   2.179755   3.438806   6.420834
    18  H    5.058760   3.897719   6.919678   6.403478   3.443679
    19  H    1.103570   6.293998   3.414146   2.168089   6.943034
    20  H    6.293613   1.103816   6.406572   6.941410   2.165315
    21  H    2.166355   7.599637   2.176137   1.099418   8.561611
    22  H    7.603066   2.174463   8.348686   8.566297   1.099571
    23  O    3.686119   7.307838   1.372537   2.436714   8.549666
    24  H    3.828649   8.084681   1.911248   2.449615   9.277169
    25  O    7.379369   3.635619   8.813187   8.611659   2.363627
    26  H    7.282478   4.315985   8.938073   8.584332   3.170622
                   16         17         18         19         20
    16  C    0.000000
    17  H    6.935430   0.000000
    18  H    2.183886   7.030572   0.000000
    19  H    6.404115   5.006295   4.922919   0.000000
    20  H    3.413472   4.940509   5.001393   7.020784   0.000000
    21  H    8.338763   4.346784   7.206019   2.502764   8.039859
    22  H    2.171685   7.234019   4.346382   8.042172   2.515026
    23  O    8.770965   2.582078   8.286366   4.597346   7.369560
    24  H    9.390670   3.529484   8.710965   4.570991   8.220703
    25  O    1.372608   8.308014   2.715222   7.459937   4.526666
    26  H    1.911976   8.664841   2.304309   7.219436   5.292520
                   21         22         23         24         25
    21  H    0.000000
    22  H    9.623589   0.000000
    23  O    2.712640   9.479326   0.000000
    24  H    2.305099  10.243543   0.969129   0.000000
    25  O    9.541324   2.580349  10.113085  10.706372   0.000000
    26  H    9.445911   3.527306  10.275719  10.796227   0.969402
                   26
    26  H    0.000000
 Stoichiometry    C14H8O4
 Framework group  C1[X(C14H8O4)]
 Deg. of freedom    72
 Full point group                 C1      NOp   1
 Largest Abelian subgroup         C1      NOp   1
 Largest concise Abelian subgroup C1      NOp   1
                         Standard orientation:                         
 ---------------------------------------------------------------------
 Center     Atomic      Atomic             Coordinates (Angstroms)
 Number     Number       Type             X           Y           Z
 ---------------------------------------------------------------------
      1          6           0       -0.209583    1.462551   -0.000049
      2          6           0       -1.349771    0.515734   -0.000025
      3          6           0        1.145737    0.881629   -0.000025
      4          8           0       -0.391358    2.688412    0.000036
      5          6           0        0.211550   -1.454822   -0.000044
      6          6           0        1.349969   -0.507087   -0.000025
      7          8           0        0.396159   -2.680977    0.000031
      8          6           0       -1.143850   -0.875685   -0.000024
      9          6           0       -2.644506    1.033159   -0.000008
     10          6           0        2.647884   -1.022693   -0.000007
     11          6           0       -2.246385   -1.738944   -0.000003
     12          6           0        2.251611    1.744858   -0.000005
     13          6           0       -3.740161    0.150368    0.000009
     14          6           0       -3.544694   -1.237200    0.000012
     15          6           0        3.548774    1.246625    0.000011
     16          6           0        3.742247   -0.144905    0.000010
     17          1           0       -2.812019    2.122647   -0.000010
     18          1           0        2.798429   -2.114313   -0.000007
     19          1           0       -2.072380   -2.828709   -0.000001
     20          1           0        2.076900    2.834761   -0.000005
     21          1           0       -4.405016   -1.921719    0.000027
     22          1           0        4.419122    1.918600    0.000026
     23          8           0       -4.985157    0.728160    0.000025
     24          1           0       -5.646971    0.020196    0.000031
     25          8           0        5.042261   -0.585376    0.000028
     26          1           0        5.033763   -1.554741    0.000018
 ---------------------------------------------------------------------
 Rotational constants (GHZ):      1.0289895      0.2612933      0.2083792
 Standard basis: VSTO-6G (5D, 7F)
 AO basis set in the form of general basis input (Overlap normalization):
      1 0
 S   6 1.00       0.000000000000
      0.7310560386D+02 -0.4151277819D-02
      0.1340682447D+02 -0.2067024148D-01
      0.3767606913D+01 -0.5150303337D-01
      0.5387761534D+00  0.3346271174D+00
      0.2445297546D+00  0.5621061301D+00
      0.1166148582D+00  0.1712994697D+00
 P   6 1.00       0.000000000000
      0.1549594249D+02  0.7924233646D-02
      0.4041026682D+01  0.5144104825D-01
      0.1445917850D+01  0.1898400060D+00
      0.6044212998D+00  0.4049863191D+00
      0.2763825918D+00  0.4012362861D+00
      0.1306639377D+00  0.1051855189D+00
 ****
      2 0
 S   6 1.00       0.000000000000
      0.7310560386D+02 -0.4151277819D-02
      0.1340682447D+02 -0.2067024148D-01
      0.3767606913D+01 -0.5150303337D-01
      0.5387761534D+00  0.3346271174D+00
      0.2445297546D+00  0.5621061301D+00
      0.1166148582D+00  0.1712994697D+00
 P   6 1.00       0.000000000000
      0.1549594249D+02  0.7924233646D-02
      0.4041026682D+01  0.5144104825D-01
      0.1445917850D+01  0.1898400060D+00
      0.6044212998D+00  0.4049863191D+00
      0.2763825918D+00  0.4012362861D+00
      0.1306639377D+00  0.1051855189D+00
 ****
      3 0
 S   6 1.00       0.000000000000
      0.7310560386D+02 -0.4151277819D-02
      0.1340682447D+02 -0.2067024148D-01
      0.3767606913D+01 -0.5150303337D-01
      0.5387761534D+00  0.3346271174D+00
      0.2445297546D+00  0.5621061301D+00
      0.1166148582D+00  0.1712994697D+00
 P   6 1.00       0.000000000000
      0.1549594249D+02  0.7924233646D-02
      0.4041026682D+01  0.5144104825D-01
      0.1445917850D+01  0.1898400060D+00
      0.6044212998D+00  0.4049863191D+00
      0.2763825918D+00  0.4012362861D+00
      0.1306639377D+00  0.1051855189D+00
 ****
      4 0
 S   6 1.00       0.000000000000
      0.1432869836D+03 -0.4151277819D-02
      0.2627737596D+02 -0.2067024148D-01
      0.7384509550D+01 -0.5150303337D-01
      0.1056001261D+01  0.3346271174D+00
      0.4792783190D+00  0.5621061301D+00
      0.2285651220D+00  0.1712994697D+00
 P   6 1.00       0.000000000000
      0.3037204728D+02  0.7924233646D-02
      0.7920412296D+01  0.5144104825D-01
      0.2833998986D+01  0.1898400060D+00
      0.1184665748D+01  0.4049863191D+00
      0.5417098800D+00  0.4012362861D+00
      0.2561013179D+00  0.1051855189D+00
 ****
      5 0
 S   6 1.00       0.000000000000
      0.7310560386D+02 -0.4151277819D-02
      0.1340682447D+02 -0.2067024148D-01
      0.3767606913D+01 -0.5150303337D-01
      0.5387761534D+00  0.3346271174D+00
      0.2445297546D+00  0.5621061301D+00
      0.1166148582D+00  0.1712994697D+00
 P   6 1.00       0.000000000000
      0.1549594249D+02  0.7924233646D-02
      0.4041026682D+01  0.5144104825D-01
      0.1445917850D+01  0.1898400060D+00
      0.6044212998D+00  0.4049863191D+00
      0.2763825918D+00  0.4012362861D+00
      0.1306639377D+00  0.1051855189D+00
 ****
      6 0
 S   6 1.00       0.000000000000
      0.7310560386D+02 -0.4151277819D-02
      0.1340682447D+02 -0.2067024148D-01
      0.3767606913D+01 -0.5150303337D-01
      0.5387761534D+00  0.3346271174D+00
      0.2445297546D+00  0.5621061301D+00
      0.1166148582D+00  0.1712994697D+00
 P   6 1.00       0.000000000000
      0.1549594249D+02  0.7924233646D-02
      0.4041026682D+01  0.5144104825D-01
      0.1445917850D+01  0.1898400060D+00
      0.6044212998D+00  0.4049863191D+00
      0.2763825918D+00  0.4012362861D+00
      0.1306639377D+00  0.1051855189D+00
 ****
      7 0
 S   6 1.00       0.000000000000
      0.1432869836D+03 -0.4151277819D-02
      0.2627737596D+02 -0.2067024148D-01
      0.7384509550D+01 -0.5150303337D-01
      0.1056001261D+01  0.3346271174D+00
      0.4792783190D+00  0.5621061301D+00
      0.2285651220D+00  0.1712994697D+00
 P   6 1.00       0.000000000000
      0.3037204728D+02  0.7924233646D-02
      0.7920412296D+01  0.5144104825D-01
      0.2833998986D+01  0.1898400060D+00
      0.1184665748D+01  0.4049863191D+00
      0.5417098800D+00  0.4012362861D+00
      0.2561013179D+00  0.1051855189D+00
 ****
      8 0
 S   6 1.00       0.000000000000
      0.7310560386D+02 -0.4151277819D-02
      0.1340682447D+02 -0.2067024148D-01
      0.3767606913D+01 -0.5150303337D-01
      0.5387761534D+00  0.3346271174D+00
      0.2445297546D+00  0.5621061301D+00
      0.1166148582D+00  0.1712994697D+00
 P   6 1.00       0.000000000000
      0.1549594249D+02  0.7924233646D-02
      0.4041026682D+01  0.5144104825D-01
      0.1445917850D+01  0.1898400060D+00
      0.6044212998D+00  0.4049863191D+00
      0.2763825918D+00  0.4012362861D+00
      0.1306639377D+00  0.1051855189D+00
 ****
      9 0
 S   6 1.00       0.000000000000
      0.7310560386D+02 -0.4151277819D-02
      0.1340682447D+02 -0.2067024148D-01
      0.3767606913D+01 -0.5150303337D-01
      0.5387761534D+00  0.3346271174D+00
      0.2445297546D+00  0.5621061301D+00
      0.1166148582D+00  0.1712994697D+00
 P   6 1.00       0.000000000000
      0.1549594249D+02  0.7924233646D-02
      0.4041026682D+01  0.5144104825D-01
      0.1445917850D+01  0.1898400060D+00
      0.6044212998D+00  0.4049863191D+00
      0.2763825918D+00  0.4012362861D+00
      0.1306639377D+00  0.1051855189D+00
 ****
     10 0
 S   6 1.00       0.000000000000
      0.7310560386D+02 -0.4151277819D-02
      0.1340682447D+02 -0.2067024148D-01
      0.3767606913D+01 -0.5150303337D-01
      0.5387761534D+00  0.3346271174D+00
      0.2445297546D+00  0.5621061301D+00
      0.1166148582D+00  0.1712994697D+00
 P   6 1.00       0.000000000000
      0.1549594249D+02  0.7924233646D-02
      0.4041026682D+01  0.5144104825D-01
      0.1445917850D+01  0.1898400060D+00
      0.6044212998D+00  0.4049863191D+00
      0.2763825918D+00  0.4012362861D+00
      0.1306639377D+00  0.1051855189D+00
 ****
     11 0
 S   6 1.00       0.000000000000
      0.7310560386D+02 -0.4151277819D-02
      0.1340682447D+02 -0.2067024148D-01
      0.3767606913D+01 -0.5150303337D-01
      0.5387761534D+00  0.3346271174D+00
      0.2445297546D+00  0.5621061301D+00
      0.1166148582D+00  0.1712994697D+00
 P   6 1.00       0.000000000000
      0.1549594249D+02  0.7924233646D-02
      0.4041026682D+01  0.5144104825D-01
      0.1445917850D+01  0.1898400060D+00
      0.6044212998D+00  0.4049863191D+00
      0.2763825918D+00  0.4012362861D+00
      0.1306639377D+00  0.1051855189D+00
 ****
     12 0
 S   6 1.00       0.000000000000
      0.7310560386D+02 -0.4151277819D-02
      0.1340682447D+02 -0.2067024148D-01
      0.3767606913D+01 -0.5150303337D-01
      0.5387761534D+00  0.3346271174D+00
      0.2445297546D+00  0.5621061301D+00
      0.1166148582D+00  0.1712994697D+00
 P   6 1.00       0.000000000000
      0.1549594249D+02  0.7924233646D-02
      0.4041026682D+01  0.5144104825D-01
      0.1445917850D+01  0.1898400060D+00
      0.6044212998D+00  0.4049863191D+00
      0.2763825918D+00  0.4012362861D+00
      0.1306639377D+00  0.1051855189D+00
 ****
     13 0
 S   6 1.00       0.000000000000
      0.7310560386D+02 -0.4151277819D-02
      0.1340682447D+02 -0.2067024148D-01
      0.3767606913D+01 -0.5150303337D-01
      0.5387761534D+00  0.3346271174D+00
      0.2445297546D+00  0.5621061301D+00
      0.1166148582D+00  0.1712994697D+00
 P   6 1.00       0.000000000000
      0.1549594249D+02  0.7924233646D-02
      0.4041026682D+01  0.5144104825D-01
      0.1445917850D+01  0.1898400060D+00
      0.6044212998D+00  0.4049863191D+00
      0.2763825918D+00  0.4012362861D+00
      0.1306639377D+00  0.1051855189D+00
 ****
     14 0
 S   6 1.00       0.000000000000
      0.7310560386D+02 -0.4151277819D-02
      0.1340682447D+02 -0.2067024148D-01
      0.3767606913D+01 -0.5150303337D-01
      0.5387761534D+00  0.3346271174D+00
      0.2445297546D+00  0.5621061301D+00
      0.1166148582D+00  0.1712994697D+00
 P   6 1.00       0.000000000000
      0.1549594249D+02  0.7924233646D-02
      0.4041026682D+01  0.5144104825D-01
      0.1445917850D+01  0.1898400060D+00
      0.6044212998D+00  0.4049863191D+00
      0.2763825918D+00  0.4012362861D+00
      0.1306639377D+00  0.1051855189D+00
 ****
     15 0
 S   6 1.00       0.000000000000
      0.7310560386D+02 -0.4151277819D-02
      0.1340682447D+02 -0.2067024148D-01
      0.3767606913D+01 -0.5150303337D-01
      0.5387761534D+00  0.3346271174D+00
      0.2445297546D+00  0.5621061301D+00
      0.1166148582D+00  0.1712994697D+00
 P   6 1.00       0.000000000000
      0.1549594249D+02  0.7924233646D-02
      0.4041026682D+01  0.5144104825D-01
      0.1445917850D+01  0.1898400060D+00
      0.6044212998D+00  0.4049863191D+00
      0.2763825918D+00  0.4012362861D+00
      0.1306639377D+00  0.1051855189D+00
 ****
     16 0
 S   6 1.00       0.000000000000
      0.7310560386D+02 -0.4151277819D-02
      0.1340682447D+02 -0.2067024148D-01
      0.3767606913D+01 -0.5150303337D-01
      0.5387761534D+00  0.3346271174D+00
      0.2445297546D+00  0.5621061301D+00
      0.1166148582D+00  0.1712994697D+00
 P   6 1.00       0.000000000000
      0.1549594249D+02  0.7924233646D-02
      0.4041026682D+01  0.5144104825D-01
      0.1445917850D+01  0.1898400060D+00
      0.6044212998D+00  0.4049863191D+00
      0.2763825918D+00  0.4012362861D+00
      0.1306639377D+00  0.1051855189D+00
 ****
     17 0
 S   6 1.00       0.000000000000
      0.3326836535D+02  0.9163596281D-02
      0.6099718369D+01  0.4936149294D-01
      0.1706481387D+01  0.1685383049D+00
      0.5862224134D+00  0.3705627997D+00
      0.2276473177D+00  0.4164915298D+00
      0.9375773694D-01  0.1303340841D+00
 ****
     18 0
 S   6 1.00       0.000000000000
      0.3326836535D+02  0.9163596281D-02
      0.6099718369D+01  0.4936149294D-01
      0.1706481387D+01  0.1685383049D+00
      0.5862224134D+00  0.3705627997D+00
      0.2276473177D+00  0.4164915298D+00
      0.9375773694D-01  0.1303340841D+00
 ****
     19 0
 S   6 1.00       0.000000000000
      0.3326836535D+02  0.9163596281D-02
      0.6099718369D+01  0.4936149294D-01
      0.1706481387D+01  0.1685383049D+00
      0.5862224134D+00  0.3705627997D+00
      0.2276473177D+00  0.4164915298D+00
      0.9375773694D-01  0.1303340841D+00
 ****
     20 0
 S   6 1.00       0.000000000000
      0.3326836535D+02  0.9163596281D-02
      0.6099718369D+01  0.4936149294D-01
      0.1706481387D+01  0.1685383049D+00
      0.5862224134D+00  0.3705627997D+00
      0.2276473177D+00  0.4164915298D+00
      0.9375773694D-01  0.1303340841D+00
 ****
     21 0
 S   6 1.00       0.000000000000
      0.3326836535D+02  0.9163596281D-02
      0.6099718369D+01  0.4936149294D-01
      0.1706481387D+01  0.1685383049D+00
      0.5862224134D+00  0.3705627997D+00
      0.2276473177D+00  0.4164915298D+00
      0.9375773694D-01  0.1303340841D+00
 ****
     22 0
 S   6 1.00       0.000000000000
      0.3326836535D+02  0.9163596281D-02
      0.6099718369D+01  0.4936149294D-01
      0.1706481387D+01  0.1685383049D+00
      0.5862224134D+00  0.3705627997D+00
      0.2276473177D+00  0.4164915298D+00
      0.9375773694D-01  0.1303340841D+00
 ****
     23 0
 S   6 1.00       0.000000000000
      0.1432869836D+03 -0.4151277819D-02
      0.2627737596D+02 -0.2067024148D-01
      0.7384509550D+01 -0.5150303337D-01
      0.1056001261D+01  0.3346271174D+00
      0.4792783190D+00  0.5621061301D+00
      0.2285651220D+00  0.1712994697D+00
 P   6 1.00       0.000000000000
      0.3037204728D+02  0.7924233646D-02
      0.7920412296D+01  0.5144104825D-01
      0.2833998986D+01  0.1898400060D+00
      0.1184665748D+01  0.4049863191D+00
      0.5417098800D+00  0.4012362861D+00
      0.2561013179D+00  0.1051855189D+00
 ****
     24 0
 S   6 1.00       0.000000000000
      0.3326836535D+02  0.9163596281D-02
      0.6099718369D+01  0.4936149294D-01
      0.1706481387D+01  0.1685383049D+00
      0.5862224134D+00  0.3705627997D+00
      0.2276473177D+00  0.4164915298D+00
      0.9375773694D-01  0.1303340841D+00
 ****
     25 0
 S   6 1.00       0.000000000000
      0.1432869836D+03 -0.4151277819D-02
      0.2627737596D+02 -0.2067024148D-01
      0.7384509550D+01 -0.5150303337D-01
      0.1056001261D+01  0.3346271174D+00
      0.4792783190D+00  0.5621061301D+00
      0.2285651220D+00  0.1712994697D+00
 P   6 1.00       0.000000000000
      0.3037204728D+02  0.7924233646D-02
      0.7920412296D+01  0.5144104825D-01
      0.2833998986D+01  0.1898400060D+00
      0.1184665748D+01  0.4049863191D+00
      0.5417098800D+00  0.4012362861D+00
      0.2561013179D+00  0.1051855189D+00
 ****
     26 0
 S   6 1.00       0.000000000000
      0.3326836535D+02  0.9163596281D-02
      0.6099718369D+01  0.4936149294D-01
      0.1706481387D+01  0.1685383049D+00
      0.5862224134D+00  0.3705627997D+00
      0.2276473177D+00  0.4164915298D+00
      0.9375773694D-01  0.1303340841D+00
 ****

 There are    80 symmetry adapted cartesian basis functions of A   symmetry.
 There are    80 symmetry adapted basis functions of A   symmetry.
    80 basis functions,   480 primitive gaussians,    80 cartesian basis functions
    44 alpha electrons       44 beta electrons
       nuclear repulsion energy       594.5542834406 Hartrees.
 Integral buffers will be    131072 words long.
 Regular integral format.
 Two-electron integral symmetry is turned off.
 Do NDO integrals.
 One-electron integrals computed using PRISM.
 Generate ZINDO/S integrals.
 NDO Nuclear repulsion=   460.295423134233 Hartrees.
 NBasis=    80 RedAO= F EigKep=  0.00D+00  NBF=    80
 NBsUse=    80 1.00D-04 EigRej=  0.00D+00 NBFU=    80
 DipDrv:  will hold  3 matrices at once.
 Simple Huckel Guess.
 Overlap will be assumed to be unity.
 Requested convergence on RMS density matrix=1.00D-08 within 128 cycles.
 Requested convergence on MAX density matrix=1.00D-06.
 Requested convergence on             energy=1.00D-06.
 No special actions if energy rises.
 SCF Done:  E(RZINDO/S) =  -132.235405847     A.U. after   14 cycles
            NFock= 14  Conv=0.55D-08     -V/T= 0.8814
 Range of M.O.s used for correlation:     1    80
 NBasis=    80 NAE=    44 NBE=    44 NFC=     0 NFV=     0
 NROrb=     80 NOA=    44 NOB=    44 NVA=    36 NVB=    36
 Orbital symmetries:
       Occupied  (A) (A) (A) (A) (A) (A) (A) (A) (A) (A) (A) (A)
                 (A) (A) (A) (A) (A) (A) (A) (A) (A) (A) (A) (A)
                 (A) (A) (A) (A) (A) (A) (A) (A) (A) (A) (A) (A)
                 (A) (A) (A) (A) (A) (A) (A) (A)
       Virtual   (A) (A) (A) (A) (A) (A) (A) (A) (A) (A) (A) (A)
                 (A) (A) (A) (A) (A) (A) (A) (A) (A) (A) (A) (A)
                 (A) (A) (A) (A) (A) (A) (A) (A) (A) (A) (A) (A)
    40 initial guesses have been made.
 Convergence on wavefunction:    0.001000000000000
 Iteration     1 Dimension    40 NMult     0 NNew     40
 CISAX will form    40 AO SS matrices at one time.
 New state      1 was old state      5
 New state      2 was old state      6
 New state      3 was old state      1
 New state      4 was old state      2
 New state      5 was old state      3
 New state      6 was old state      4
 New state     10 was old state     12
 Iteration     2 Dimension    80 NMult    40 NNew     40
 New state      9 was old state     10
 New state     10 was old state      9
 Iteration     3 Dimension    90 NMult    80 NNew     10
 Iteration     4 Dimension   100 NMult    90 NNew     10
 Iteration     5 Dimension   110 NMult   100 NNew     10
 Iteration     6 Dimension   112 NMult   110 NNew      2
 ***********************************************************************
 Excited states from <AA,BB:AA,BB> singles matrix:
 ***********************************************************************
 
 Ground to excited state transition densities written to RWF  633
 Ground to excited state transition electric dipole moments (Au):
       state          X           Y           Z        Dip. S.      Osc.
         1        -0.0001      0.0001     -0.0006      0.0000      0.0000
         2         0.0000      0.0000      0.0012      0.0000      0.0000
         3         0.0540      0.0692      0.0000      0.0077      0.0007
         4        -1.5918      0.6443     -0.0000      2.9491      0.2814
         5         0.0086      0.0113     -0.0000      0.0002      0.0000
         6         1.0346     -1.5802     -0.0000      3.5674      0.3817
         7        -2.9593     -1.3823      0.0000     10.6679      1.2826
         8         0.1333      0.1982      0.0000      0.0571      0.0070
         9        -0.0557      0.0289     -0.0000      0.0039      0.0005
        10        -0.1252     -0.7331     -0.0000      0.5532      0.0720
 Ground to excited state transition velocity dipole moments (Au):
       state          X           Y           Z        Dip. S.      Osc.
         1         0.0000     -0.0000      0.0004      0.0000      0.0000
         2        -0.0000     -0.0000     -0.0005      0.0000      0.0000
         3        -0.0063     -0.0069      0.0000      0.0001      0.0004
         4         0.1279     -0.0128      0.0000      0.0165      0.0770
         5        -0.0013     -0.0014      0.0000      0.0000      0.0000
         6        -0.0880      0.0650      0.0000      0.0120      0.0497
         7         0.3388      0.0996      0.0000      0.1247      0.4609
         8        -0.0185     -0.0181      0.0000      0.0007      0.0024
         9         0.0044     -0.0071     -0.0000      0.0001      0.0002
        10         0.0224      0.0446      0.0000      0.0025      0.0085
 Ground to excited state transition magnetic dipole moments (Au):
       state          X           Y           Z
         1         0.1397     -0.9622     -0.0000
         2        -0.0239      0.1600     -0.0001
         3        -0.0000     -0.0000     -1.1487
         4        -0.0000     -0.0000     -0.0534
         5         0.0000     -0.0000     -0.5147
         6         0.0000     -0.0000      0.0328
         7         0.0000     -0.0000     -0.0968
         8         0.0000      0.0000      0.3428
         9         0.0000      0.0000      0.6555
        10         0.0000     -0.0000     -0.0563
 Ground to excited state transition velocity quadrupole moments (Au):
       state          XX          YY          ZZ          XY          XZ          YZ
         1         0.0000      0.0000     -0.0000      0.0000      0.0140     -0.0009
         2        -0.0001      0.0001     -0.0000      0.0000     -0.0012     -0.0004
         3         0.4143     -0.0987      0.0007     -0.1708     -0.0000     -0.0000
         4        -0.0822      0.0209     -0.0006     -0.0313     -0.0000     -0.0000
         5        -0.2922      0.0140     -0.0171     -0.0277      0.0000     -0.0000
         6         0.0762     -0.0160      0.0007      0.0728     -0.0000      0.0000
         7         0.1434     -0.0158      0.0031     -0.0413      0.0000      0.0000
         8         1.6811     -0.2492      0.0354      0.5120     -0.0000     -0.0000
         9         0.1233      0.1017     -0.0218      0.2398      0.0000      0.0000
        10        -0.0485      0.0176      0.0005     -0.0651     -0.0000     -0.0000
 <0|del|b> * <b|rxdel|0> + <0|del|b> * <b|delr+rdel|0>
 Rotatory Strengths (R) in cgs (10**-40 erg-esu-cm/Gauss)
       state          XX          YY          ZZ    R(velocity)    E-M Angle
         1         0.0239      0.0172      0.0406      0.0272       90.00
         2        -0.0011      0.0006     -0.0010     -0.0005       90.00
         3        -0.0019     -0.0014      0.0001     -0.0011       90.00
         4         0.0006     -0.0015      0.0009     -0.0000       90.00
         5        -0.0034     -0.0031      0.0000     -0.0021       90.00
         6        -0.0050     -0.0061     -0.0100     -0.0070       90.00
         7        -0.0079      0.0124      0.0004      0.0016       90.00
         8         0.0028     -0.0006     -0.0007      0.0005       90.00
         9        -0.0012     -0.0006     -0.0001     -0.0006       90.00
        10        -0.0011     -0.0004     -0.0010     -0.0008       90.00
 1/2[<0|r|b>*<b|rxdel|0> + (<0|rxdel|b>*<b|r|0>)*]
 Rotatory Strengths (R) in cgs (10**-40 erg-esu-cm/Gauss)
       state          XX          YY          ZZ     R(length)
         1         0.0121      0.0649     -0.0000      0.0257
         2         0.0003     -0.0014      0.0001     -0.0003
         3         0.0000      0.0002      0.0036      0.0013
         4        -0.0027      0.0110     -0.0000      0.0028
         5        -0.0000      0.0002     -0.0078     -0.0026
         6        -0.0146     -0.0522      0.0000     -0.0223
         7         0.0270     -0.0309      0.0001     -0.0013
         8        -0.0002     -0.0025     -0.0047     -0.0024
         9         0.0000     -0.0000      0.0069      0.0023
        10         0.0002     -0.0084     -0.0000     -0.0028
  1/2[<0|del|b>*<b|r|0> + (<0|r|b>*<b|del|0>)*] (Au)
       state          X           Y           Z        Dip. S.   Osc.(frdel)
         1        -0.0000     -0.0000     -0.0000      0.0000      0.0000
         2        -0.0000     -0.0000     -0.0000      0.0000      0.0000
         3        -0.0003     -0.0005      0.0000      0.0008      0.0005
         4        -0.2037     -0.0082     -0.0000      0.2119      0.1413
         5        -0.0000     -0.0000     -0.0000      0.0000      0.0000
         6        -0.0910     -0.1028     -0.0000      0.1938      0.1292
         7        -1.0026     -0.1376      0.0000      1.1402      0.7601
         8        -0.0025     -0.0036      0.0000      0.0060      0.0040
         9        -0.0002     -0.0002      0.0000      0.0004      0.0003
        10        -0.0028     -0.0327     -0.0000      0.0355      0.0237

 Excitation energies and oscillator strengths:
 
 Excited State   1:      Singlet-A      2.6328 eV  470.93 nm  f=0.0000  <S**2>=0.000
      39 -> 46         0.27172
      39 -> 49        -0.21880
      40 -> 45         0.57230
      40 -> 50         0.16283
 This state for optimization and/or second-order correction.
 Total Energy, E(CIS) =  -132.138653466    
 Copying the excited state density for this state as the 1-particle RhoCI density.
 
 Excited State   2:      Singlet-A      2.6934 eV  460.33 nm  f=0.0000  <S**2>=0.000
      39 -> 45         0.56101
      39 -> 50         0.16440
      40 -> 46         0.28692
      40 -> 49        -0.22541
 
 Excited State   3:      Singlet-A      3.5895 eV  345.41 nm  f=0.0007  <S**2>=0.000
      43 -> 47         0.11665
      44 -> 45         0.67232
 
 Excited State   4:      Singlet-A      3.8947 eV  318.34 nm  f=0.2814  <S**2>=0.000
      41 -> 45         0.29337
      41 -> 48         0.10806
      42 -> 47        -0.14883
      43 -> 45         0.53906
      43 -> 48        -0.10584
      44 -> 46        -0.19215
      44 -> 47         0.11232
 
 Excited State   5:      Singlet-A      4.0965 eV  302.66 nm  f=0.0000  <S**2>=0.000
      41 -> 45         0.13084
      41 -> 47        -0.17061
      42 -> 45         0.55288
      43 -> 46         0.22251
      43 -> 47        -0.10647
      44 -> 48         0.24105
 
 Excited State   6:      Singlet-A      4.3674 eV  283.89 nm  f=0.3817  <S**2>=0.000
      41 -> 45         0.42065
      42 -> 47        -0.10773
      43 -> 45        -0.38065
      43 -> 48        -0.19972
      44 -> 46        -0.28643
 
 Excited State   7:      Singlet-A      4.9075 eV  252.64 nm  f=1.2826  <S**2>=0.000
      41 -> 45         0.39625
      41 -> 48        -0.12313
      42 -> 45        -0.13760
      42 -> 46         0.13247
      43 -> 48         0.19184
      44 -> 46         0.46987
 
 Excited State   8:      Singlet-A      4.9863 eV  248.65 nm  f=0.0070  <S**2>=0.000
      41 -> 45        -0.13112
      41 -> 46        -0.12997
      41 -> 47        -0.10356
      42 -> 45        -0.35131
      42 -> 50        -0.11725
      43 -> 46         0.43183
      43 -> 47        -0.10159
      44 -> 48         0.30433
 
 Excited State   9:      Singlet-A      5.2975 eV  234.04 nm  f=0.0005  <S**2>=0.000
      41 -> 46         0.37494
      42 -> 48        -0.27707
      43 -> 46         0.24358
      43 -> 47         0.35933
      44 -> 45        -0.13737
      44 -> 50        -0.19674
 
 Excited State  10:      Singlet-A      5.3093 eV  233.52 nm  f=0.0720  <S**2>=0.000
      41 -> 48         0.19028
      42 -> 46        -0.32323
      43 -> 45        -0.20557
      43 -> 48         0.14377
      43 -> 50        -0.18281
      44 -> 47         0.46162
 SavETr:  write IOETrn=   770 NScale= 10 NData=  16 NLR=1 NState=   10 LETran=     190.

 **********************************************************************

            Population analysis using the SCF density.

 **********************************************************************

 Orbital symmetries:
       Occupied  (A) (A) (A) (A) (A) (A) (A) (A) (A) (A) (A) (A)
                 (A) (A) (A) (A) (A) (A) (A) (A) (A) (A) (A) (A)
                 (A) (A) (A) (A) (A) (A) (A) (A) (A) (A) (A) (A)
                 (A) (A) (A) (A) (A) (A) (A) (A)
       Virtual   (A) (A) (A) (A) (A) (A) (A) (A) (A) (A) (A) (A)
                 (A) (A) (A) (A) (A) (A) (A) (A) (A) (A) (A) (A)
                 (A) (A) (A) (A) (A) (A) (A) (A) (A) (A) (A) (A)
 The electronic state is 1-A.
 Alpha  occ. eigenvalues --   -1.72966  -1.68322  -1.63734  -1.59593  -1.54506
 Alpha  occ. eigenvalues --   -1.49614  -1.34077  -1.24774  -1.21202  -1.12845
 Alpha  occ. eigenvalues --   -1.03951  -0.98981  -0.95723  -0.93174  -0.88763
 Alpha  occ. eigenvalues --   -0.86207  -0.78746  -0.72785  -0.71937  -0.67921
 Alpha  occ. eigenvalues --   -0.66192  -0.60534  -0.60338  -0.59439  -0.59342
 Alpha  occ. eigenvalues --   -0.58713  -0.57874  -0.55891  -0.54598  -0.53225
 Alpha  occ. eigenvalues --   -0.52469  -0.51684  -0.49807  -0.48274  -0.47337
 Alpha  occ. eigenvalues --   -0.47166  -0.46147  -0.43688  -0.37644  -0.36772
 Alpha  occ. eigenvalues --   -0.35685  -0.35545  -0.33734  -0.33113
 Alpha virt. eigenvalues --   -0.06419  -0.01726   0.00225   0.00715   0.04821
 Alpha virt. eigenvalues --    0.04878   0.05946   0.08314   0.08834   0.09576
 Alpha virt. eigenvalues --    0.09950   0.10797   0.11117   0.12639   0.12963
 Alpha virt. eigenvalues --    0.17763   0.18841   0.19237   0.20076   0.22714
 Alpha virt. eigenvalues --    0.23758   0.23901   0.25010   0.29078   0.31559
 Alpha virt. eigenvalues --    0.32620   0.36072   0.36933   0.40368   0.41373
 Alpha virt. eigenvalues --    0.42367   0.42752   0.44352   0.46366   0.49030
 Alpha virt. eigenvalues --    0.49800
     Molecular Orbital Coefficients:
                           1         2         3         4         5
                           O         O         O         O         O
     Eigenvalues --    -1.72966  -1.68322  -1.63734  -1.59593  -1.54506
   1 1   C  1S          0.26862   0.00902  -0.22782  -0.35945   0.04168
   2        2PX        -0.00005  -0.04473   0.00341   0.01532  -0.09469
   3        2PY        -0.00269  -0.00141  -0.03278  -0.17422   0.01055
   4        2PZ         0.00001   0.00000  -0.00001  -0.00002   0.00000
   5 2   C  1S          0.27933   0.13986  -0.13221  -0.09819   0.23910
   6        2PX         0.00695  -0.06244  -0.06055  -0.02905  -0.07661
   7        2PY        -0.02804  -0.02868  -0.00963  -0.10945  -0.04395
   8        2PZ         0.00000   0.00000  -0.00000  -0.00000   0.00000
   9 3   C  1S          0.27572  -0.12827  -0.13716  -0.15384  -0.22334
  10        2PX        -0.00107  -0.06380   0.05654   0.03419  -0.10684
  11        2PY        -0.03098   0.02043  -0.00128  -0.08990   0.03410
  12        2PZ         0.00000  -0.00000  -0.00000  -0.00000  -0.00000
  13 4   O  1S          0.19324   0.01200  -0.20843  -0.46188   0.05921
  14        2PX         0.01128  -0.00931  -0.01313  -0.02786  -0.01863
  15        2PY        -0.07812  -0.00578   0.08156   0.17166  -0.02508
  16        2PZ        -0.00000  -0.00000   0.00000   0.00001  -0.00000
  17 5   C  1S          0.27304  -0.01676  -0.22123   0.36223  -0.04553
  18        2PX         0.00063  -0.04605   0.00003   0.01617  -0.09411
  19        2PY         0.00111  -0.00008   0.03012  -0.17718   0.01079
  20        2PZ         0.00001  -0.00000  -0.00001   0.00001  -0.00000
  21 6   C  1S          0.28165  -0.14558  -0.12146   0.09530  -0.23960
  22        2PX        -0.00680  -0.06175   0.06449  -0.03082  -0.07370
  23        2PY         0.02636  -0.02694   0.00838  -0.11179  -0.04507
  24        2PZ         0.00000  -0.00000  -0.00000   0.00000  -0.00000
  25 7   O  1S          0.19822  -0.01954  -0.20024   0.46777  -0.06273
  26        2PX        -0.01150  -0.00940   0.01382  -0.02843  -0.01795
  27        2PY         0.07999  -0.00876  -0.07833   0.17360  -0.02642
  28        2PZ        -0.00000   0.00000   0.00000  -0.00001   0.00000
  29 8   C  1S          0.27767   0.12513  -0.14166   0.15130   0.22038
  30        2PX         0.00113  -0.06612  -0.05299   0.03642  -0.10806
  31        2PY         0.02947   0.01970  -0.00134  -0.09139   0.03408
  32        2PZ         0.00000   0.00000  -0.00000   0.00000   0.00000
  33 9   C  1S          0.20399   0.20629   0.03466  -0.07196   0.16667
  34        2PX         0.02173  -0.03638  -0.09457  -0.04398   0.08863
  35        2PY        -0.06304  -0.07205  -0.01994  -0.02636  -0.07690
  36        2PZ         0.00000   0.00000   0.00000   0.00000  -0.00000
  37 10  C  1S          0.20952  -0.21536   0.05609   0.06742  -0.15462
  38        2PX        -0.02002  -0.03880   0.10078  -0.04539   0.09718
  39        2PY         0.06144  -0.06899   0.02038  -0.02950  -0.07883
  40        2PZ         0.00000  -0.00000   0.00000  -0.00000   0.00000
  41 11  C  1S          0.18417   0.14811  -0.03631   0.12414   0.22982
  42        2PX         0.01962  -0.01959  -0.04803   0.05140  -0.00235
  43        2PY         0.06870   0.06428  -0.00087   0.00934   0.09220
  44        2PZ        -0.00000  -0.00000   0.00000  -0.00000  -0.00000
  45 12  C  1S          0.18093  -0.14561  -0.03296  -0.12745  -0.23253
  46        2PX        -0.01980  -0.01662   0.04724   0.04984  -0.00321
  47        2PY        -0.06818   0.06365  -0.00190   0.01140   0.09229
  48        2PZ        -0.00000   0.00000   0.00000   0.00000   0.00000
  49 13  C  1S          0.22528   0.34457   0.24858  -0.00358  -0.01390
  50        2PX         0.01116  -0.05446  -0.13507   0.00764   0.21457
  51        2PY        -0.00172   0.01635   0.04001  -0.02129  -0.07550
  52        2PZ        -0.00000   0.00000   0.00000  -0.00000  -0.00000
  53 14  C  1S          0.16912   0.21521   0.09446   0.04202   0.13847
  54        2PX         0.04058   0.01705  -0.04515   0.02535   0.11917
  55        2PY         0.05442   0.08191   0.05694  -0.00586   0.00349
  56        2PZ        -0.00000  -0.00000   0.00000  -0.00000  -0.00000
  57 15  C  1S          0.16293  -0.20127   0.09019  -0.04889  -0.14816
  58        2PX        -0.04248   0.02304   0.03708   0.02563   0.11302
  59        2PY        -0.05340   0.07817  -0.05705  -0.00303   0.00554
  60        2PZ        -0.00000   0.00000   0.00000   0.00000   0.00000
  61 16  C  1S          0.22449  -0.33694   0.25944  -0.00641   0.01781
  62        2PX        -0.01283  -0.04727   0.12973   0.00620   0.21103
  63        2PY        -0.00279   0.02484  -0.05187  -0.02180  -0.08902
  64        2PZ        -0.00000  -0.00000   0.00000   0.00000   0.00000
  65 17  H  1S          0.06597   0.06507   0.01127  -0.04974   0.03471
  66 18  H  1S          0.07065  -0.07234   0.02247   0.05022  -0.02677
  67 19  H  1S          0.05710   0.03649  -0.02323   0.06479   0.06178
  68 20  H  1S          0.05575  -0.03591  -0.02309  -0.06511  -0.06299
  69 21  H  1S          0.04855   0.07194   0.04671   0.01179   0.01610
  70 22  H  1S          0.04455  -0.06287   0.04021  -0.01398  -0.02349
  71 23  O  1S          0.19127   0.39850   0.43451  -0.02300  -0.36031
  72        2PX         0.03541   0.06633   0.06307  -0.00420  -0.03401
  73        2PY        -0.04345  -0.09095  -0.09916   0.00277   0.07976
  74        2PZ        -0.00000  -0.00000  -0.00000   0.00000   0.00000
  75 24  H  1S          0.08254   0.17132   0.18628  -0.00764  -0.15347
  76 25  O  1S          0.19091  -0.38636   0.44316   0.01326   0.36611
  77        2PX        -0.05553   0.10753  -0.11658  -0.00242  -0.08122
  78        2PY        -0.00829   0.01945  -0.02648  -0.00458  -0.03358
  79        2PZ        -0.00000   0.00000  -0.00000  -0.00000  -0.00000
  80 26  H  1S          0.08376  -0.16605   0.18767   0.00912   0.15473
                           6         7         8         9        10
                           O         O         O         O         O
     Eigenvalues --    -1.49614  -1.34077  -1.24774  -1.21202  -1.12845
   1 1   C  1S          0.18323   0.13010  -0.05619   0.00298   0.04094
   2        2PX        -0.03677   0.01258  -0.18926  -0.07289   0.20829
   3        2PY         0.20815  -0.27680   0.02932  -0.12447  -0.08769
   4        2PZ         0.00001  -0.00001  -0.00000  -0.00001  -0.00000
   5 2   C  1S         -0.12134   0.21356   0.17574   0.23880  -0.08716
   6        2PX         0.06814   0.18335  -0.16523  -0.05042  -0.07417
   7        2PY         0.11977  -0.04342   0.13747   0.03703   0.05777
   8        2PZ         0.00000  -0.00000   0.00000  -0.00000   0.00000
   9 3   C  1S         -0.13797   0.14979  -0.20130  -0.02932   0.33396
  10        2PX        -0.10775  -0.18397   0.04180   0.02930  -0.00098
  11        2PY         0.08169  -0.14769  -0.11313   0.09016   0.10037
  12        2PZ         0.00000  -0.00000   0.00000   0.00000  -0.00000
  13 4   O  1S          0.39199  -0.22952   0.02090  -0.17571  -0.17554
  14        2PX         0.01730  -0.01962  -0.07561  -0.03223   0.06585
  15        2PY        -0.13421   0.05041  -0.01176   0.03086   0.02990
  16        2PZ        -0.00001   0.00001  -0.00000   0.00000   0.00000
  17 5   C  1S          0.17750   0.12961  -0.05318   0.01629  -0.05256
  18        2PX         0.03769  -0.00971   0.19177  -0.10388   0.16829
  19        2PY        -0.20516   0.27959  -0.04517  -0.10953  -0.09844
  20        2PZ         0.00001  -0.00001   0.00000   0.00000   0.00000
  21 6   C  1S         -0.12165   0.22061   0.15806  -0.26161   0.05364
  22        2PX        -0.06682  -0.18166   0.15289  -0.08834  -0.06674
  23        2PY        -0.11901   0.04279  -0.12939   0.05692   0.08233
  24        2PZ         0.00000  -0.00000   0.00000  -0.00000  -0.00000
  25 7   O  1S          0.38476  -0.23348   0.04913   0.16799   0.17097
  26        2PX        -0.01671   0.02119   0.07476  -0.04439   0.04887
  27        2PY         0.13144  -0.05119   0.01836   0.02880   0.02523
  28        2PZ        -0.00001   0.00001  -0.00000  -0.00000  -0.00000
  29 8   C  1S         -0.14054   0.14598  -0.21589   0.06052  -0.29521
  30        2PX         0.10681   0.18378  -0.03378   0.05249  -0.01783
  31        2PY        -0.08003   0.14684   0.12464   0.07773   0.06609
  32        2PZ         0.00000  -0.00000   0.00000  -0.00000   0.00000
  33 9   C  1S         -0.09246  -0.04350   0.39073   0.25992   0.16107
  34        2PX        -0.01515   0.04022   0.04278   0.04953  -0.10545
  35        2PY         0.09606   0.03981  -0.01486   0.01149  -0.06154
  36        2PZ         0.00000  -0.00000  -0.00000  -0.00000   0.00000
  37 10  C  1S         -0.08706  -0.03392   0.33824  -0.31298  -0.16206
  38        2PX         0.01970  -0.03935  -0.05767   0.07056  -0.07248
  39        2PY        -0.09811  -0.04242   0.01202   0.01023  -0.06415
  40        2PZ         0.00000  -0.00000  -0.00000   0.00000  -0.00000
  41 11  C  1S         -0.16876  -0.21216  -0.26879  -0.22742  -0.15147
  42        2PX         0.04578   0.07740  -0.04796   0.13550  -0.16948
  43        2PY        -0.09183  -0.02247   0.02131   0.00503   0.01446
  44        2PZ         0.00000  -0.00000   0.00000  -0.00000   0.00000
  45 12  C  1S         -0.16878  -0.21443  -0.22571   0.24095   0.20396
  46        2PX        -0.04830  -0.08162   0.05586   0.12300  -0.19998
  47        2PY         0.09208   0.02296  -0.02163   0.01162   0.01648
  48        2PZ         0.00000  -0.00000   0.00000   0.00000  -0.00000
  49 13  C  1S         -0.04995  -0.09760   0.12294  -0.00465   0.22156
  50        2PX        -0.15437  -0.10028   0.13590   0.03593   0.12518
  51        2PY         0.07066   0.08428   0.10709   0.17613  -0.03526
  52        2PZ         0.00000   0.00000  -0.00000  -0.00000  -0.00000
  53 14  C  1S         -0.16009  -0.24061  -0.12235  -0.32196   0.16939
  54        2PX        -0.09338  -0.07548  -0.02404  -0.03506  -0.02725
  55        2PY        -0.02088  -0.00425   0.08154   0.05140   0.08476
  56        2PZ         0.00000   0.00000   0.00000   0.00000   0.00000
  57 15  C  1S         -0.16897  -0.25544  -0.08791   0.33316  -0.20895
  58        2PX         0.08811   0.06987   0.01762  -0.02168  -0.06293
  59        2PY         0.02409   0.00902  -0.06563   0.04783   0.10618
  60        2PZ         0.00000   0.00000   0.00000  -0.00000  -0.00000
  61 16  C  1S         -0.05377  -0.10655   0.08732   0.02469  -0.24048
  62        2PX         0.14918   0.09187  -0.13322   0.08396   0.11221
  63        2PY        -0.07939  -0.09584  -0.07079   0.17962  -0.08410
  64        2PZ         0.00000   0.00000  -0.00000   0.00000   0.00000
  65 17  H  1S          0.01117  -0.00752   0.17415   0.12178   0.04575
  66 18  H  1S          0.01639  -0.00075   0.15118  -0.14647  -0.03963
  67 19  H  1S         -0.02411  -0.08707  -0.14141  -0.09417  -0.09140
  68 20  H  1S         -0.02366  -0.08735  -0.12241   0.10480   0.12032
  69 21  H  1S         -0.03145  -0.08134  -0.07706  -0.15695   0.06148
  70 22  H  1S         -0.03737  -0.08921  -0.05617   0.16539  -0.09092
  71 23  O  1S          0.21802   0.13751  -0.09417   0.04214  -0.17275
  72        2PX         0.01482  -0.00388   0.05637   0.03746   0.08491
  73        2PY        -0.04465  -0.01995   0.04845   0.03322   0.02718
  74        2PZ        -0.00000  -0.00000  -0.00000  -0.00000  -0.00000
  75 24  H  1S          0.09101   0.05386  -0.07844  -0.02278  -0.09924
  76 25  O  1S          0.21338   0.12989  -0.11265   0.01021   0.18494
  77        2PX        -0.04060  -0.00893   0.00117  -0.00724   0.04708
  78        2PY        -0.02798  -0.03806  -0.00796   0.06671  -0.09607
  79        2PZ        -0.00000  -0.00000   0.00000   0.00000  -0.00000
  80 26  H  1S          0.09423   0.06694  -0.02617  -0.04307   0.11459
                          11        12        13        14        15
                           O         O         O         O         O
     Eigenvalues --    -1.03951  -0.98981  -0.95723  -0.93174  -0.88763
   1 1   C  1S          0.12160   0.18182  -0.09612  -0.02020   0.17552
   2        2PX        -0.11967  -0.09082  -0.11360  -0.16290   0.06368
   3        2PY        -0.11534  -0.19453   0.05057  -0.02772  -0.13357
   4        2PZ         0.00000  -0.00000  -0.00000  -0.00000  -0.00000
   5 2   C  1S          0.09228   0.27924   0.13575  -0.03264  -0.02852
   6        2PX         0.13705   0.05029  -0.05495  -0.02310   0.16738
   7        2PY         0.10718   0.14785  -0.07010   0.27551   0.08466
   8        2PZ        -0.00000  -0.00000   0.00000  -0.00000  -0.00000
   9 3   C  1S         -0.10081   0.09694  -0.20157   0.00366  -0.07838
  10        2PX        -0.14336  -0.00067   0.07786   0.08180  -0.21265
  11        2PY        -0.11436   0.09975   0.07601  -0.14285   0.20359
  12        2PZ        -0.00000  -0.00000   0.00000   0.00000  -0.00000
  13 4   O  1S         -0.03274  -0.23680   0.03529  -0.05093  -0.17515
  14        2PX        -0.05699  -0.04241  -0.01216  -0.11638   0.04589
  15        2PY        -0.01946  -0.03311   0.01318  -0.01605  -0.03788
  16        2PZ         0.00000   0.00000  -0.00000  -0.00000  -0.00000
  17 5   C  1S          0.06377  -0.24601   0.04862   0.02519   0.05352
  18        2PX         0.17789  -0.03776   0.13965   0.06016  -0.06497
  19        2PY         0.05346  -0.23167   0.07476   0.04701   0.05310
  20        2PZ         0.00000   0.00000  -0.00000  -0.00000  -0.00000
  21 6   C  1S          0.07208  -0.21320   0.05444   0.17324  -0.18259
  22        2PX        -0.14895   0.15300   0.01571  -0.01240  -0.05368
  23        2PY        -0.06629   0.12811  -0.25081   0.02668  -0.17056
  24        2PZ        -0.00000   0.00000  -0.00000  -0.00000  -0.00000
  25 7   O  1S          0.05557   0.23467  -0.09819  -0.08957  -0.09222
  26        2PX         0.07447  -0.02159   0.09918  -0.01639  -0.00656
  27        2PY         0.01963  -0.03638   0.02614   0.00647   0.01228
  28        2PZ        -0.00000  -0.00000   0.00000   0.00000  -0.00000
  29 8   C  1S         -0.21082  -0.09551   0.06241  -0.15458  -0.01730
  30        2PX         0.10972  -0.11162  -0.05420   0.02519   0.13753
  31        2PY         0.15537   0.09760   0.11867  -0.17903  -0.05361
  32        2PZ        -0.00000   0.00000  -0.00000   0.00000  -0.00000
  33 9   C  1S         -0.12367  -0.06999  -0.09179   0.22255   0.04896
  34        2PX         0.09434   0.27748   0.16740   0.04684  -0.14120
  35        2PY         0.01193   0.05059  -0.05139   0.24624   0.11289
  36        2PZ        -0.00000  -0.00000  -0.00000  -0.00000   0.00000
  37 10  C  1S         -0.14691   0.11451   0.11745  -0.11646   0.25908
  38        2PX        -0.06793   0.15512  -0.13505  -0.16466   0.19850
  39        2PY        -0.02050   0.04320  -0.18249   0.02200  -0.19794
  40        2PZ        -0.00000   0.00000  -0.00000  -0.00000   0.00000
  41 11  C  1S         -0.13050   0.06186  -0.05374   0.30240   0.06271
  42        2PX        -0.26411  -0.07257  -0.02043  -0.07316  -0.03223
  43        2PY        -0.02792  -0.04527   0.08682  -0.25032  -0.15017
  44        2PZ         0.00000   0.00000  -0.00000   0.00000   0.00000
  45 12  C  1S         -0.12713   0.01746   0.30059   0.02607   0.11060
  46        2PX         0.17365  -0.09356   0.14896   0.08657   0.02212
  47        2PY         0.02619  -0.05959   0.18226  -0.03669   0.22151
  48        2PZ         0.00000  -0.00000   0.00000   0.00000   0.00000
  49 13  C  1S          0.02961  -0.24652  -0.13201  -0.16928   0.09560
  50        2PX        -0.03949  -0.07204  -0.00453  -0.04793  -0.08512
  51        2PY        -0.24415  -0.11689  -0.11348   0.18961   0.12163
  52        2PZ         0.00000   0.00000   0.00000  -0.00000   0.00000
  53 14  C  1S          0.35440   0.06179  -0.00279   0.00640   0.06183
  54        2PX        -0.11575  -0.00089   0.00794   0.07256  -0.05809
  55        2PY        -0.01256  -0.11985   0.01433  -0.29856  -0.10247
  56        2PZ         0.00000   0.00000  -0.00000   0.00000   0.00000
  57 15  C  1S          0.27883  -0.14740   0.06240   0.03795   0.03637
  58        2PX         0.13949  -0.07725  -0.13032  -0.04701   0.04739
  59        2PY        -0.01720  -0.06212   0.30900   0.07949   0.12971
  60        2PZ         0.00000  -0.00000  -0.00000  -0.00000   0.00000
  61 16  C  1S          0.07194   0.07491  -0.27877  -0.17323   0.09713
  62        2PX         0.11653  -0.12672  -0.00677   0.04070  -0.03007
  63        2PY         0.20247  -0.12405  -0.10131   0.06479  -0.17779
  64        2PZ         0.00000  -0.00000  -0.00000   0.00000  -0.00000
  65 17  H  1S         -0.06236  -0.03268  -0.08891   0.25655   0.10172
  66 18  H  1S         -0.06514   0.04862   0.16204  -0.08387   0.26500
  67 19  H  1S         -0.07180   0.05544  -0.08507   0.29152   0.11906
  68 20  H  1S         -0.06488  -0.02345   0.24134  -0.02286   0.18849
  69 21  H  1S          0.23173   0.08221  -0.00579   0.08302   0.09526
  70 22  H  1S          0.19376  -0.13321   0.08366   0.02857   0.08780
  71 23  O  1S         -0.09503   0.11981   0.08054   0.07158  -0.08402
  72        2PX        -0.06145  -0.22504  -0.18553   0.01283   0.25624
  73        2PY        -0.07178  -0.06435  -0.05429   0.07161   0.05078
  74        2PZ         0.00000   0.00000   0.00000  -0.00000  -0.00000
  75 24  H  1S          0.03931   0.16599   0.13041  -0.01540  -0.16038
  76 25  O  1S         -0.02834  -0.06217   0.10555   0.13640  -0.17510
  77        2PX        -0.04215  -0.01391   0.13686   0.11112  -0.12660
  78        2PY         0.15449  -0.06788  -0.19965  -0.07055   0.00902
  79        2PZ         0.00000  -0.00000   0.00000   0.00000  -0.00000
  80 26  H  1S         -0.10805   0.02686   0.16422   0.08175  -0.04593
                          16        17        18        19        20
                           O         O         O         O         O
     Eigenvalues --    -0.86207  -0.78746  -0.72785  -0.71937  -0.67921
   1 1   C  1S          0.04331   0.17095  -0.08926   0.18350   0.08383
   2        2PX         0.20676   0.00567  -0.20297  -0.02856   0.10759
   3        2PY         0.00342  -0.08964   0.01636   0.00019   0.06575
   4        2PZ        -0.00000   0.00000   0.00000  -0.00000  -0.00000
   5 2   C  1S         -0.02114   0.04970   0.19325  -0.03548   0.03539
   6        2PX        -0.12165   0.19176   0.05177  -0.02629  -0.01449
   7        2PY        -0.05155  -0.08844  -0.05699   0.25184  -0.08768
   8        2PZ         0.00000  -0.00000  -0.00000  -0.00000  -0.00000
   9 3   C  1S          0.09553  -0.00670  -0.06444   0.04465  -0.07123
  10        2PX        -0.13254  -0.16279   0.24503  -0.03235   0.00261
  11        2PY         0.11547  -0.09168   0.06144   0.08407   0.34737
  12        2PZ        -0.00000  -0.00000   0.00001  -0.00000   0.00000
  13 4   O  1S         -0.07443  -0.00852   0.02617  -0.24642  -0.15588
  14        2PX         0.10902   0.00944  -0.07011  -0.00875   0.13795
  15        2PY        -0.00727  -0.02730   0.01795  -0.20914  -0.14523
  16        2PZ        -0.00000   0.00000   0.00000  -0.00001  -0.00001
  17 5   C  1S         -0.08783  -0.23677  -0.07229  -0.03591   0.17206
  18        2PX         0.25926   0.10912   0.06986  -0.07849   0.06146
  19        2PY        -0.01338  -0.08669  -0.02994  -0.09559  -0.01915
  20        2PZ        -0.00000   0.00000   0.00000  -0.00000  -0.00000
  21 6   C  1S          0.08924   0.00728   0.05294   0.04024  -0.12758
  22        2PX        -0.01940   0.09500   0.13330   0.20811   0.04057
  23        2PY        -0.13727   0.05959  -0.08805  -0.05895  -0.30698
  24        2PZ        -0.00000   0.00000   0.00000   0.00000   0.00000
  25 7   O  1S          0.00458   0.19015   0.02169  -0.14816  -0.20061
  26        2PX         0.12916   0.07295   0.06214  -0.08581   0.06012
  27        2PY         0.00632  -0.10629  -0.01178   0.09499   0.22821
  28        2PZ        -0.00000   0.00000   0.00000  -0.00001  -0.00001
  29 8   C  1S         -0.08529  -0.02739   0.07509   0.01114   0.04291
  30        2PX        -0.23938  -0.20632  -0.08498  -0.10269   0.06612
  31        2PY         0.04153   0.13187   0.13529  -0.30675   0.09101
  32        2PZ         0.00000   0.00000   0.00000   0.00000  -0.00000
  33 9   C  1S          0.04520  -0.20092  -0.15543  -0.02380   0.01913
  34        2PX         0.01720  -0.13170   0.12250   0.11841  -0.02528
  35        2PY        -0.06819  -0.12614   0.00420   0.01476   0.00125
  36        2PZ        -0.00000   0.00000  -0.00000  -0.00000  -0.00000
  37 10  C  1S          0.02895   0.02865  -0.02987   0.07916  -0.02572
  38        2PX        -0.13722  -0.07573  -0.20596  -0.23087  -0.08430
  39        2PY        -0.14720  -0.01214   0.02039  -0.07420   0.05481
  40        2PZ        -0.00000  -0.00000  -0.00000  -0.00000  -0.00000
  41 11  C  1S          0.18011   0.13066   0.01522   0.02832  -0.04937
  42        2PX        -0.05106  -0.03305   0.02612   0.32991  -0.11450
  43        2PY         0.04640   0.03432  -0.02025   0.00801   0.02251
  44        2PZ         0.00000   0.00000  -0.00000  -0.00001   0.00000
  45 12  C  1S         -0.04729  -0.14651   0.16332  -0.06640  -0.02571
  46        2PX        -0.15056   0.17624  -0.13196  -0.06850  -0.14935
  47        2PY         0.10644  -0.05277   0.00909  -0.02636  -0.13094
  48        2PZ        -0.00000   0.00000  -0.00000  -0.00000  -0.00000
  49 13  C  1S         -0.16133   0.09026   0.01823   0.13468  -0.07261
  50        2PX         0.11527  -0.09659  -0.30441  -0.08282   0.01003
  51        2PY         0.12074   0.14895   0.05908  -0.22047   0.09816
  52        2PZ        -0.00000   0.00000   0.00000   0.00000  -0.00000
  53 14  C  1S         -0.15318  -0.09869   0.00600  -0.06323   0.05131
  54        2PX         0.25229   0.18681  -0.07351  -0.15087   0.00053
  55        2PY        -0.08278  -0.00006  -0.08206   0.30027  -0.16255
  56        2PZ        -0.00000  -0.00000   0.00000   0.00000   0.00000
  57 15  C  1S          0.02863   0.16743  -0.16581   0.05311   0.03086
  58        2PX         0.23512   0.03354  -0.08213   0.14226  -0.01175
  59        2PY        -0.02754   0.08588  -0.09009   0.01934  -0.31966
  60        2PZ         0.00000   0.00000  -0.00000   0.00000  -0.00000
  61 16  C  1S          0.05698  -0.13153  -0.00220  -0.12254   0.04804
  62        2PX         0.23755  -0.13047   0.20857   0.05695  -0.17767
  63        2PY         0.07880   0.08808   0.02294   0.12073   0.29616
  64        2PZ         0.00000  -0.00000   0.00000   0.00000  -0.00000
  65 17  H  1S         -0.02255  -0.16834  -0.08683  -0.02272   0.00686
  66 18  H  1S          0.09248   0.02596  -0.05151   0.06300  -0.05945
  67 19  H  1S          0.05128   0.03875   0.02052   0.04413  -0.06350
  68 20  H  1S          0.06027  -0.12631   0.10134  -0.05080  -0.09189
  69 21  H  1S         -0.16877  -0.15798   0.07876  -0.08471   0.10497
  70 22  H  1S          0.12484   0.14073  -0.16895   0.12253  -0.14251
  71 23  O  1S          0.17600   0.04203  -0.03411  -0.14787   0.05784
  72        2PX        -0.18901   0.30800   0.42801   0.02242   0.01597
  73        2PY         0.07446   0.09823  -0.01158  -0.21051   0.09686
  74        2PZ         0.00000  -0.00000  -0.00000   0.00000  -0.00000
  75 24  H  1S          0.09482  -0.18964  -0.21239   0.04540  -0.03421
  76 25  O  1S         -0.04250   0.06523   0.08389   0.09720   0.08222
  77        2PX        -0.16990   0.23220  -0.13159   0.12485   0.30590
  78        2PY         0.29820  -0.20572   0.29901   0.07670  -0.10823
  79        2PZ        -0.00000   0.00000   0.00000   0.00000   0.00000
  80 26  H  1S         -0.20501   0.16226  -0.18978  -0.01875   0.10471
                          21        22        23        24        25
                           O         O         O         O         O
     Eigenvalues --    -0.66192  -0.60534  -0.60338  -0.59439  -0.59342
   1 1   C  1S         -0.14604   0.12058   0.07570  -0.00001   0.01698
   2        2PX         0.18055  -0.13086  -0.01007   0.00002   0.09174
   3        2PY         0.00747   0.02988  -0.01619   0.00004   0.09921
   4        2PZ        -0.00000   0.00000  -0.00001   0.29082  -0.00009
   5 2   C  1S          0.02699  -0.15086   0.01243   0.00000  -0.02646
   6        2PX        -0.09014   0.27125   0.10934  -0.00004  -0.11131
   7        2PY        -0.21450  -0.02023  -0.03325  -0.00001  -0.02062
   8        2PZ         0.00000  -0.00000  -0.00001   0.29698  -0.00008
   9 3   C  1S          0.10586  -0.04023  -0.18017  -0.00001  -0.03665
  10        2PX        -0.00911   0.04144  -0.11559  -0.00004  -0.12796
  11        2PY         0.02949  -0.01641  -0.02086  -0.00004  -0.10027
  12        2PZ        -0.00000   0.00000  -0.00001   0.28899  -0.00009
  13 4   O  1S          0.14622  -0.13707  -0.04441  -0.00005  -0.11626
  14        2PX         0.08199  -0.11612   0.10759   0.00004   0.10619
  15        2PY         0.19031  -0.20948  -0.03997  -0.00009  -0.13275
  16        2PZ         0.00001  -0.00001  -0.00001   0.21773  -0.00008
  17 5   C  1S         -0.16460  -0.05902  -0.08453  -0.00001  -0.00780
  18        2PX        -0.15272  -0.14105  -0.12026  -0.00000   0.06789
  19        2PY        -0.00326   0.01676   0.09446  -0.00003  -0.07034
  20        2PZ        -0.00000   0.00000  -0.00001   0.29492  -0.00008
  21 6   C  1S         -0.02386  -0.02084   0.08102   0.00004   0.13633
  22        2PX         0.16984   0.13706   0.21213   0.00003   0.05948
  23        2PY         0.08032   0.02717  -0.08977   0.00002   0.01499
  24        2PZ         0.00000   0.00001  -0.00001   0.29734  -0.00009
  25 7   O  1S          0.15688   0.09273   0.16023  -0.00002  -0.02509
  26        2PX        -0.02237   0.00517  -0.10400  -0.00003  -0.02120
  27        2PY        -0.19853  -0.11598  -0.25946   0.00006   0.09154
  28        2PZ         0.00001   0.00001   0.00001   0.22213  -0.00007
  29 8   C  1S          0.16149   0.13941  -0.01976   0.00001   0.05677
  30        2PX         0.02417   0.00595   0.14240  -0.00002  -0.16389
  31        2PY         0.11358  -0.08270   0.07260  -0.00001  -0.05859
  32        2PZ        -0.00000   0.00000  -0.00001   0.29259  -0.00008
  33 9   C  1S          0.11410  -0.01898   0.01861   0.00000   0.01830
  34        2PX         0.01560  -0.24490  -0.17531   0.00004   0.12889
  35        2PY         0.15138   0.26811  -0.14273   0.00001   0.15428
  36        2PZ        -0.00000   0.00000  -0.00000   0.20830  -0.00006
  37 10  C  1S          0.11747   0.05836   0.05216  -0.00001  -0.05147
  38        2PX        -0.12450  -0.11138  -0.17080  -0.00001   0.01055
  39        2PY        -0.14602  -0.05678   0.27054   0.00011   0.36757
  40        2PZ        -0.00000   0.00000  -0.00001   0.20817  -0.00006
  41 11  C  1S         -0.11611  -0.05650  -0.02076  -0.00002  -0.01985
  42        2PX         0.09525  -0.08931   0.00380   0.00001   0.04364
  43        2PY        -0.02677   0.35163  -0.23900   0.00005   0.25388
  44        2PZ        -0.00000  -0.00000  -0.00001   0.18925  -0.00006
  45 12  C  1S         -0.11144   0.04841   0.03835  -0.00002  -0.06185
  46        2PX        -0.13936   0.08085   0.02295  -0.00001  -0.03926
  47        2PY        -0.03379  -0.05452   0.30925   0.00009   0.30170
  48        2PZ        -0.00000   0.00000  -0.00000   0.18404  -0.00006
  49 13  C  1S         -0.11073  -0.05880   0.09104  -0.00003  -0.11851
  50        2PX        -0.05726   0.10141   0.20669  -0.00003  -0.16553
  51        2PY         0.05244  -0.03109   0.04530   0.00001  -0.00876
  52        2PZ         0.00000  -0.00000  -0.00001   0.21552  -0.00006
  53 14  C  1S          0.06624   0.12369  -0.04157   0.00002   0.05811
  54        2PX        -0.28482   0.13405  -0.06883  -0.00002  -0.02147
  55        2PY        -0.19156  -0.02294   0.03294  -0.00004  -0.09596
  56        2PZ         0.00000  -0.00000  -0.00000   0.16541  -0.00005
  57 15  C  1S          0.07843  -0.02925  -0.09322  -0.00001  -0.03173
  58        2PX         0.25160  -0.11498  -0.00046   0.00006   0.19396
  59        2PY         0.05348   0.04362  -0.07733   0.00004   0.08430
  60        2PZ         0.00000   0.00000  -0.00000   0.15919  -0.00005
  61 16  C  1S         -0.12930  -0.07986   0.03364   0.00002   0.10063
  62        2PX         0.00740   0.08710  -0.07924  -0.00003  -0.10302
  63        2PY         0.10027  -0.00905   0.02765  -0.00006  -0.14661
  64        2PZ         0.00000   0.00001  -0.00001   0.21038  -0.00007
  65 17  H  1S          0.16726   0.24742  -0.09303   0.00000   0.11817
  66 18  H  1S          0.15983   0.06399  -0.22285  -0.00010  -0.33698
  67 19  H  1S         -0.02111  -0.33020   0.19689  -0.00005  -0.21727
  68 20  H  1S         -0.05692  -0.03776   0.27801   0.00007   0.22742
  69 21  H  1S          0.30948  -0.01856   0.00976   0.00004   0.09459
  70 22  H  1S          0.22584  -0.06495  -0.08151   0.00006   0.15774
  71 23  O  1S         -0.04871   0.10162  -0.02620   0.00002   0.02985
  72        2PX        -0.00032  -0.12157  -0.18772   0.00004   0.14272
  73        2PY        -0.04449   0.23321   0.00576   0.00003   0.02245
  74        2PZ        -0.00000   0.00000  -0.00001   0.21119  -0.00006
  75 24  H  1S          0.02659  -0.02002   0.09106  -0.00003  -0.07398
  76 25  O  1S          0.06453   0.10290   0.13494  -0.00002  -0.09218
  77        2PX         0.16498   0.02213   0.17699  -0.00003  -0.08507
  78        2PY         0.03209   0.19641   0.15130  -0.00004  -0.17037
  79        2PZ         0.00000   0.00001   0.00000   0.20381  -0.00007
  80 26  H  1S          0.01178  -0.11233  -0.08008   0.00002   0.07902
                          26        27        28        29        30
                           O         O         O         O         O
     Eigenvalues --    -0.58713  -0.57874  -0.55891  -0.54598  -0.53225
   1 1   C  1S          0.01236  -0.03333  -0.00000   0.10389   0.00001
   2        2PX        -0.06235  -0.00467  -0.00000   0.14300   0.00001
   3        2PY         0.05001  -0.35336  -0.00000  -0.01937   0.00000
   4        2PZ        -0.00002  -0.00001   0.01071  -0.00000  -0.21353
   5 2   C  1S          0.07878   0.01603   0.00000  -0.01827  -0.00000
   6        2PX        -0.05918   0.18180   0.00000   0.08518  -0.00002
   7        2PY         0.03770   0.06005   0.00000  -0.17930   0.00001
   8        2PZ        -0.00003   0.00000   0.15070   0.00000  -0.12172
   9 3   C  1S          0.05264   0.01008  -0.00000  -0.02884  -0.00000
  10        2PX         0.07572  -0.09051   0.00000  -0.19027  -0.00001
  11        2PY        -0.07622   0.01805   0.00000  -0.03116  -0.00000
  12        2PZ        -0.00002   0.00000  -0.13100  -0.00001  -0.14259
  13 4   O  1S         -0.03290   0.30150   0.00000  -0.00314   0.00000
  14        2PX         0.00783  -0.11764  -0.00001   0.10939   0.00000
  15        2PY        -0.08517   0.53512   0.00000  -0.00667   0.00003
  16        2PZ        -0.00003   0.00005   0.00914  -0.00001  -0.21294
  17 5   C  1S          0.06454   0.01410   0.00000  -0.07793   0.00001
  18        2PX        -0.20162  -0.01278  -0.00000   0.14162   0.00001
  19        2PY        -0.22598  -0.22223   0.00000  -0.19903  -0.00000
  20        2PZ        -0.00002   0.00002  -0.02168   0.00001  -0.22169
  21 6   C  1S         -0.00204  -0.05362  -0.00000   0.01475   0.00000
  22        2PX         0.18335   0.12224   0.00000   0.08565  -0.00000
  23        2PY         0.14910   0.00656  -0.00000  -0.02314   0.00000
  24        2PZ        -0.00002   0.00001  -0.15955  -0.00000  -0.11943
  25 7   O  1S         -0.20622  -0.18928   0.00000  -0.12363   0.00000
  26        2PX        -0.25056  -0.07747  -0.00001   0.05966   0.00001
  27        2PY         0.30950   0.33500  -0.00001   0.26983  -0.00002
  28        2PZ        -0.00005  -0.00002  -0.01894  -0.00002  -0.22303
  29 8   C  1S         -0.03981  -0.04307  -0.00000   0.05358  -0.00000
  30        2PX         0.15238  -0.03975   0.00000  -0.20470  -0.00001
  31        2PY         0.02060  -0.02011  -0.00000   0.10615  -0.00001
  32        2PZ        -0.00003   0.00001   0.12273   0.00001  -0.15084
  33 9   C  1S         -0.04573  -0.02405  -0.00000   0.04931   0.00000
  34        2PX         0.00210  -0.06943   0.00000  -0.18679   0.00001
  35        2PY        -0.30232   0.13779  -0.00000   0.02587  -0.00001
  36        2PZ        -0.00002   0.00001   0.21063   0.00000   0.04927
  37 10  C  1S          0.07211   0.05027   0.00000  -0.02486  -0.00000
  38        2PX        -0.06153  -0.04793   0.00000  -0.08548   0.00000
  39        2PY         0.01726   0.06206  -0.00000   0.06720  -0.00000
  40        2PZ        -0.00002   0.00001  -0.21486  -0.00001   0.05459
  41 11  C  1S         -0.10445   0.03227  -0.00000  -0.00109  -0.00000
  42        2PX        -0.10350  -0.04912   0.00000   0.19111   0.00001
  43        2PY        -0.05362   0.07993   0.00000  -0.04344   0.00001
  44        2PZ        -0.00002   0.00001   0.15132  -0.00000  -0.02377
  45 12  C  1S         -0.04068   0.00683   0.00000  -0.00772  -0.00000
  46        2PX        -0.01680  -0.05009   0.00000   0.33767   0.00002
  47        2PY        -0.04714   0.14221   0.00000  -0.11196  -0.00000
  48        2PZ        -0.00002   0.00001  -0.15314  -0.00000  -0.01472
  49 13  C  1S         -0.00537   0.01409   0.00000  -0.00269  -0.00000
  50        2PX         0.15268  -0.00908   0.00001   0.06886   0.00000
  51        2PY         0.12438  -0.07688  -0.00000   0.12219   0.00000
  52        2PZ        -0.00003   0.00001   0.34376  -0.00000   0.25123
  53 14  C  1S          0.05266   0.01855   0.00000  -0.05376   0.00000
  54        2PX        -0.02750   0.12456   0.00000  -0.22697  -0.00001
  55        2PY        -0.13670   0.08847   0.00000  -0.10988  -0.00000
  56        2PZ        -0.00002   0.00000   0.21589   0.00000   0.09984
  57 15  C  1S          0.00264  -0.03890  -0.00000   0.02541   0.00000
  58        2PX         0.10719   0.06611   0.00000  -0.32037  -0.00002
  59        2PY         0.21600  -0.06309  -0.00000   0.11459  -0.00000
  60        2PZ        -0.00001   0.00001  -0.21229  -0.00001   0.10792
  61 16  C  1S         -0.10204   0.01010  -0.00000  -0.02346   0.00000
  62        2PX         0.06926  -0.07036   0.00000   0.10702  -0.00001
  63        2PY        -0.14267   0.04975   0.00000  -0.11219  -0.00000
  64        2PZ        -0.00002   0.00001  -0.33956  -0.00001   0.26096
  65 17  H  1S         -0.27209   0.12161  -0.00000   0.06418  -0.00001
  66 18  H  1S          0.00024  -0.04077   0.00000  -0.08166   0.00000
  67 19  H  1S         -0.01549  -0.06348  -0.00000   0.05801  -0.00000
  68 20  H  1S         -0.05719   0.13777   0.00000  -0.14464  -0.00000
  69 21  H  1S          0.12008  -0.12648  -0.00000   0.20303   0.00001
  70 22  H  1S          0.19119  -0.00560  -0.00000  -0.15168  -0.00001
  71 23  O  1S          0.16864  -0.00597   0.00001  -0.12245   0.00001
  72        2PX        -0.02901  -0.02639   0.00000  -0.08684   0.00001
  73        2PY         0.33417  -0.00819   0.00001  -0.18884   0.00002
  74        2PZ        -0.00002   0.00001   0.48363  -0.00001   0.53203
  75 24  H  1S         -0.10343   0.01163  -0.00000   0.12717  -0.00001
  76 25  O  1S          0.02646   0.08001   0.00000   0.00740   0.00001
  77        2PX        -0.05899   0.16553   0.00001  -0.18548  -0.00000
  78        2PY         0.08776   0.08608   0.00001   0.05387   0.00001
  79        2PZ        -0.00002   0.00002  -0.47186  -0.00002   0.54399
  80 26  H  1S         -0.05776  -0.03587  -0.00000  -0.05877  -0.00001
                          31        32        33        34        35
                           O         O         O         O         O
     Eigenvalues --    -0.52469  -0.51684  -0.49807  -0.48274  -0.47337
   1 1   C  1S          0.02161   0.03556  -0.00002   0.03158  -0.04555
   2        2PX         0.14472  -0.07352   0.00000   0.22901   0.01175
   3        2PY        -0.04658  -0.14671  -0.00002  -0.09182   0.06950
   4        2PZ         0.00001  -0.00001   0.41576   0.00000  -0.00000
   5 2   C  1S         -0.02728   0.00138   0.00000   0.01501   0.02581
   6        2PX        -0.22406   0.11901   0.00001  -0.17384   0.04581
   7        2PY         0.16055   0.09060   0.00000   0.06457  -0.16695
   8        2PZ         0.00001  -0.00000   0.09966   0.00000  -0.00000
   9 3   C  1S          0.00287  -0.02069   0.00000  -0.03044   0.02666
  10        2PX        -0.22225   0.03563  -0.00001  -0.16071   0.08189
  11        2PY        -0.12710   0.11342   0.00000   0.22825   0.09020
  12        2PZ        -0.00000   0.00000   0.17919  -0.00000   0.00000
  13 4   O  1S          0.03687   0.07037   0.00000   0.06066  -0.02231
  14        2PX         0.08051  -0.10164   0.00001   0.22899  -0.01367
  15        2PY         0.09362   0.15880  -0.00004   0.19635  -0.06700
  16        2PZ         0.00002   0.00002   0.51513   0.00003  -0.00001
  17 5   C  1S         -0.00407  -0.06117   0.00002   0.05160   0.01235
  18        2PX         0.04541   0.07056   0.00001  -0.14685   0.16422
  19        2PY         0.05100   0.04992  -0.00001   0.11790   0.00229
  20        2PZ         0.00001   0.00001  -0.40788   0.00000   0.00000
  21 6   C  1S          0.00568   0.04010   0.00000  -0.01059  -0.03666
  22        2PX        -0.15712   0.06199   0.00001   0.19646  -0.10940
  23        2PY         0.07172  -0.14431  -0.00000  -0.21951  -0.06640
  24        2PZ         0.00000   0.00001  -0.09080   0.00000   0.00000
  25 7   O  1S          0.02543   0.04024   0.00000   0.06118  -0.01711
[...]
  76 25  O  1S          1.70073
  77        2PX         0.00000   1.37630
  78        2PY         0.00000   0.00000   1.32274
  79        2PZ         0.00000   0.00000   0.00000   1.93548
  80 26  H  1S          0.00000   0.00000   0.00000   0.00000   0.77576
     Gross orbital populations:
                           1
   1 1   C  1S          1.08077
   2        2PX         0.98460
   3        2PY         0.92123
   4        2PZ         0.69252
   5 2   C  1S          1.06150
   6        2PX         0.96618
   7        2PY         0.95896
   8        2PZ         0.99310
   9 3   C  1S          1.05519
  10        2PX         0.94408
  11        2PY         0.96528
  12        2PZ         1.04033
  13 4   O  1S          1.82208
  14        2PX         1.96270
  15        2PY         1.28052
  16        2PZ         1.44329
  17 5   C  1S          1.08089
  18        2PX         0.98539
  19        2PY         0.92136
  20        2PZ         0.69112
  21 6   C  1S          1.06102
  22        2PX         0.96441
  23        2PY         0.96026
  24        2PZ         0.99496
  25 7   O  1S          1.82238
  26        2PX         1.96231
  27        2PY         1.28087
  28        2PZ         1.44854
  29 8   C  1S          1.05467
  30        2PX         0.94308
  31        2PY         0.96524
  32        2PZ         1.04338
  33 9   C  1S          1.09595
  34        2PX         0.96353
  35        2PY         0.96139
  36        2PZ         0.98576
  37 10  C  1S          1.09465
  38        2PX         0.96084
  39        2PY         0.95566
  40        2PZ         1.00774
  41 11  C  1S          1.10009
  42        2PX         0.98794
  43        2PY         0.96787
  44        2PZ         0.93532
  45 12  C  1S          1.10008
  46        2PX         0.98774
  47        2PY         0.96818
  48        2PZ         0.93521
  49 13  C  1S          1.05784
  50        2PX         0.86701
  51        2PY         0.97856
  52        2PZ         0.93798
  53 14  C  1S          1.08922
  54        2PX         0.96709
  55        2PY         0.94978
  56        2PZ         1.03147
  57 15  C  1S          1.09041
  58        2PX         0.96869
  59        2PY         0.95724
  60        2PZ         1.00956
  61 16  C  1S          1.05771
  62        2PX         0.85857
  63        2PY         0.98666
  64        2PZ         0.93913
  65 17  H  1S          0.93475
  66 18  H  1S          0.94256
  67 19  H  1S          0.94234
  68 20  H  1S          0.94236
  69 21  H  1S          0.95855
  70 22  H  1S          0.95079
  71 23  O  1S          1.70085
  72        2PX         1.19862
  73        2PY         1.49838
  74        2PZ         1.93509
  75 24  H  1S          0.77762
  76 25  O  1S          1.70073
  77        2PX         1.37630
  78        2PY         1.32274
  79        2PZ         1.93548
  80 26  H  1S          0.77576
          Condensed to atoms (all electrons):
               1          2          3          4          5          6
     1  C    3.679119   0.000000   0.000000   0.000000   0.000000   0.000000
     2  C    0.000000   3.979745   0.000000   0.000000   0.000000   0.000000
     3  C    0.000000   0.000000   4.004881   0.000000   0.000000   0.000000
     4  O    0.000000   0.000000   0.000000   6.508586   0.000000   0.000000
     5  C    0.000000   0.000000   0.000000   0.000000   3.678766   0.000000
     6  C    0.000000   0.000000   0.000000   0.000000   0.000000   3.980661
     7  O    0.000000   0.000000   0.000000   0.000000   0.000000   0.000000
     8  C    0.000000   0.000000   0.000000   0.000000   0.000000   0.000000
     9  C    0.000000   0.000000   0.000000   0.000000   0.000000   0.000000
    10  C    0.000000   0.000000   0.000000   0.000000   0.000000   0.000000
    11  C    0.000000   0.000000   0.000000   0.000000   0.000000   0.000000
    12  C    0.000000   0.000000   0.000000   0.000000   0.000000   0.000000
    13  C    0.000000   0.000000   0.000000   0.000000   0.000000   0.000000
    14  C    0.000000   0.000000   0.000000   0.000000   0.000000   0.000000
    15  C    0.000000   0.000000   0.000000   0.000000   0.000000   0.000000
    16  C    0.000000   0.000000   0.000000   0.000000   0.000000   0.000000
    17  H    0.000000   0.000000   0.000000   0.000000   0.000000   0.000000
    18  H    0.000000   0.000000   0.000000   0.000000   0.000000   0.000000
    19  H    0.000000   0.000000   0.000000   0.000000   0.000000   0.000000
    20  H    0.000000   0.000000   0.000000   0.000000   0.000000   0.000000
    21  H    0.000000   0.000000   0.000000   0.000000   0.000000   0.000000
    22  H    0.000000   0.000000   0.000000   0.000000   0.000000   0.000000
    23  O    0.000000   0.000000   0.000000   0.000000   0.000000   0.000000
    24  H    0.000000   0.000000   0.000000   0.000000   0.000000   0.000000
    25  O    0.000000   0.000000   0.000000   0.000000   0.000000   0.000000
    26  H    0.000000   0.000000   0.000000   0.000000   0.000000   0.000000
               7          8          9         10         11         12
     1  C    0.000000   0.000000   0.000000   0.000000   0.000000   0.000000
     2  C    0.000000   0.000000   0.000000   0.000000   0.000000   0.000000
     3  C    0.000000   0.000000   0.000000   0.000000   0.000000   0.000000
     4  O    0.000000   0.000000   0.000000   0.000000   0.000000   0.000000
     5  C    0.000000   0.000000   0.000000   0.000000   0.000000   0.000000
     6  C    0.000000   0.000000   0.000000   0.000000   0.000000   0.000000
     7  O    6.514100   0.000000   0.000000   0.000000   0.000000   0.000000
     8  C    0.000000   4.006371   0.000000   0.000000   0.000000   0.000000
     9  C    0.000000   0.000000   4.006626   0.000000   0.000000   0.000000
    10  C    0.000000   0.000000   0.000000   4.018885   0.000000   0.000000
    11  C    0.000000   0.000000   0.000000   0.000000   3.991217   0.000000
    12  C    0.000000   0.000000   0.000000   0.000000   0.000000   3.991203
    13  C    0.000000   0.000000   0.000000   0.000000   0.000000   0.000000
    14  C    0.000000   0.000000   0.000000   0.000000   0.000000   0.000000
    15  C    0.000000   0.000000   0.000000   0.000000   0.000000   0.000000
    16  C    0.000000   0.000000   0.000000   0.000000   0.000000   0.000000
    17  H    0.000000   0.000000   0.000000   0.000000   0.000000   0.000000
    18  H    0.000000   0.000000   0.000000   0.000000   0.000000   0.000000
    19  H    0.000000   0.000000   0.000000   0.000000   0.000000   0.000000
    20  H    0.000000   0.000000   0.000000   0.000000   0.000000   0.000000
    21  H    0.000000   0.000000   0.000000   0.000000   0.000000   0.000000
    22  H    0.000000   0.000000   0.000000   0.000000   0.000000   0.000000
    23  O    0.000000   0.000000   0.000000   0.000000   0.000000   0.000000
    24  H    0.000000   0.000000   0.000000   0.000000   0.000000   0.000000
    25  O    0.000000   0.000000   0.000000   0.000000   0.000000   0.000000
    26  H    0.000000   0.000000   0.000000   0.000000   0.000000   0.000000
              13         14         15         16         17         18
     1  C    0.000000   0.000000   0.000000   0.000000   0.000000   0.000000
     2  C    0.000000   0.000000   0.000000   0.000000   0.000000   0.000000
     3  C    0.000000   0.000000   0.000000   0.000000   0.000000   0.000000
     4  O    0.000000   0.000000   0.000000   0.000000   0.000000   0.000000
     5  C    0.000000   0.000000   0.000000   0.000000   0.000000   0.000000
     6  C    0.000000   0.000000   0.000000   0.000000   0.000000   0.000000
     7  O    0.000000   0.000000   0.000000   0.000000   0.000000   0.000000
     8  C    0.000000   0.000000   0.000000   0.000000   0.000000   0.000000
     9  C    0.000000   0.000000   0.000000   0.000000   0.000000   0.000000
    10  C    0.000000   0.000000   0.000000   0.000000   0.000000   0.000000
    11  C    0.000000   0.000000   0.000000   0.000000   0.000000   0.000000
    12  C    0.000000   0.000000   0.000000   0.000000   0.000000   0.000000
    13  C    3.841388   0.000000   0.000000   0.000000   0.000000   0.000000
    14  C    0.000000   4.037574   0.000000   0.000000   0.000000   0.000000
    15  C    0.000000   0.000000   4.025903   0.000000   0.000000   0.000000
    16  C    0.000000   0.000000   0.000000   3.842073   0.000000   0.000000
    17  H    0.000000   0.000000   0.000000   0.000000   0.934751   0.000000
    18  H    0.000000   0.000000   0.000000   0.000000   0.000000   0.942555
    19  H    0.000000   0.000000   0.000000   0.000000   0.000000   0.000000
    20  H    0.000000   0.000000   0.000000   0.000000   0.000000   0.000000
    21  H    0.000000   0.000000   0.000000   0.000000   0.000000   0.000000
    22  H    0.000000   0.000000   0.000000   0.000000   0.000000   0.000000
    23  O    0.000000   0.000000   0.000000   0.000000   0.000000   0.000000
    24  H    0.000000   0.000000   0.000000   0.000000   0.000000   0.000000
    25  O    0.000000   0.000000   0.000000   0.000000   0.000000   0.000000
    26  H    0.000000   0.000000   0.000000   0.000000   0.000000   0.000000
              19         20         21         22         23         24
     1  C    0.000000   0.000000   0.000000   0.000000   0.000000   0.000000
     2  C    0.000000   0.000000   0.000000   0.000000   0.000000   0.000000
     3  C    0.000000   0.000000   0.000000   0.000000   0.000000   0.000000
     4  O    0.000000   0.000000   0.000000   0.000000   0.000000   0.000000
     5  C    0.000000   0.000000   0.000000   0.000000   0.000000   0.000000
     6  C    0.000000   0.000000   0.000000   0.000000   0.000000   0.000000
     7  O    0.000000   0.000000   0.000000   0.000000   0.000000   0.000000
     8  C    0.000000   0.000000   0.000000   0.000000   0.000000   0.000000
     9  C    0.000000   0.000000   0.000000   0.000000   0.000000   0.000000
    10  C    0.000000   0.000000   0.000000   0.000000   0.000000   0.000000
    11  C    0.000000   0.000000   0.000000   0.000000   0.000000   0.000000
    12  C    0.000000   0.000000   0.000000   0.000000   0.000000   0.000000
    13  C    0.000000   0.000000   0.000000   0.000000   0.000000   0.000000
    14  C    0.000000   0.000000   0.000000   0.000000   0.000000   0.000000
    15  C    0.000000   0.000000   0.000000   0.000000   0.000000   0.000000
    16  C    0.000000   0.000000   0.000000   0.000000   0.000000   0.000000
    17  H    0.000000   0.000000   0.000000   0.000000   0.000000   0.000000
    18  H    0.000000   0.000000   0.000000   0.000000   0.000000   0.000000
    19  H    0.942344   0.000000   0.000000   0.000000   0.000000   0.000000
    20  H    0.000000   0.942356   0.000000   0.000000   0.000000   0.000000
    21  H    0.000000   0.000000   0.958548   0.000000   0.000000   0.000000
    22  H    0.000000   0.000000   0.000000   0.950785   0.000000   0.000000
    23  O    0.000000   0.000000   0.000000   0.000000   6.332935   0.000000
    24  H    0.000000   0.000000   0.000000   0.000000   0.000000   0.777616
    25  O    0.000000   0.000000   0.000000   0.000000   0.000000   0.000000
    26  H    0.000000   0.000000   0.000000   0.000000   0.000000   0.000000
              25         26
     1  C    0.000000   0.000000
     2  C    0.000000   0.000000
     3  C    0.000000   0.000000
     4  O    0.000000   0.000000
     5  C    0.000000   0.000000
     6  C    0.000000   0.000000
     7  O    0.000000   0.000000
     8  C    0.000000   0.000000
     9  C    0.000000   0.000000
    10  C    0.000000   0.000000
    11  C    0.000000   0.000000
    12  C    0.000000   0.000000
    13  C    0.000000   0.000000
    14  C    0.000000   0.000000
    15  C    0.000000   0.000000
    16  C    0.000000   0.000000
    17  H    0.000000   0.000000
    18  H    0.000000   0.000000
    19  H    0.000000   0.000000
    20  H    0.000000   0.000000
    21  H    0.000000   0.000000
    22  H    0.000000   0.000000
    23  O    0.000000   0.000000
    24  H    0.000000   0.000000
    25  O    6.335248   0.000000
    26  H    0.000000   0.775764
 Mulliken charges:
               1
     1  C    0.320881
     2  C    0.020255
     3  C   -0.004881
     4  O   -0.508586
     5  C    0.321234
     6  C    0.019339
     7  O   -0.514100
     8  C   -0.006371
     9  C   -0.006626
    10  C   -0.018885
    11  C    0.008783
    12  C    0.008797
    13  C    0.158612
    14  C   -0.037574
    15  C   -0.025903
    16  C    0.157927
    17  H    0.065249
    18  H    0.057445
    19  H    0.057656
    20  H    0.057644
    21  H    0.041452
    22  H    0.049215
    23  O   -0.332935
    24  H    0.222384
    25  O   -0.335248
    26  H    0.224236
 Sum of Mulliken charges =   0.00000
 Mulliken charges with hydrogens summed into heavy atoms:
               1
     1  C    0.320881
     2  C    0.020255
     3  C   -0.004881
     4  O   -0.508586
     5  C    0.321234
     6  C    0.019339
     7  O   -0.514100
     8  C   -0.006371
     9  C    0.058624
    10  C    0.038559
    11  C    0.066439
    12  C    0.066441
    13  C    0.158612
    14  C    0.003878
    15  C    0.023312
    16  C    0.157927
    23  O   -0.110551
    25  O   -0.111012
 Charge=             -0.0000 electrons
 Dipole moment (field-independent basis, Debye):
    X=             -1.4398    Y=             -3.4128    Z=             -0.0004  Tot=              3.7041
 N-N= 4.602954231342D+02 E-N= 0.000000000000D+00  KE=-1.114961042201D+03
 Orbital energies and kinetic energies (alpha):
                                 1                 2
   1         O                -1.729663        -13.902093
   2         O                -1.683219        -12.983090
   3         O                -1.637335        -13.001483
   4         O                -1.595926        -14.025917
   5         O                -1.545057        -13.205184
   6         O                -1.496136        -13.558611
   7         O                -1.340772        -13.579507
   8         O                -1.247738        -13.325901
   9         O                -1.212022        -13.008198
  10         O                -1.128451        -13.083039
  11         O                -1.039512        -12.753331
  12         O                -0.989811        -13.107710
  13         O                -0.957228        -12.631967
  14         O                -0.931741        -12.731437
  15         O                -0.887629        -12.688682
  16         O                -0.862073        -12.499503
  17         O                -0.787455        -12.398104
  18         O                -0.727848        -12.208234
  19         O                -0.719366        -12.708933
  20         O                -0.679212        -12.627220
  21         O                -0.661919        -12.329820
  22         O                -0.605340        -12.356706
  23         O                -0.603378        -12.363009
  24         O                -0.594387        -12.948669
  25         O                -0.593420        -12.180804
  26         O                -0.587134        -12.355814
  27         O                -0.578739        -12.816004
  28         O                -0.558908        -11.955340
  29         O                -0.545985        -12.298473
  30         O                -0.532253        -11.976029
  31         O                -0.524694        -12.108681
  32         O                -0.516842        -11.859489
  33         O                -0.498071        -13.043302
  34         O                -0.482736        -12.565490
  35         O                -0.473374        -11.959139
  36         O                -0.471657        -12.276554
  37         O                -0.461469        -12.303664
  38         O                -0.436875        -12.347350
  39         O                -0.376441        -12.788040
  40         O                -0.367717        -12.802728
  41         O                -0.356854        -12.487529
  42         O                -0.355453        -12.489461
  43         O                -0.337338        -12.411108
  44         O                -0.331128        -12.429169
  45         V                -0.064187        -12.723240
  46         V                -0.017262        -12.333955
  47         V                 0.002253        -12.468692
  48         V                 0.007146        -12.255118
  49         V                 0.048213        -12.825978
  50         V                 0.048780        -12.146861
  51         V                 0.059456        -12.578878
  52         V                 0.083140        -11.980949
  53         V                 0.088338        -12.239204
  54         V                 0.095764        -12.596913
  55         V                 0.099500        -11.841339
  56         V                 0.107966        -12.683830
  57         V                 0.111174        -12.243333
  58         V                 0.126393        -11.794712
  59         V                 0.129627        -11.954317
  60         V                 0.177631        -11.490573
  61         V                 0.188411        -11.056107
  62         V                 0.192367        -11.080158
  63         V                 0.200762        -11.458807
  64         V                 0.227137        -12.379931
  65         V                 0.237581        -10.389918
  66         V                 0.239015        -10.347682
  67         V                 0.250099        -12.387638
  68         V                 0.290780        -11.692478
  69         V                 0.315588        -11.352027
  70         V                 0.326198        -11.667515
  71         V                 0.360718        -11.868663
  72         V                 0.369325        -11.816456
  73         V                 0.403681        -11.729099
  74         V                 0.413735        -12.236228
  75         V                 0.423667        -11.967169
  76         V                 0.427521        -11.672426
  77         V                 0.443521        -11.875773
  78         V                 0.463660        -12.072724
  79         V                 0.490300        -12.052357
  80         V                 0.497999        -12.377042
 Total kinetic energy from orbitals=-1.114961042201D+03
 1\1\GINC-GTX1080DELTA\SP\RZINDO\STO-3G\C14H8O4\MVEROT\12-Apr-2022\0\\#
 n ZINDO(NSTATE=10) pop=full gfinput\\UV-spectra\\0,1\C,0,0.0056438813,
 1.4683333222,0.0003704801\C,0,1.267726694,0.691391807,0.0002026458\C,0
 ,-1.254438207,0.7024648529,0.0001566834\O,0,0.013100578,2.707575866,0.
 0005527272\C,0,-0.0007495842,-1.479272531,-0.0002708379\C,0,-1.2612105
 232,-0.7011728197,-0.0001465196\O,0,-0.0109707169,-2.7192042621,-0.000
 6143913\C,0,1.2596632842,-0.7151593867,-0.0001028394\C,0,2.4767628431,
 1.3858692651,0.0003584908\C,0,-2.473650868,-1.3942966141,-0.0003366345
 \C,0,2.4727085991,-1.4146729451,-0.0002509796\C,0,-2.4707855349,1.4014
 791685,0.0002651227\C,0,3.6857460325,0.6660493826,0.000208481\C,0,3.68
 74893996,-0.7352176605,-0.0000969208\C,0,-3.6849264041,0.7256602757,0.
 0000798183\C,0,-3.6806504333,-0.6792488138,-0.0002220543\H,0,2.4892901
 671,2.4880884133,0.0005982215\H,0,-2.4690788111,-2.4962392685,-0.00057
 46693\H,0,2.4537920888,-2.5180802817,-0.0004921131\H,0,-2.4511895264,2
 .5051216112,0.0005035806\H,0,4.6355797039,-1.2918549518,-0.0002140902\
 H,0,-4.6411769653,1.2684684156,0.0001645664\O,0,4.8370424604,1.4132938
 58,0.0003763745\H,0,5.5918988235,0.8055090276,0.0002529275\O,0,-4.9057
 423725,-1.2982815671,-0.0003969058\H,0,-4.7609146086,-2.2568041632,-0.
 0005911642\\Version=AM64L-G09RevD.01\State=1-A\HF=-132.2354058\RMSD=5.
 544e-09\PG=C01 [X(C14H8O4)]\\@


 EDUCATION WITHOUT COMMON SENSE IS A LOAD OF BOOKS ON THE BACK OF AN ASS.
 Job cpu time:       0 days  0 hours  0 minutes  1.2 seconds.
 File lengths (MBytes):  RWF=    127 Int=      0 D2E=      0 Chk=      5 Scr=      2
 Normal termination of Gaussian 09 at Tue Apr 12 00:35:58 2022.
