 Entering Gaussian System, Link 0=g09
 Input=/scratch/mverot/propane-opt/propane-opt.com
 Output=/scratch/mverot/propane-opt/propane-opt.log
 Initial command:
 /opt/g09/l1.exe "/scratch/mverot/propane-opt/Gau-755132.inp" -scrdir="/scratch/mverot/propane-opt/"
 Entering Link 1 = /opt/g09/l1.exe PID=    755134.
  
 Copyright (c) 1988,1990,1992,1993,1995,1998,2003,2009,2013,
            Gaussian, Inc.  All Rights Reserved.
  
 This is part of the Gaussian(R) 09 program.  It is based on
 the Gaussian(R) 03 system (copyright 2003, Gaussian, Inc.),
 the Gaussian(R) 98 system (copyright 1998, Gaussian, Inc.),
 the Gaussian(R) 94 system (copyright 1995, Gaussian, Inc.),
 the Gaussian 92(TM) system (copyright 1992, Gaussian, Inc.),
 the Gaussian 90(TM) system (copyright 1990, Gaussian, Inc.),
 the Gaussian 88(TM) system (copyright 1988, Gaussian, Inc.),
 the Gaussian 86(TM) system (copyright 1986, Carnegie Mellon
 University), and the Gaussian 82(TM) system (copyright 1983,
 Carnegie Mellon University). Gaussian is a federally registered
 trademark of Gaussian, Inc.
  
 This software contains proprietary and confidential information,
 including trade secrets, belonging to Gaussian, Inc.
  
 This software is provided under written license and may be
 used, copied, transmitted, or stored only in accord with that
 written license.
  
 The following legend is applicable only to US Government
 contracts under FAR:
  
                    RESTRICTED RIGHTS LEGEND
  
 Use, reproduction and disclosure by the US Government is
 subject to restrictions as set forth in subparagraphs (a)
 and (c) of the Commercial Computer Software - Restricted
 Rights clause in FAR 52.227-19.
  
 Gaussian, Inc.
 340 Quinnipiac St., Bldg. 40, Wallingford CT 06492
  
  
 ---------------------------------------------------------------
 Warning -- This program may not be used in any manner that
 competes with the business of Gaussian, Inc. or will provide
 assistance to any competitor of Gaussian, Inc.  The licensee
 of this program is prohibited from giving any competitor of
 Gaussian, Inc. access to this program.  By using this program,
 the user acknowledges that Gaussian, Inc. is engaged in the
 business of creating and licensing software in the field of
 computational chemistry and represents and warrants to the
 licensee that it is not a competitor of Gaussian, Inc. and that
 it will not use this program in any manner prohibited above.
 ---------------------------------------------------------------
  

 Cite this work as:
 Gaussian 09, Revision D.01,
 M. J. Frisch, G. W. Trucks, H. B. Schlegel, G. E. Scuseria, 
 M. A. Robb, J. R. Cheeseman, G. Scalmani, V. Barone, B. Mennucci, 
 G. A. Petersson, H. Nakatsuji, M. Caricato, X. Li, H. P. Hratchian, 
 A. F. Izmaylov, J. Bloino, G. Zheng, J. L. Sonnenberg, M. Hada, 
 M. Ehara, K. Toyota, R. Fukuda, J. Hasegawa, M. Ishida, T. Nakajima, 
 Y. Honda, O. Kitao, H. Nakai, T. Vreven, J. A. Montgomery, Jr., 
 J. E. Peralta, F. Ogliaro, M. Bearpark, J. J. Heyd, E. Brothers, 
 K. N. Kudin, V. N. Staroverov, T. Keith, R. Kobayashi, J. Normand, 
 K. Raghavachari, A. Rendell, J. C. Burant, S. S. Iyengar, J. Tomasi, 
 M. Cossi, N. Rega, J. M. Millam, M. Klene, J. E. Knox, J. B. Cross, 
 V. Bakken, C. Adamo, J. Jaramillo, R. Gomperts, R. E. Stratmann, 
 O. Yazyev, A. J. Austin, R. Cammi, C. Pomelli, J. W. Ochterski, 
 R. L. Martin, K. Morokuma, V. G. Zakrzewski, G. A. Voth, 
 P. Salvador, J. J. Dannenberg, S. Dapprich, A. D. Daniels, 
 O. Farkas, J. B. Foresman, J. V. Ortiz, J. Cioslowski, 
 and D. J. Fox, Gaussian, Inc., Wallingford CT, 2013.
 
 ******************************************
 Gaussian 09:  AM64L-G09RevD.01 24-Apr-2013
                16-Apr-2022 
 ******************************************
 %chk=propane-opt
 --------------------
 # hf/6-31G* opt freq
 --------------------
 1/18=20,19=15,38=1/1,3;
 2/9=110,12=2,17=6,18=5,40=1/2;
 3/5=1,6=6,7=1,11=9,16=1,25=1,30=1,71=1/1,2,3;
 4//1;
 5/5=2,38=5/2;
 6/7=2,8=2,9=2,10=2,28=1/1;
 7//1,2,3,16;
 1/18=20,19=15/3(2);
 2/9=110/2;
 99//99;
 2/9=110/2;
 3/5=1,6=6,7=1,11=9,16=1,25=1,30=1,71=1/1,2,3;
 4/5=5,16=3,69=1/1;
 5/5=2,38=5/2;
 7//1,2,3,16;
 1/18=20,19=15/3(-5);
 2/9=110/2;
 6/7=2,8=2,9=2,10=2,19=2,28=1/1;
 99/9=1/99;
 -------------------------
 Optimisation de geometrie
 -------------------------
 Symbolic Z-matrix:
 Charge =  0 Multiplicity = 1
 C                     3.3709    1.6468    1.3253 
 C                     2.0046    1.0757    0.9328 
 C                     0.9486    1.2446    2.0298 
 H                     3.7626    1.1536    2.2237 
 H                     3.3033    2.7202    1.5421 
 H                     4.1075    1.5143    0.5244 
 H                     1.6559    1.5639    0.0126 
 H                     2.1109    0.0097    0.6897 
 H                    -0.0189    0.8295    1.7244 
 H                     0.7958    2.3038    2.2719 
 H                     1.2529    0.7365    2.9535 
 

 GradGradGradGradGradGradGradGradGradGradGradGradGradGradGradGradGradGrad
 Berny optimization.
 Initialization pass.
                           ----------------------------
                           !    Initial Parameters    !
                           ! (Angstroms and Degrees)  !
 --------------------------                            --------------------------
 ! Name  Definition              Value          Derivative Info.                !
 --------------------------------------------------------------------------------
 ! R1    R(1,2)                  1.532          estimate D2E/DX2                !
 ! R2    R(1,4)                  1.0972         estimate D2E/DX2                !
 ! R3    R(1,5)                  1.0972         estimate D2E/DX2                !
 ! R4    R(1,6)                  1.0962         estimate D2E/DX2                !
 ! R5    R(2,3)                  1.532          estimate D2E/DX2                !
 ! R6    R(2,7)                  1.0985         estimate D2E/DX2                !
 ! R7    R(2,8)                  1.0985         estimate D2E/DX2                !
 ! R8    R(3,9)                  1.0962         estimate D2E/DX2                !
 ! R9    R(3,10)                 1.0972         estimate D2E/DX2                !
 ! R10   R(3,11)                 1.0973         estimate D2E/DX2                !
 ! A1    A(2,1,4)              111.1376         estimate D2E/DX2                !
 ! A2    A(2,1,5)              111.1239         estimate D2E/DX2                !
 ! A3    A(2,1,6)              111.5339         estimate D2E/DX2                !
 ! A4    A(4,1,5)              107.4563         estimate D2E/DX2                !
 ! A5    A(4,1,6)              107.6998         estimate D2E/DX2                !
 ! A6    A(5,1,6)              107.7002         estimate D2E/DX2                !
 ! A7    A(1,2,3)              112.9662         estimate D2E/DX2                !
 ! A8    A(1,2,7)              109.393          estimate D2E/DX2                !
 ! A9    A(1,2,8)              109.3989         estimate D2E/DX2                !
 ! A10   A(3,2,7)              109.3919         estimate D2E/DX2                !
 ! A11   A(3,2,8)              109.3989         estimate D2E/DX2                !
 ! A12   A(7,2,8)              106.0577         estimate D2E/DX2                !
 ! A13   A(2,3,9)              111.5385         estimate D2E/DX2                !
 ! A14   A(2,3,10)             111.1258         estimate D2E/DX2                !
 ! A15   A(2,3,11)             111.1357         estimate D2E/DX2                !
 ! A16   A(9,3,10)             107.7051         estimate D2E/DX2                !
 ! A17   A(9,3,11)             107.6951         estimate D2E/DX2                !
 ! A18   A(10,3,11)            107.4512         estimate D2E/DX2                !
 ! D1    D(4,1,2,3)             59.8461         estimate D2E/DX2                !
 ! D2    D(4,1,2,7)           -178.0484         estimate D2E/DX2                !
 ! D3    D(4,1,2,8)            -62.2726         estimate D2E/DX2                !
 ! D4    D(5,1,2,3)            -59.7681         estimate D2E/DX2                !
 ! D5    D(5,1,2,7)             62.3374         estimate D2E/DX2                !
 ! D6    D(5,1,2,8)            178.1132         estimate D2E/DX2                !
 ! D7    D(6,1,2,3)           -179.9566         estimate D2E/DX2                !
 ! D8    D(6,1,2,7)            -57.8511         estimate D2E/DX2                !
 ! D9    D(6,1,2,8)             57.9248         estimate D2E/DX2                !
 ! D10   D(1,2,3,9)            179.9366         estimate D2E/DX2                !
 ! D11   D(1,2,3,10)            59.7374         estimate D2E/DX2                !
 ! D12   D(1,2,3,11)           -59.8702         estimate D2E/DX2                !
 ! D13   D(7,2,3,9)             57.8304         estimate D2E/DX2                !
 ! D14   D(7,2,3,10)           -62.3687         estimate D2E/DX2                !
 ! D15   D(7,2,3,11)           178.0236         estimate D2E/DX2                !
 ! D16   D(8,2,3,9)            -57.9447         estimate D2E/DX2                !
 ! D17   D(8,2,3,10)          -178.1439         estimate D2E/DX2                !
 ! D18   D(8,2,3,11)            62.2485         estimate D2E/DX2                !
 --------------------------------------------------------------------------------
 Trust Radius=3.00D-01 FncErr=1.00D-07 GrdErr=1.00D-07
 Number of steps in this run=     56 maximum allowed number of steps=    100.
 GradGradGradGradGradGradGradGradGradGradGradGradGradGradGradGradGradGrad

                          Input orientation:                          
 ---------------------------------------------------------------------
 Center     Atomic      Atomic             Coordinates (Angstroms)
 Number     Number       Type             X           Y           Z
 ---------------------------------------------------------------------
      1          6           0        3.370900    1.646800    1.325300
      2          6           0        2.004600    1.075700    0.932800
      3          6           0        0.948600    1.244600    2.029800
      4          1           0        3.762600    1.153600    2.223700
      5          1           0        3.303300    2.720200    1.542100
      6          1           0        4.107500    1.514300    0.524400
      7          1           0        1.655900    1.563900    0.012600
      8          1           0        2.110900    0.009700    0.689700
      9          1           0       -0.018900    0.829500    1.724400
     10          1           0        0.795800    2.303800    2.271900
     11          1           0        1.252900    0.736500    2.953500
 ---------------------------------------------------------------------
                    Distance matrix (angstroms):
                    1          2          3          4          5
     1  C    0.000000
     2  C    1.531988   0.000000
     3  C    2.554530   1.532016   0.000000
     4  H    1.097177   2.182442   2.822140   0.000000
     5  H    1.097160   2.182258   2.821322   1.769116   0.000000
     6  H    1.096165   2.186630   3.509646   1.771068   1.771058
     7  H    2.161314   1.098499   2.161324   3.081476   2.527910
     8  H    2.161408   1.098523   2.161432   2.527801   3.081430
     9  H    3.509701   2.186732   1.096190   3.828065   3.826878
    10  H    2.821142   2.182342   1.097208   3.182324   2.644533
    11  H    2.822340   2.182507   1.097263   2.646729   3.182963
                    6          7          8          9         10
     6  H    0.000000
     7  H    2.504944   0.000000
     8  H    2.505505   1.755285   0.000000
     9  H    4.351566   2.504907   2.505738   0.000000
    10  H    3.826803   2.528173   3.081516   1.771173   0.000000
    11  H    3.828086   3.081541   2.527685   1.771104   1.769166
                   11
    11  H    0.000000
 Stoichiometry    C3H8
 Framework group  C1[X(C3H8)]
 Deg. of freedom    27
 Full point group                 C1      NOp   1
 Largest Abelian subgroup         C1      NOp   1
 Largest concise Abelian subgroup C1      NOp   1
                         Standard orientation:                         
 ---------------------------------------------------------------------
 Center     Atomic      Atomic             Coordinates (Angstroms)
 Number     Number       Type             X           Y           Z
 ---------------------------------------------------------------------
      1          6           0       -1.277258   -0.259807    0.000015
      2          6           0       -0.000021    0.586156    0.000021
      3          6           0        1.277272   -0.259772   -0.000009
      4          1           0       -1.323248   -0.906880    0.884876
      5          1           0       -1.322369   -0.907741   -0.884239
      6          1           0       -2.175752    0.368114   -0.000736
      7          1           0       -0.000030    1.246720   -0.877677
      8          1           0       -0.000025    1.246909    0.877608
      9          1           0        2.175814    0.368124   -0.001133
     10          1           0        1.322164   -0.908141   -0.884016
     11          1           0        1.323481   -0.906569    0.885149
 ---------------------------------------------------------------------
 Rotational constants (GHZ):     29.4314024      8.3593218      7.4086717
 Standard basis: 6-31G(d) (6D, 7F)
 There are    61 symmetry adapted cartesian basis functions of A   symmetry.
 There are    61 symmetry adapted basis functions of A   symmetry.
    61 basis functions,   116 primitive gaussians,    61 cartesian basis functions
    13 alpha electrons       13 beta electrons
       nuclear repulsion energy        82.2570324365 Hartrees.
 NAtoms=   11 NActive=   11 NUniq=   11 SFac= 1.00D+00 NAtFMM=   60 NAOKFM=F Big=F
 Integral buffers will be    131072 words long.
 Raffenetti 1 integral format.
 Two-electron integral symmetry is turned on.
 One-electron integrals computed using PRISM.
 NBasis=    61 RedAO= T EigKep=  6.26D-03  NBF=    61
 NBsUse=    61 1.00D-06 EigRej= -1.00D+00 NBFU=    61
 ExpMin= 1.61D-01 ExpMax= 3.05D+03 ExpMxC= 4.57D+02 IAcc=1 IRadAn=         1 AccDes= 0.00D+00
 Harris functional with IExCor=  205 and IRadAn=       1 diagonalized for initial guess.
 HarFok:  IExCor=  205 AccDes= 0.00D+00 IRadAn=         1 IDoV= 1 UseB2=F ITyADJ=14
 ICtDFT=  3500011 ScaDFX=  1.000000  1.000000  1.000000  1.000000
 FoFCou: FMM=F IPFlag=           0 FMFlag=      100000 FMFlg1=           0
         NFxFlg=           0 DoJE=T BraDBF=F KetDBF=T FulRan=T
         wScrn=  0.000000 ICntrl=     500 IOpCl=  0 I1Cent=   200000004 NGrid=           0
         NMat0=    1 NMatS0=      1 NMatT0=    0 NMatD0=    1 NMtDS0=    0 NMtDT0=    0
 Petite list used in FoFCou.
 Keep R1 ints in memory in canonical form, NReq=2673389.
 Requested convergence on RMS density matrix=1.00D-08 within 128 cycles.
 Requested convergence on MAX density matrix=1.00D-06.
 Requested convergence on             energy=1.00D-06.
 No special actions if energy rises.
 SCF Done:  E(RHF) =  -118.263007531     A.U. after   10 cycles
            NFock= 10  Conv=0.80D-08     -V/T= 2.0015

 **********************************************************************

            Population analysis using the SCF density.

 **********************************************************************

 Orbital symmetries:
       Occupied  (A) (A) (A) (A) (A) (A) (A) (A) (A) (A) (A) (A)
                 (A)
       Virtual   (A) (A) (A) (A) (A) (A) (A) (A) (A) (A) (A) (A)
                 (A) (A) (A) (A) (A) (A) (A) (A) (A) (A) (A) (A)
                 (A) (A) (A) (A) (A) (A) (A) (A) (A) (A) (A) (A)
                 (A) (A) (A) (A) (A) (A) (A) (A) (A) (A) (A) (A)
 The electronic state is 1-A.
 Alpha  occ. eigenvalues --  -11.22011 -11.21234 -11.21230  -1.04973  -0.92328
 Alpha  occ. eigenvalues --   -0.79824  -0.62097  -0.59504  -0.54865  -0.52945
 Alpha  occ. eigenvalues --   -0.47471  -0.47423  -0.46622
 Alpha virt. eigenvalues --    0.23246   0.29360   0.29604   0.29619   0.31589
 Alpha virt. eigenvalues --    0.34106   0.34746   0.35191   0.39208   0.44127
 Alpha virt. eigenvalues --    0.71290   0.71560   0.74649   0.76518   0.78841
 Alpha virt. eigenvalues --    0.93432   0.97454   0.97972   1.01652   1.14206
 Alpha virt. eigenvalues --    1.15944   1.16861   1.18393   1.20130   1.22470
 Alpha virt. eigenvalues --    1.23837   1.24786   1.25244   1.63126   1.73812
 Alpha virt. eigenvalues --    1.75481   1.81499   2.03500   2.20352   2.23921
 Alpha virt. eigenvalues --    2.28587   2.35027   2.41253   2.56841   2.59227
 Alpha virt. eigenvalues --    2.66528   2.72541   2.75365   2.91869   3.02397
 Alpha virt. eigenvalues --    4.56450   4.70587   4.88762
          Condensed to atoms (all electrons):
               1          2          3          4          5          6
     1  C    5.107154   0.337554  -0.059730   0.390177   0.390183   0.393389
     2  C    0.337554   5.044101   0.337545  -0.038125  -0.038148  -0.035276
     3  C   -0.059730   0.337545   5.107186  -0.003035  -0.003052   0.004223
     4  H    0.390177  -0.038125  -0.003035   0.549945  -0.029723  -0.027856
     5  H    0.390183  -0.038148  -0.003052  -0.029723   0.549969  -0.027855
     6  H    0.393389  -0.035276   0.004223  -0.027856  -0.027855   0.538997
     7  H   -0.041470   0.401118  -0.041471   0.004210  -0.003016  -0.002470
     8  H   -0.041454   0.401094  -0.041451  -0.003023   0.004210  -0.002459
     9  H    0.004222  -0.035268   0.393381  -0.000068  -0.000067  -0.000091
    10  H   -0.003053  -0.038148   0.390176   0.000077   0.002664  -0.000067
    11  H   -0.003034  -0.038123   0.390167   0.002654   0.000077  -0.000068
               7          8          9         10         11
     1  C   -0.041470  -0.041454   0.004222  -0.003053  -0.003034
     2  C    0.401118   0.401094  -0.035268  -0.038148  -0.038123
     3  C   -0.041471  -0.041451   0.393381   0.390176   0.390167
     4  H    0.004210  -0.003023  -0.000068   0.000077   0.002654
     5  H   -0.003016   0.004210  -0.000067   0.002664   0.000077
     6  H   -0.002470  -0.002459  -0.000091  -0.000067  -0.000068
     7  H    0.563221  -0.032906  -0.002472  -0.003012   0.004210
     8  H   -0.032906   0.563201  -0.002455   0.004210  -0.003026
     9  H   -0.002472  -0.002455   0.538990  -0.027847  -0.027860
    10  H   -0.003012   0.004210  -0.027847   0.549977  -0.029728
    11  H    0.004210  -0.003026  -0.027860  -0.029728   0.549988
 Mulliken charges:
               1
     1  C   -0.473939
     2  C   -0.298324
     3  C   -0.473939
     4  H    0.154767
     5  H    0.154757
     6  H    0.159533
     7  H    0.154059
     8  H    0.154058
     9  H    0.159536
    10  H    0.154750
    11  H    0.154743
 Sum of Mulliken charges =  -0.00000
 Mulliken charges with hydrogens summed into heavy atoms:
               1
     1  C   -0.004883
     2  C    0.009793
     3  C   -0.004911
 Electronic spatial extent (au):  <R**2>=            228.5113
 Charge=             -0.0000 electrons
 Dipole moment (field-independent basis, Debye):
    X=             -0.0001    Y=              0.0635    Z=             -0.0001  Tot=              0.0635
 Quadrupole moment (field-independent basis, Debye-Ang):
   XX=            -22.3533   YY=            -21.9948   ZZ=            -21.6024
   XY=              0.0000   XZ=              0.0000   YZ=             -0.0000
 Traceless Quadrupole moment (field-independent basis, Debye-Ang):
   XX=             -0.3698   YY=             -0.0113   ZZ=              0.3811
   XY=              0.0000   XZ=              0.0000   YZ=             -0.0000
 Octapole moment (field-independent basis, Debye-Ang**2):
  XXX=             -0.0003  YYY=              0.1867  ZZZ=              0.0022  XYY=             -0.0003
  XXY=              1.3992  XXZ=             -0.0004  XZZ=             -0.0005  YZZ=             -0.4819
  YYZ=             -0.0014  XYZ=             -0.0001
 Hexadecapole moment (field-independent basis, Debye-Ang**3):
 XXXX=           -204.0856 YYYY=            -70.2946 ZZZZ=            -42.9795 XXXY=              0.0009
 XXXZ=             -0.0005 YYYX=              0.0003 YYYZ=              0.0031 ZZZX=              0.0011
 ZZZY=             -0.0015 XXYY=            -45.3274 XXZZ=            -42.1663 YYZZ=            -16.9305
 XXYZ=             -0.0046 YYXZ=             -0.0007 ZZXY=              0.0001
 N-N= 8.225703243654D+01 E-N=-4.388755363284D+02  KE= 1.180859952120D+02
 Calling FoFJK, ICntrl=      2127 FMM=F ISym2X=0 I1Cent= 0 IOpClX= 0 NMat=1 NMatS=1 NMatT=0.
 ***** Axes restored to original set *****
 -------------------------------------------------------------------
 Center     Atomic                   Forces (Hartrees/Bohr)
 Number     Number              X              Y              Z
 -------------------------------------------------------------------
      1        6           0.004552098    0.002247317    0.002105114
      2        6          -0.001301375   -0.003082782   -0.006170311
      3        6          -0.003189488    0.000946031    0.004419295
      4        1          -0.002691893    0.003158428   -0.006107536
      5        1           0.000362257   -0.007185851   -0.001600406
      6        1          -0.005211777    0.000747106    0.005239021
      7        1           0.002442747   -0.003198753    0.006565164
      8        1          -0.000673476    0.007439311    0.001939652
      9        1           0.006695565    0.002732937    0.001778778
     10        1           0.001014180   -0.007106703   -0.001811700
     11        1          -0.001998838    0.003302960   -0.006357072
 -------------------------------------------------------------------
 Cartesian Forces:  Max     0.007439311 RMS     0.004114089

 GradGradGradGradGradGradGradGradGradGradGradGradGradGradGradGradGradGrad
 Berny optimization.
 FormGI is forming the generalized inverse of G from B-inverse, IUseBI=4.
 Internal  Forces:  Max     0.007713470 RMS     0.003193634
 Search for a local minimum.
 Step number   1 out of a maximum of   56
 All quantities printed in internal units (Hartrees-Bohrs-Radians)
 Mixed Optimization -- RFO/linear search
 Second derivative matrix not updated -- first step.
 ITU=  0
     Eigenvalues ---    0.00342   0.00343   0.03465   0.04798   0.05429
     Eigenvalues ---    0.05430   0.05488   0.05488   0.08396   0.12252
     Eigenvalues ---    0.16000   0.16000   0.16000   0.16000   0.16000
     Eigenvalues ---    0.16000   0.21894   0.29238   0.29241   0.33846
     Eigenvalues ---    0.33849   0.33987   0.33993   0.33996   0.33998
     Eigenvalues ---    0.34107   0.34110
 RFO step:  Lambda=-1.39140643D-03 EMin= 3.42440651D-03
 Linear search not attempted -- first point.
 Iteration  1 RMS(Cart)=  0.01161536 RMS(Int)=  0.00001487
 Iteration  2 RMS(Cart)=  0.00001209 RMS(Int)=  0.00000109
 Iteration  3 RMS(Cart)=  0.00000000 RMS(Int)=  0.00000109
 Variable       Old X    -DE/DX   Delta X   Delta X   Delta X     New X
                                 (Linear)    (Quad)   (Total)
    R1        2.89504  -0.00314   0.00000  -0.01070  -0.01070   2.88434
    R2        2.07336  -0.00738   0.00000  -0.02163  -0.02163   2.05174
    R3        2.07333  -0.00737   0.00000  -0.02159  -0.02159   2.05175
    R4        2.07145  -0.00742   0.00000  -0.02167  -0.02167   2.04978
    R5        2.89509  -0.00316   0.00000  -0.01077  -0.01077   2.88432
    R6        2.07586  -0.00770   0.00000  -0.02265  -0.02265   2.05322
    R7        2.07591  -0.00771   0.00000  -0.02270  -0.02270   2.05321
    R8        2.07150  -0.00744   0.00000  -0.02173  -0.02173   2.04977
    R9        2.07342  -0.00740   0.00000  -0.02169  -0.02169   2.05174
   R10        2.07353  -0.00744   0.00000  -0.02179  -0.02179   2.05174
    A1        1.93972  -0.00007   0.00000  -0.00012  -0.00013   1.93959
    A2        1.93948  -0.00004   0.00000   0.00010   0.00010   1.93958
    A3        1.94663  -0.00046   0.00000  -0.00346  -0.00347   1.94317
    A4        1.87547   0.00019   0.00000   0.00237   0.00237   1.87783
    A5        1.87972   0.00021   0.00000   0.00068   0.00068   1.88040
    A6        1.87972   0.00020   0.00000   0.00068   0.00068   1.88041
    A7        1.97163  -0.00054   0.00000  -0.00329  -0.00330   1.96834
    A8        1.90927   0.00013   0.00000   0.00022   0.00022   1.90949
    A9        1.90937   0.00013   0.00000   0.00011   0.00010   1.90947
   A10        1.90925   0.00014   0.00000   0.00024   0.00024   1.90949
   A11        1.90937   0.00013   0.00000   0.00008   0.00008   1.90945
   A12        1.85106   0.00005   0.00000   0.00304   0.00304   1.85410
   A13        1.94671  -0.00047   0.00000  -0.00354  -0.00354   1.94318
   A14        1.93951  -0.00004   0.00000   0.00007   0.00007   1.93958
   A15        1.93968  -0.00007   0.00000  -0.00009  -0.00009   1.93960
   A16        1.87981   0.00020   0.00000   0.00061   0.00060   1.88041
   A17        1.87963   0.00022   0.00000   0.00076   0.00075   1.88039
   A18        1.87538   0.00019   0.00000   0.00244   0.00244   1.87782
    D1        1.04451   0.00008   0.00000   0.00098   0.00098   1.04549
    D2       -3.10753  -0.00002   0.00000  -0.00079  -0.00079  -3.10832
    D3       -1.08686   0.00019   0.00000   0.00304   0.00304  -1.08382
    D4       -1.04315  -0.00009   0.00000  -0.00199  -0.00199  -1.04514
    D5        1.08799  -0.00019   0.00000  -0.00376  -0.00376   1.08423
    D6        3.10866   0.00002   0.00000   0.00007   0.00007   3.10874
    D7       -3.14083  -0.00001   0.00000  -0.00058  -0.00058  -3.14142
    D8       -1.00969  -0.00011   0.00000  -0.00235  -0.00235  -1.01205
    D9        1.01098   0.00010   0.00000   0.00148   0.00148   1.01246
   D10        3.14049   0.00000   0.00000   0.00072   0.00072   3.14121
   D11        1.04262   0.00009   0.00000   0.00230   0.00230   1.04491
   D12       -1.04493  -0.00008   0.00000  -0.00077  -0.00077  -1.04570
   D13        1.00933   0.00011   0.00000   0.00251   0.00250   1.01184
   D14       -1.08854   0.00019   0.00000   0.00408   0.00408  -1.08446
   D15        3.10710   0.00002   0.00000   0.00101   0.00101   3.10811
   D16       -1.01133  -0.00010   0.00000  -0.00133  -0.00133  -1.01265
   D17       -3.10920  -0.00002   0.00000   0.00025   0.00025  -3.10895
   D18        1.08644  -0.00019   0.00000  -0.00282  -0.00282   1.08362
         Item               Value     Threshold  Converged?
 Maximum Force            0.007713     0.000450     NO 
 RMS     Force            0.003194     0.000300     NO 
 Maximum Displacement     0.032000     0.001800     NO 
 RMS     Displacement     0.011615     0.001200     NO 
 Predicted change in Energy=-6.986320D-04
 GradGradGradGradGradGradGradGradGradGradGradGradGradGradGradGradGradGrad

                          Input orientation:                          
 ---------------------------------------------------------------------
 Center     Atomic      Atomic             Coordinates (Angstroms)
 Number     Number       Type             X           Y           Z
 ---------------------------------------------------------------------
      1          6           0        3.365125    1.645835    1.327088
      2          6           0        2.004735    1.076383    0.933733
      3          6           0        0.954448    1.245577    2.028228
      4          1           0        3.752101    1.156602    2.215748
      5          1           0        3.297839    2.708288    1.540378
      6          1           0        4.092744    1.513475    0.533599
      7          1           0        1.659823    1.560861    0.024430
      8          1           0        2.110299    0.021762    0.694688
      9          1           0       -0.001967    0.833809    1.724452
     10          1           0        0.802655    2.293955    2.266300
     11          1           0        1.256299    0.742053    2.941554
 ---------------------------------------------------------------------
                    Distance matrix (angstroms):
                    1          2          3          4          5
     1  C    0.000000
     2  C    1.526325   0.000000
     3  C    2.542277   1.526318   0.000000
     4  H    1.085734   2.168706   2.805342   0.000000
     5  H    1.085737   2.168698   2.805174   1.752201   0.000000
     6  H    1.084699   2.170470   3.486343   1.753004   1.753013
     7  H    2.147601   1.086515   2.147595   3.056620   2.509538
     8  H    2.147588   1.086513   2.147567   2.509382   3.056609
     9  H    3.486344   2.170467   1.084694   3.799814   3.799509
    10  H    2.805073   2.168689   1.085733   3.161544   2.631459
    11  H    2.805436   2.168704   1.085733   2.632047   3.161844
                    6          7          8          9         10
     6  H    0.000000
     7  H    2.486081   0.000000
     8  H    2.486211   1.738102   0.000000
     9  H    4.318186   2.486006   2.486262   0.000000
    10  H    3.799485   2.509611   3.056592   1.753009   0.000000
    11  H    3.799837   3.056614   2.509291   1.752994   1.752188
                   11
    11  H    0.000000
 Stoichiometry    C3H8
 Framework group  C1[X(C3H8)]
 Deg. of freedom    27
 Full point group                 C1      NOp   1
 Largest Abelian subgroup         C1      NOp   1
 Largest concise Abelian subgroup C1      NOp   1
                         Standard orientation:                         
 ---------------------------------------------------------------------
 Center     Atomic      Atomic             Coordinates (Angstroms)
 Number     Number       Type             X           Y           Z
 ---------------------------------------------------------------------
      1          6           0       -1.271140   -0.259633    0.000000
      2          6           0        0.000002    0.585272   -0.000002
      3          6           0        1.271137   -0.259634   -0.000003
      4          1           0       -1.315972   -0.899245    0.876188
      5          1           0       -1.315787   -0.899502   -0.876013
      6          1           0       -2.159093    0.363353   -0.000178
      7          1           0        0.000003    1.237418   -0.869036
      8          1           0        0.000017    1.237369    0.869066
      9          1           0        2.159093    0.363338   -0.000393
     10          1           0        1.315672   -0.899663   -0.875899
     11          1           0        1.316075   -0.899095    0.876288
 ---------------------------------------------------------------------
 Rotational constants (GHZ):     29.8078657      8.4550856      7.4877964
 Standard basis: 6-31G(d) (6D, 7F)
 There are    61 symmetry adapted cartesian basis functions of A   symmetry.
 There are    61 symmetry adapted basis functions of A   symmetry.
    61 basis functions,   116 primitive gaussians,    61 cartesian basis functions
    13 alpha electrons       13 beta electrons
       nuclear repulsion energy        82.8162599255 Hartrees.
 NAtoms=   11 NActive=   11 NUniq=   11 SFac= 1.00D+00 NAtFMM=   60 NAOKFM=F Big=F
 Integral buffers will be    131072 words long.
 Raffenetti 1 integral format.
 Two-electron integral symmetry is turned on.
 One-electron integrals computed using PRISM.
 NBasis=    61 RedAO= T EigKep=  6.08D-03  NBF=    61
 NBsUse=    61 1.00D-06 EigRej= -1.00D+00 NBFU=    61
 Initial guess from the checkpoint file:  "propane-opt.chk"
 B after Tr=    -0.000000   -0.000000    0.000000
         Rot=    1.000000   -0.000114    0.000005    0.000005 Ang=  -0.01 deg.
 ExpMin= 1.61D-01 ExpMax= 3.05D+03 ExpMxC= 4.57D+02 IAcc=1 IRadAn=         1 AccDes= 0.00D+00
 Harris functional with IExCor=  205 and IRadAn=       1 diagonalized for initial guess.
 HarFok:  IExCor=  205 AccDes= 0.00D+00 IRadAn=         1 IDoV= 1 UseB2=F ITyADJ=14
 ICtDFT=  3500011 ScaDFX=  1.000000  1.000000  1.000000  1.000000
 FoFCou: FMM=F IPFlag=           0 FMFlag=      100000 FMFlg1=           0
         NFxFlg=           0 DoJE=T BraDBF=F KetDBF=T FulRan=T
         wScrn=  0.000000 ICntrl=     500 IOpCl=  0 I1Cent=   200000004 NGrid=           0
         NMat0=    1 NMatS0=      1 NMatT0=    0 NMatD0=    1 NMtDS0=    0 NMtDT0=    0
 Petite list used in FoFCou.
 Keep R1 ints in memory in canonical form, NReq=2673479.
 Requested convergence on RMS density matrix=1.00D-08 within 128 cycles.
 Requested convergence on MAX density matrix=1.00D-06.
 Requested convergence on             energy=1.00D-06.
 No special actions if energy rises.
 SCF Done:  E(RHF) =  -118.263642353     A.U. after    9 cycles
            NFock=  9  Conv=0.19D-08     -V/T= 2.0002
 Calling FoFJK, ICntrl=      2127 FMM=F ISym2X=0 I1Cent= 0 IOpClX= 0 NMat=1 NMatS=1 NMatT=0.
 ***** Axes restored to original set *****
 -------------------------------------------------------------------
 Center     Atomic                   Forces (Hartrees/Bohr)
 Number     Number              X              Y              Z
 -------------------------------------------------------------------
      1        6           0.000524921    0.000203258    0.000110331
      2        6          -0.000090736   -0.000222407   -0.000440790
      3        6          -0.000420625    0.000047339    0.000390970
      4        1           0.000168946   -0.000314994    0.000481461
      5        1          -0.000092451    0.000583356    0.000086833
      6        1           0.000552677   -0.000068666   -0.000528414
      7        1          -0.000172882    0.000308305   -0.000420855
      8        1           0.000075005   -0.000543383   -0.000057509
      9        1          -0.000700193   -0.000277584   -0.000166803
     10        1          -0.000057109    0.000593219    0.000075486
     11        1           0.000212447   -0.000308444    0.000469290
 -------------------------------------------------------------------
 Cartesian Forces:  Max     0.000700193 RMS     0.000354246

 GradGradGradGradGradGradGradGradGradGradGradGradGradGradGradGradGradGrad
 Berny optimization.
 Using GEDIIS/GDIIS optimizer.
 FormGI is forming the generalized inverse of G from B-inverse, IUseBI=4.
 Internal  Forces:  Max     0.001221803 RMS     0.000370706
 Search for a local minimum.
 Step number   2 out of a maximum of   56
 All quantities printed in internal units (Hartrees-Bohrs-Radians)
 Mixed Optimization -- En-DIIS/RFO-DIIS
 Update second derivatives using D2CorX and points    1    2
 DE= -6.35D-04 DEPred=-6.99D-04 R= 9.09D-01
 TightC=F SS=  1.41D+00  RLast= 6.49D-02 DXNew= 5.0454D-01 1.9474D-01
 Trust test= 9.09D-01 RLast= 6.49D-02 DXMaxT set to 3.00D-01
 ITU=  1  0
 Use linear search instead of GDIIS.
     Eigenvalues ---    0.00342   0.00343   0.03489   0.04804   0.05455
     Eigenvalues ---    0.05456   0.05487   0.05488   0.08359   0.12225
     Eigenvalues ---    0.15987   0.16000   0.16000   0.16000   0.16000
     Eigenvalues ---    0.16012   0.21909   0.29239   0.29398   0.33847
     Eigenvalues ---    0.33867   0.33989   0.33994   0.33997   0.34036
     Eigenvalues ---    0.34108   0.37340
 RFO step:  Lambda=-5.71014588D-06 EMin= 3.42439623D-03
 Quartic linear search produced a step of -0.08728.
 Iteration  1 RMS(Cart)=  0.00183856 RMS(Int)=  0.00000045
 Iteration  2 RMS(Cart)=  0.00000051 RMS(Int)=  0.00000015
 Variable       Old X    -DE/DX   Delta X   Delta X   Delta X     New X
                                 (Linear)    (Quad)   (Total)
    R1        2.88434   0.00122   0.00093   0.00279   0.00372   2.88806
    R2        2.05174   0.00060   0.00189  -0.00044   0.00145   2.05319
    R3        2.05175   0.00059   0.00188  -0.00044   0.00144   2.05319
    R4        2.04978   0.00077   0.00189   0.00001   0.00190   2.05168
    R5        2.88432   0.00122   0.00094   0.00279   0.00373   2.88806
    R6        2.05322   0.00054   0.00198  -0.00067   0.00131   2.05453
    R7        2.05321   0.00055   0.00198  -0.00066   0.00132   2.05453
    R8        2.04977   0.00077   0.00190   0.00001   0.00191   2.05168
    R9        2.05174   0.00060   0.00189  -0.00044   0.00145   2.05319
   R10        2.05174   0.00060   0.00190  -0.00045   0.00145   2.05319
    A1        1.93959  -0.00009   0.00001  -0.00055  -0.00054   1.93905
    A2        1.93958  -0.00009  -0.00001  -0.00051  -0.00052   1.93905
    A3        1.94317   0.00011   0.00030   0.00035   0.00066   1.94383
    A4        1.87783   0.00008  -0.00021   0.00055   0.00034   1.87818
    A5        1.88040  -0.00000  -0.00006   0.00010   0.00005   1.88044
    A6        1.88041  -0.00000  -0.00006   0.00010   0.00004   1.88044
    A7        1.96834   0.00023   0.00029   0.00057   0.00086   1.96919
    A8        1.90949  -0.00008  -0.00002  -0.00035  -0.00037   1.90912
    A9        1.90947  -0.00008  -0.00001  -0.00036  -0.00037   1.90911
   A10        1.90949  -0.00008  -0.00002  -0.00035  -0.00037   1.90912
   A11        1.90945  -0.00008  -0.00001  -0.00034  -0.00034   1.90911
   A12        1.85410   0.00007  -0.00027   0.00084   0.00057   1.85467
   A13        1.94318   0.00011   0.00031   0.00034   0.00065   1.94382
   A14        1.93958  -0.00009  -0.00001  -0.00051  -0.00052   1.93906
   A15        1.93960  -0.00009   0.00001  -0.00055  -0.00054   1.93905
   A16        1.88041  -0.00001  -0.00005   0.00008   0.00003   1.88044
   A17        1.88039  -0.00000  -0.00007   0.00012   0.00005   1.88044
   A18        1.87782   0.00008  -0.00021   0.00057   0.00035   1.87817
    D1        1.04549  -0.00001  -0.00009  -0.00034  -0.00043   1.04506
    D2       -3.10832  -0.00001   0.00007  -0.00065  -0.00058  -3.10890
    D3       -1.08382  -0.00001  -0.00027  -0.00004  -0.00031  -1.08413
    D4       -1.04514   0.00001   0.00017  -0.00033  -0.00015  -1.04529
    D5        1.08423   0.00001   0.00033  -0.00063  -0.00030   1.08393
    D6        3.10874   0.00001  -0.00001  -0.00003  -0.00003   3.10870
    D7       -3.14142   0.00000   0.00005  -0.00034  -0.00029   3.14148
    D8       -1.01205  -0.00000   0.00021  -0.00065  -0.00044  -1.01249
    D9        1.01246  -0.00000  -0.00013  -0.00004  -0.00017   1.01229
   D10        3.14121   0.00000  -0.00006   0.00056   0.00050  -3.14148
   D11        1.04491  -0.00001  -0.00020   0.00058   0.00037   1.04529
   D12       -1.04570   0.00001   0.00007   0.00057   0.00063  -1.04507
   D13        1.01184   0.00000  -0.00022   0.00087   0.00065   1.01249
   D14       -1.08446  -0.00001  -0.00036   0.00088   0.00053  -1.08393
   D15        3.10811   0.00001  -0.00009   0.00088   0.00079   3.10890
   D16       -1.01265   0.00000   0.00012   0.00025   0.00037  -1.01229
   D17       -3.10895  -0.00001  -0.00002   0.00026   0.00024  -3.10870
   D18        1.08362   0.00001   0.00025   0.00026   0.00050   1.08412
         Item               Value     Threshold  Converged?
 Maximum Force            0.001222     0.000450     NO 
 RMS     Force            0.000371     0.000300     NO 
 Maximum Displacement     0.005359     0.001800     NO 
 RMS     Displacement     0.001839     0.001200     NO 
 Predicted change in Energy=-8.979301D-06
 GradGradGradGradGradGradGradGradGradGradGradGradGradGradGradGradGradGrad

                          Input orientation:                          
 ---------------------------------------------------------------------
 Center     Atomic      Atomic             Coordinates (Angstroms)
 Number     Number       Type             X           Y           Z
 ---------------------------------------------------------------------
      1          6           0        3.367064    1.646155    1.326671
      2          6           0        2.004632    1.076293    0.933330
      3          6           0        0.952575    1.245303    2.028909
      4          1           0        3.753885    1.156408    2.216053
      5          1           0        3.299531    2.709378    1.539925
      6          1           0        4.095580    1.513603    0.532664
      7          1           0        1.659510    1.561532    0.023684
      8          1           0        2.110297    0.020977    0.694236
      9          1           0       -0.004723    0.832874    1.725209
     10          1           0        0.800592    2.294507    2.266729
     11          1           0        1.255158    0.741570    2.942791
 ---------------------------------------------------------------------
                    Distance matrix (angstroms):
                    1          2          3          4          5
     1  C    0.000000
     2  C    1.528293   0.000000
     3  C    2.546287   1.528294   0.000000
     4  H    1.086500   2.170642   2.808961   0.000000
     5  H    1.086500   2.170642   2.809061   1.753654   0.000000
     6  H    1.085703   2.173439   3.491306   1.754464   1.754465
     7  H    2.149576   1.087208   2.149579   3.058924   2.511216
     8  H    2.149567   1.087209   2.149570   2.511277   3.058916
     9  H    3.491305   2.173438   1.085703   3.804305   3.804430
    10  H    2.809065   2.170647   1.086501   3.165403   2.635347
    11  H    2.808962   2.170642   1.086501   2.635124   3.165401
                    6          7          8          9         10
     6  H    0.000000
     7  H    2.489136   0.000000
     8  H    2.489053   1.739586   0.000000
     9  H    4.324123   2.489137   2.489055   0.000000
    10  H    3.804436   2.511223   3.058921   1.754464   0.000000
    11  H    3.804306   3.058926   2.511279   1.754463   1.753654
                   11
    11  H    0.000000
 Stoichiometry    C3H8
 Framework group  C1[X(C3H8)]
 Deg. of freedom    27
 Full point group                 C1      NOp   1
 Largest Abelian subgroup         C1      NOp   1
 Largest concise Abelian subgroup C1      NOp   1
                         Standard orientation:                         
 ---------------------------------------------------------------------
 Center     Atomic      Atomic             Coordinates (Angstroms)
 Number     Number       Type             X           Y           Z
 ---------------------------------------------------------------------
      1          6           0       -1.273144   -0.259795   -0.000001
      2          6           0       -0.000001    0.585656   -0.000002
      3          6           0        1.273144   -0.259794   -0.000001
      4          1           0       -1.317561   -0.899938    0.876770
      5          1           0       -1.317671   -0.899776   -0.876884
      6          1           0       -2.162062    0.363563    0.000114
      7          1           0       -0.000002    1.237958   -0.869785
      8          1           0       -0.000002    1.237936    0.869800
      9          1           0        2.162061    0.363566    0.000114
     10          1           0        1.317677   -0.899778   -0.876882
     11          1           0        1.317563   -0.899935    0.876771
 ---------------------------------------------------------------------
 Rotational constants (GHZ):     29.7697099      8.4304660      7.4677957
 Standard basis: 6-31G(d) (6D, 7F)
 There are    61 symmetry adapted cartesian basis functions of A   symmetry.
 There are    61 symmetry adapted basis functions of A   symmetry.
    61 basis functions,   116 primitive gaussians,    61 cartesian basis functions
    13 alpha electrons       13 beta electrons
       nuclear repulsion energy        82.7257971930 Hartrees.
 NAtoms=   11 NActive=   11 NUniq=   11 SFac= 1.00D+00 NAtFMM=   60 NAOKFM=F Big=F
 Integral buffers will be    131072 words long.
 Raffenetti 1 integral format.
 Two-electron integral symmetry is turned on.
 One-electron integrals computed using PRISM.
 NBasis=    61 RedAO= T EigKep=  6.12D-03  NBF=    61
 NBsUse=    61 1.00D-06 EigRej= -1.00D+00 NBFU=    61
 Initial guess from the checkpoint file:  "propane-opt.chk"
 B after Tr=     0.000000    0.000000    0.000000
         Rot=    1.000000   -0.000070    0.000005   -0.000001 Ang=  -0.01 deg.
 Keep R1 ints in memory in canonical form, NReq=2673479.
 Requested convergence on RMS density matrix=1.00D-08 within 128 cycles.
 Requested convergence on MAX density matrix=1.00D-06.
 Requested convergence on             energy=1.00D-06.
 No special actions if energy rises.
 SCF Done:  E(RHF) =  -118.263651025     A.U. after    7 cycles
            NFock=  7  Conv=0.93D-08     -V/T= 2.0004
 Calling FoFJK, ICntrl=      2127 FMM=F ISym2X=0 I1Cent= 0 IOpClX= 0 NMat=1 NMatS=1 NMatT=0.
 ***** Axes restored to original set *****
 -------------------------------------------------------------------
 Center     Atomic                   Forces (Hartrees/Bohr)
 Number     Number              X              Y              Z
 -------------------------------------------------------------------
      1        6           0.000018159    0.000050335    0.000099844
      2        6          -0.000025531   -0.000066572   -0.000126406
      3        6           0.000022477    0.000050901    0.000098450
      4        1          -0.000015380   -0.000033345    0.000021321
      5        1          -0.000032591    0.000026554   -0.000003784
      6        1          -0.000046212   -0.000032835   -0.000046260
      7        1          -0.000005908    0.000040229    0.000003316
      8        1           0.000012543   -0.000022822    0.000031130
      9        1           0.000022378   -0.000021580   -0.000066222
     10        1           0.000016630    0.000034435   -0.000018425
     11        1           0.000033435   -0.000025301    0.000007036
 -------------------------------------------------------------------
 Cartesian Forces:  Max     0.000126406 RMS     0.000045358

 GradGradGradGradGradGradGradGradGradGradGradGradGradGradGradGradGradGrad
 Berny optimization.
 Using GEDIIS/GDIIS optimizer.
 FormGI is forming the generalized inverse of G from B-inverse, IUseBI=4.
 Internal  Forces:  Max     0.000118852 RMS     0.000037022
 Search for a local minimum.
 Step number   3 out of a maximum of   56
 All quantities printed in internal units (Hartrees-Bohrs-Radians)
 Mixed Optimization -- En-DIIS/RFO-DIIS
 Swapping is turned off.
 Update second derivatives using D2CorX and points    1    2    3
 DE= -8.67D-06 DEPred=-8.98D-06 R= 9.66D-01
 TightC=F SS=  1.41D+00  RLast= 7.37D-03 DXNew= 5.0454D-01 2.2101D-02
 Trust test= 9.66D-01 RLast= 7.37D-03 DXMaxT set to 3.00D-01
 ITU=  1  1  0
     Eigenvalues ---    0.00342   0.00343   0.03486   0.04768   0.05453
     Eigenvalues ---    0.05454   0.05492   0.05503   0.08366   0.12230
     Eigenvalues ---    0.15688   0.16000   0.16000   0.16000   0.16000
     Eigenvalues ---    0.16194   0.22099   0.29239   0.30271   0.33847
     Eigenvalues ---    0.33869   0.33988   0.33994   0.33997   0.34020
     Eigenvalues ---    0.34108   0.37814
 En-DIIS/RFO-DIIS IScMMF=        0 using points:     3    2
 RFO step:  Lambda=-1.52071218D-07.
 DidBck=F Rises=F RFO-DIIS coefs:    0.98391    0.01609
 Iteration  1 RMS(Cart)=  0.00041024 RMS(Int)=  0.00000007
 Iteration  2 RMS(Cart)=  0.00000011 RMS(Int)=  0.00000004
 Variable       Old X    -DE/DX   Delta X   Delta X   Delta X     New X
                                 (Linear)    (Quad)   (Total)
    R1        2.88806  -0.00005  -0.00006  -0.00000  -0.00006   2.88799
    R2        2.05319   0.00003  -0.00002   0.00014   0.00011   2.05330
    R3        2.05319   0.00003  -0.00002   0.00014   0.00011   2.05330
    R4        2.05168   0.00001  -0.00003   0.00010   0.00007   2.05175
    R5        2.88806  -0.00005  -0.00006  -0.00000  -0.00006   2.88799
    R6        2.05453   0.00002  -0.00002   0.00010   0.00008   2.05461
    R7        2.05453   0.00002  -0.00002   0.00010   0.00008   2.05461
    R8        2.05168   0.00001  -0.00003   0.00010   0.00007   2.05175
    R9        2.05319   0.00003  -0.00002   0.00014   0.00011   2.05330
   R10        2.05319   0.00003  -0.00002   0.00014   0.00011   2.05330
    A1        1.93905  -0.00002   0.00001  -0.00012  -0.00011   1.93894
    A2        1.93905  -0.00002   0.00001  -0.00011  -0.00011   1.93895
    A3        1.94383  -0.00009  -0.00001  -0.00060  -0.00061   1.94322
    A4        1.87818   0.00003  -0.00001   0.00033   0.00032   1.87850
    A5        1.88044   0.00005  -0.00000   0.00028   0.00028   1.88072
    A6        1.88044   0.00005  -0.00000   0.00028   0.00028   1.88072
    A7        1.96919  -0.00012  -0.00001  -0.00064  -0.00065   1.96854
    A8        1.90912   0.00003   0.00001   0.00004   0.00005   1.90917
    A9        1.90911   0.00003   0.00001   0.00006   0.00007   1.90918
   A10        1.90912   0.00003   0.00001   0.00004   0.00004   1.90917
   A11        1.90911   0.00003   0.00001   0.00006   0.00007   1.90917
   A12        1.85467   0.00000  -0.00001   0.00051   0.00050   1.85517
   A13        1.94382  -0.00009  -0.00001  -0.00060  -0.00061   1.94322
   A14        1.93906  -0.00002   0.00001  -0.00012  -0.00011   1.93895
   A15        1.93905  -0.00002   0.00001  -0.00012  -0.00011   1.93894
   A16        1.88044   0.00005  -0.00000   0.00028   0.00028   1.88072
   A17        1.88044   0.00005  -0.00000   0.00028   0.00028   1.88072
   A18        1.87817   0.00003  -0.00001   0.00033   0.00032   1.87850
    D1        1.04506   0.00001   0.00001   0.00023   0.00023   1.04530
    D2       -3.10890  -0.00001   0.00001  -0.00013  -0.00012  -3.10902
    D3       -1.08413   0.00003   0.00000   0.00054   0.00054  -1.08358
    D4       -1.04529  -0.00001   0.00000  -0.00003  -0.00003  -1.04532
    D5        1.08393  -0.00003   0.00000  -0.00039  -0.00038   1.08355
    D6        3.10870   0.00001   0.00000   0.00028   0.00028   3.10899
    D7        3.14148   0.00000   0.00000   0.00010   0.00010   3.14158
    D8       -1.01249  -0.00002   0.00001  -0.00026  -0.00025  -1.01274
    D9        1.01229   0.00002   0.00000   0.00041   0.00041   1.01270
   D10       -3.14148  -0.00000  -0.00001  -0.00009  -0.00010  -3.14158
   D11        1.04529   0.00001  -0.00001   0.00004   0.00003   1.04532
   D12       -1.04507  -0.00001  -0.00001  -0.00022  -0.00023  -1.04529
   D13        1.01249   0.00002  -0.00001   0.00026   0.00025   1.01274
   D14       -1.08393   0.00003  -0.00001   0.00039   0.00038  -1.08354
   D15        3.10890   0.00001  -0.00001   0.00014   0.00013   3.10903
   D16       -1.01229  -0.00002  -0.00001  -0.00040  -0.00041  -1.01270
   D17       -3.10870  -0.00001  -0.00000  -0.00027  -0.00028  -3.10898
   D18        1.08412  -0.00003  -0.00001  -0.00053  -0.00054   1.08359
         Item               Value     Threshold  Converged?
 Maximum Force            0.000119     0.000450     YES
 RMS     Force            0.000037     0.000300     YES
 Maximum Displacement     0.001108     0.001800     YES
 RMS     Displacement     0.000410     0.001200     YES
 Predicted change in Energy=-1.974175D-07
 Optimization completed.
    -- Stationary point found.
                           ----------------------------
                           !   Optimized Parameters   !
                           ! (Angstroms and Degrees)  !
 --------------------------                            --------------------------
 ! Name  Definition              Value          Derivative Info.                !
 --------------------------------------------------------------------------------
 ! R1    R(1,2)                  1.5283         -DE/DX =    0.0                 !
 ! R2    R(1,4)                  1.0865         -DE/DX =    0.0                 !
 ! R3    R(1,5)                  1.0865         -DE/DX =    0.0                 !
 ! R4    R(1,6)                  1.0857         -DE/DX =    0.0                 !
 ! R5    R(2,3)                  1.5283         -DE/DX =    0.0                 !
 ! R6    R(2,7)                  1.0872         -DE/DX =    0.0                 !
 ! R7    R(2,8)                  1.0872         -DE/DX =    0.0                 !
 ! R8    R(3,9)                  1.0857         -DE/DX =    0.0                 !
 ! R9    R(3,10)                 1.0865         -DE/DX =    0.0                 !
 ! R10   R(3,11)                 1.0865         -DE/DX =    0.0                 !
 ! A1    A(2,1,4)              111.0996         -DE/DX =    0.0                 !
 ! A2    A(2,1,5)              111.0996         -DE/DX =    0.0                 !
 ! A3    A(2,1,6)              111.373          -DE/DX =   -0.0001              !
 ! A4    A(4,1,5)              107.6115         -DE/DX =    0.0                 !
 ! A5    A(4,1,6)              107.7414         -DE/DX =    0.0001              !
 ! A6    A(5,1,6)              107.7415         -DE/DX =    0.0001              !
 ! A7    A(1,2,3)              112.8265         -DE/DX =   -0.0001              !
 ! A8    A(1,2,7)              109.3846         -DE/DX =    0.0                 !
 ! A9    A(1,2,8)              109.3838         -DE/DX =    0.0                 !
 ! A10   A(3,2,7)              109.3847         -DE/DX =    0.0                 !
 ! A11   A(3,2,8)              109.3839         -DE/DX =    0.0                 !
 ! A12   A(7,2,8)              106.2648         -DE/DX =    0.0                 !
 ! A13   A(2,3,9)              111.3729         -DE/DX =   -0.0001              !
 ! A14   A(2,3,10)             111.0999         -DE/DX =    0.0                 !
 ! A15   A(2,3,11)             111.0996         -DE/DX =    0.0                 !
 ! A16   A(9,3,10)             107.7414         -DE/DX =    0.0001              !
 ! A17   A(9,3,11)             107.7414         -DE/DX =    0.0001              !
 ! A18   A(10,3,11)            107.6114         -DE/DX =    0.0                 !
 ! D1    D(4,1,2,3)             59.8778         -DE/DX =    0.0                 !
 ! D2    D(4,1,2,7)           -178.1269         -DE/DX =    0.0                 !
 ! D3    D(4,1,2,8)            -62.1159         -DE/DX =    0.0                 !
 ! D4    D(5,1,2,3)            -59.8907         -DE/DX =    0.0                 !
 ! D5    D(5,1,2,7)             62.1046         -DE/DX =    0.0                 !
 ! D6    D(5,1,2,8)            178.1156         -DE/DX =    0.0                 !
 ! D7    D(6,1,2,3)            179.9934         -DE/DX =    0.0                 !
 ! D8    D(6,1,2,7)            -58.0113         -DE/DX =    0.0                 !
 ! D9    D(6,1,2,8)             57.9997         -DE/DX =    0.0                 !
 ! D10   D(1,2,3,9)           -179.9935         -DE/DX =    0.0                 !
 ! D11   D(1,2,3,10)            59.8907         -DE/DX =    0.0                 !
 ! D12   D(1,2,3,11)           -59.8779         -DE/DX =    0.0                 !
 ! D13   D(7,2,3,9)             58.0113         -DE/DX =    0.0                 !
 ! D14   D(7,2,3,10)           -62.1045         -DE/DX =    0.0                 !
 ! D15   D(7,2,3,11)           178.1269         -DE/DX =    0.0                 !
 ! D16   D(8,2,3,9)            -57.9998         -DE/DX =    0.0                 !
 ! D17   D(8,2,3,10)          -178.1157         -DE/DX =    0.0                 !
 ! D18   D(8,2,3,11)            62.1157         -DE/DX =    0.0                 !
 --------------------------------------------------------------------------------
 GradGradGradGradGradGradGradGradGradGradGradGradGradGradGradGradGradGrad

                          Input orientation:                          
 ---------------------------------------------------------------------
 Center     Atomic      Atomic             Coordinates (Angstroms)
 Number     Number       Type             X           Y           Z
 ---------------------------------------------------------------------
      1          6           0        3.367064    1.646155    1.326671
      2          6           0        2.004632    1.076293    0.933330
      3          6           0        0.952575    1.245303    2.028909
      4          1           0        3.753885    1.156408    2.216053
      5          1           0        3.299531    2.709378    1.539925
      6          1           0        4.095580    1.513603    0.532664
      7          1           0        1.659510    1.561532    0.023684
      8          1           0        2.110297    0.020977    0.694236
      9          1           0       -0.004723    0.832874    1.725209
     10          1           0        0.800592    2.294507    2.266729
     11          1           0        1.255158    0.741570    2.942791
 ---------------------------------------------------------------------
                    Distance matrix (angstroms):
                    1          2          3          4          5
     1  C    0.000000
     2  C    1.528293   0.000000
     3  C    2.546287   1.528294   0.000000
     4  H    1.086500   2.170642   2.808961   0.000000
     5  H    1.086500   2.170642   2.809061   1.753654   0.000000
     6  H    1.085703   2.173439   3.491306   1.754464   1.754465
     7  H    2.149576   1.087208   2.149579   3.058924   2.511216
     8  H    2.149567   1.087209   2.149570   2.511277   3.058916
     9  H    3.491305   2.173438   1.085703   3.804305   3.804430
    10  H    2.809065   2.170647   1.086501   3.165403   2.635347
    11  H    2.808962   2.170642   1.086501   2.635124   3.165401
                    6          7          8          9         10
     6  H    0.000000
     7  H    2.489136   0.000000
     8  H    2.489053   1.739586   0.000000
     9  H    4.324123   2.489137   2.489055   0.000000
    10  H    3.804436   2.511223   3.058921   1.754464   0.000000
    11  H    3.804306   3.058926   2.511279   1.754463   1.753654
                   11
    11  H    0.000000
 Stoichiometry    C3H8
 Framework group  C1[X(C3H8)]
 Deg. of freedom    27
 Full point group                 C1      NOp   1
 Largest Abelian subgroup         C1      NOp   1
 Largest concise Abelian subgroup C1      NOp   1
                         Standard orientation:                         
 ---------------------------------------------------------------------
 Center     Atomic      Atomic             Coordinates (Angstroms)
 Number     Number       Type             X           Y           Z
 ---------------------------------------------------------------------
      1          6           0       -1.273144   -0.259795   -0.000001
      2          6           0       -0.000001    0.585656   -0.000002
      3          6           0        1.273144   -0.259794   -0.000001
      4          1           0       -1.317561   -0.899938    0.876770
      5          1           0       -1.317671   -0.899776   -0.876884
      6          1           0       -2.162062    0.363563    0.000114
      7          1           0       -0.000002    1.237958   -0.869785
      8          1           0       -0.000002    1.237936    0.869800
      9          1           0        2.162061    0.363566    0.000114
     10          1           0        1.317677   -0.899778   -0.876882
     11          1           0        1.317563   -0.899935    0.876771
 ---------------------------------------------------------------------
 Rotational constants (GHZ):     29.7697099      8.4304660      7.4677957

 **********************************************************************

            Population analysis using the SCF density.

 **********************************************************************

 Orbital symmetries:
       Occupied  (A) (A) (A) (A) (A) (A) (A) (A) (A) (A) (A) (A)
                 (A)
       Virtual   (A) (A) (A) (A) (A) (A) (A) (A) (A) (A) (A) (A)
                 (A) (A) (A) (A) (A) (A) (A) (A) (A) (A) (A) (A)
                 (A) (A) (A) (A) (A) (A) (A) (A) (A) (A) (A) (A)
                 (A) (A) (A) (A) (A) (A) (A) (A) (A) (A) (A) (A)
 The electronic state is 1-A.
 Alpha  occ. eigenvalues --  -11.21579 -11.20760 -11.20756  -1.05286  -0.92670
 Alpha  occ. eigenvalues --   -0.80192  -0.62461  -0.59747  -0.55089  -0.53242
 Alpha  occ. eigenvalues --   -0.47550  -0.47480  -0.46883
 Alpha virt. eigenvalues --    0.23402   0.29587   0.29905   0.29972   0.31866
 Alpha virt. eigenvalues --    0.34268   0.35119   0.35497   0.39341   0.44283
 Alpha virt. eigenvalues --    0.71157   0.71441   0.74527   0.76181   0.78447
 Alpha virt. eigenvalues --    0.93863   0.97711   0.97871   1.01316   1.14986
 Alpha virt. eigenvalues --    1.16827   1.18018   1.19284   1.21260   1.23382
 Alpha virt. eigenvalues --    1.24457   1.25937   1.26473   1.63783   1.73839
 Alpha virt. eigenvalues --    1.75451   1.81858   2.03745   2.20801   2.24521
 Alpha virt. eigenvalues --    2.29464   2.35507   2.42283   2.58429   2.60943
 Alpha virt. eigenvalues --    2.68192   2.73927   2.76659   2.92506   3.02899
 Alpha virt. eigenvalues --    4.57502   4.71248   4.89253
          Condensed to atoms (all electrons):
               1          2          3          4          5          6
     1  C    5.103138   0.340716  -0.060552   0.391774   0.391773   0.395008
     2  C    0.340716   5.039636   0.340716  -0.038317  -0.038317  -0.035734
     3  C   -0.060552   0.340716   5.103138  -0.003183  -0.003181   0.004400
     4  H    0.391774  -0.038317  -0.003183   0.548197  -0.029986  -0.028195
     5  H    0.391773  -0.038317  -0.003181  -0.029986   0.548197  -0.028195
     6  H    0.395008  -0.035734   0.004400  -0.028195  -0.028195   0.537804
     7  H   -0.041828   0.402691  -0.041828   0.004369  -0.003122  -0.002559
     8  H   -0.041831   0.402693  -0.041830  -0.003121   0.004369  -0.002561
     9  H    0.004400  -0.035734   0.395008  -0.000070  -0.000070  -0.000097
    10  H   -0.003181  -0.038316   0.391773   0.000073   0.002700  -0.000070
    11  H   -0.003183  -0.038317   0.391774   0.002701   0.000073  -0.000070
               7          8          9         10         11
     1  C   -0.041828  -0.041831   0.004400  -0.003181  -0.003183
     2  C    0.402691   0.402693  -0.035734  -0.038316  -0.038317
     3  C   -0.041828  -0.041830   0.395008   0.391773   0.391774
     4  H    0.004369  -0.003121  -0.000070   0.000073   0.002701
     5  H   -0.003122   0.004369  -0.000070   0.002700   0.000073
     6  H   -0.002559  -0.002561  -0.000097  -0.000070  -0.000070
     7  H    0.561538  -0.033261  -0.002559  -0.003122   0.004369
     8  H   -0.033261   0.561543  -0.002561   0.004369  -0.003121
     9  H   -0.002559  -0.002561   0.537804  -0.028195  -0.028195
    10  H   -0.003122   0.004369  -0.028195   0.548196  -0.029986
    11  H    0.004369  -0.003121  -0.028195  -0.029986   0.548197
 Mulliken charges:
               1
     1  C   -0.476237
     2  C   -0.301718
     3  C   -0.476237
     4  H    0.155758
     5  H    0.155759
     6  H    0.160268
     7  H    0.155312
     8  H    0.155310
     9  H    0.160268
    10  H    0.155759
    11  H    0.155758
 Sum of Mulliken charges =  -0.00000
 Mulliken charges with hydrogens summed into heavy atoms:
               1
     1  C   -0.004452
     2  C    0.008904
     3  C   -0.004452
 Electronic spatial extent (au):  <R**2>=            226.5875
 Charge=             -0.0000 electrons
 Dipole moment (field-independent basis, Debye):
    X=              0.0000    Y=              0.0658    Z=              0.0000  Tot=              0.0658
 Quadrupole moment (field-independent basis, Debye-Ang):
   XX=            -22.2897   YY=            -21.9163   ZZ=            -21.5119
   XY=             -0.0000   XZ=             -0.0000   YZ=             -0.0000
 Traceless Quadrupole moment (field-independent basis, Debye-Ang):
   XX=             -0.3837   YY=             -0.0103   ZZ=              0.3940
   XY=             -0.0000   XZ=             -0.0000   YZ=             -0.0000
 Octapole moment (field-independent basis, Debye-Ang**2):
  XXX=              0.0000  YYY=              0.1867  ZZZ=             -0.0003  XYY=              0.0000
  XXY=              1.3695  XXZ=              0.0001  XZZ=             -0.0000  YZZ=             -0.4582
  YYZ=              0.0002  XYZ=              0.0000
 Hexadecapole moment (field-independent basis, Debye-Ang**3):
 XXXX=           -201.9228 YYYY=            -69.3514 ZZZZ=            -42.2769 XXXY=             -0.0000
 XXXZ=             -0.0000 YYYX=             -0.0000 YYYZ=             -0.0004 ZZZX=             -0.0000
 ZZZY=              0.0002 XXYY=            -44.7809 XXZZ=            -41.6043 YYZZ=            -16.7474
 XXYZ=              0.0005 YYXZ=             -0.0000 ZZXY=             -0.0000
 N-N= 8.272579719298D+01 E-N=-4.399269199731D+02  KE= 1.182219276999D+02
 1\1\GINC-GTX1080DELTA\FOpt\RHF\6-31G(d)\C3H8\MVEROT\16-Apr-2022\0\\# h
 f/6-31G* opt freq\\Optimisation de geometrie\\0,1\C,3.367064226,1.6461
 545457,1.3266705126\C,2.004631752,1.0762934632,0.9333296807\C,0.952575
 0716,1.2453032999,2.0289094996\H,3.753884982,1.1564082768,2.216053184\
 H,3.2995306326,2.7093783408,1.5399247011\H,4.0955798505,1.5136025747,0
 .5326638049\H,1.6595097244,1.561531697,0.0236835117\H,2.1102970922,0.0
 209767911,0.6942356396\H,-0.0047232082,0.8328743117,1.7252094857\H,0.8
 005921813,2.29450651,2.2667285804\H,1.2551576956,0.7415701891,2.942791
 3996\\Version=AM64L-G09RevD.01\State=1-A\HF=-118.263651\RMSD=9.283e-09
 \RMSF=4.536e-05\Dipole=-0.0047493,-0.0113065,-0.0227819\Quadrupole=-0.
 2371153,0.2212211,0.0158942,-0.1104418,0.1026317,-0.0905738\PG=C01 [X(
 C3H8)]\\@


 The earth never tires,
 The earth is rude, silent, incomprehensible at first,
 Nature is rude and incomprehensible at first,
 Be not discouraged, keep on,
 There are divine things well envelop'd,
 I swear to you there are divine things more beautiful than words can tell.
                                 -- Walt Whitman
 Job cpu time:       0 days  0 hours  0 minutes  3.8 seconds.
 File lengths (MBytes):  RWF=     72 Int=      0 D2E=      0 Chk=      3 Scr=      2
 Normal termination of Gaussian 09 at Sat Apr 16 12:15:11 2022.
 Link1:  Proceeding to internal job step number  2.
 -----------------------------------------------------------------
 #N Geom=AllCheck Guess=TCheck SCRF=Check GenChk RHF/6-31G(d) Freq
 -----------------------------------------------------------------
 1/10=4,29=7,30=1,38=1,40=1/1,3;
 2/12=2,40=1/2;
 3/5=1,6=6,7=1,11=1,14=-4,16=1,25=1,30=1,70=2,71=2,116=1,140=1/1,2,3;
 4/5=101/1;
 5/5=2,98=1/2;
 8/6=4,10=90,11=11/1;
 10/13=10,15=4/2;
 11/6=3,8=1,9=11,15=111,16=1/1,2,10;
 10/6=1/2;
 6/7=2,8=2,9=2,10=2,18=1,28=1/1;
 7/8=1,10=1,25=1/1,2,3,16;
 1/10=4,30=1/3;
 99//99;
 Structure from the checkpoint file:  "propane-opt.chk"
 -------------------------
 Optimisation de geometrie
 -------------------------
 Charge =  0 Multiplicity = 1
 Redundant internal coordinates found in file.
 C,0,3.367064226,1.6461545457,1.3266705126
 C,0,2.004631752,1.0762934632,0.9333296807
 C,0,0.9525750716,1.2453032999,2.0289094996
 H,0,3.753884982,1.1564082768,2.216053184
 H,0,3.2995306326,2.7093783408,1.5399247011
 H,0,4.0955798505,1.5136025747,0.5326638049
 H,0,1.6595097244,1.561531697,0.0236835117
 H,0,2.1102970922,0.0209767911,0.6942356396
 H,0,-0.0047232082,0.8328743117,1.7252094857
 H,0,0.8005921813,2.29450651,2.2667285804
 H,0,1.2551576956,0.7415701891,2.9427913996
 Recover connectivity data from disk.

 GradGradGradGradGradGradGradGradGradGradGradGradGradGradGradGradGradGrad
 Berny optimization.
 Initialization pass.
                           ----------------------------
                           !    Initial Parameters    !
                           ! (Angstroms and Degrees)  !
 --------------------------                            --------------------------
 ! Name  Definition              Value          Derivative Info.                !
 --------------------------------------------------------------------------------
 ! R1    R(1,2)                  1.5283         calculate D2E/DX2 analytically  !
 ! R2    R(1,4)                  1.0865         calculate D2E/DX2 analytically  !
 ! R3    R(1,5)                  1.0865         calculate D2E/DX2 analytically  !
 ! R4    R(1,6)                  1.0857         calculate D2E/DX2 analytically  !
 ! R5    R(2,3)                  1.5283         calculate D2E/DX2 analytically  !
 ! R6    R(2,7)                  1.0872         calculate D2E/DX2 analytically  !
 ! R7    R(2,8)                  1.0872         calculate D2E/DX2 analytically  !
 ! R8    R(3,9)                  1.0857         calculate D2E/DX2 analytically  !
 ! R9    R(3,10)                 1.0865         calculate D2E/DX2 analytically  !
 ! R10   R(3,11)                 1.0865         calculate D2E/DX2 analytically  !
 ! A1    A(2,1,4)              111.0996         calculate D2E/DX2 analytically  !
 ! A2    A(2,1,5)              111.0996         calculate D2E/DX2 analytically  !
 ! A3    A(2,1,6)              111.373          calculate D2E/DX2 analytically  !
 ! A4    A(4,1,5)              107.6115         calculate D2E/DX2 analytically  !
 ! A5    A(4,1,6)              107.7414         calculate D2E/DX2 analytically  !
 ! A6    A(5,1,6)              107.7415         calculate D2E/DX2 analytically  !
 ! A7    A(1,2,3)              112.8265         calculate D2E/DX2 analytically  !
 ! A8    A(1,2,7)              109.3846         calculate D2E/DX2 analytically  !
 ! A9    A(1,2,8)              109.3838         calculate D2E/DX2 analytically  !
 ! A10   A(3,2,7)              109.3847         calculate D2E/DX2 analytically  !
 ! A11   A(3,2,8)              109.3839         calculate D2E/DX2 analytically  !
 ! A12   A(7,2,8)              106.2648         calculate D2E/DX2 analytically  !
 ! A13   A(2,3,9)              111.3729         calculate D2E/DX2 analytically  !
 ! A14   A(2,3,10)             111.0999         calculate D2E/DX2 analytically  !
 ! A15   A(2,3,11)             111.0996         calculate D2E/DX2 analytically  !
 ! A16   A(9,3,10)             107.7414         calculate D2E/DX2 analytically  !
 ! A17   A(9,3,11)             107.7414         calculate D2E/DX2 analytically  !
 ! A18   A(10,3,11)            107.6114         calculate D2E/DX2 analytically  !
 ! D1    D(4,1,2,3)             59.8778         calculate D2E/DX2 analytically  !
 ! D2    D(4,1,2,7)           -178.1269         calculate D2E/DX2 analytically  !
 ! D3    D(4,1,2,8)            -62.1159         calculate D2E/DX2 analytically  !
 ! D4    D(5,1,2,3)            -59.8907         calculate D2E/DX2 analytically  !
 ! D5    D(5,1,2,7)             62.1046         calculate D2E/DX2 analytically  !
 ! D6    D(5,1,2,8)            178.1156         calculate D2E/DX2 analytically  !
 ! D7    D(6,1,2,3)            179.9934         calculate D2E/DX2 analytically  !
 ! D8    D(6,1,2,7)            -58.0113         calculate D2E/DX2 analytically  !
 ! D9    D(6,1,2,8)             57.9997         calculate D2E/DX2 analytically  !
 ! D10   D(1,2,3,9)           -179.9935         calculate D2E/DX2 analytically  !
 ! D11   D(1,2,3,10)            59.8907         calculate D2E/DX2 analytically  !
 ! D12   D(1,2,3,11)           -59.8779         calculate D2E/DX2 analytically  !
 ! D13   D(7,2,3,9)             58.0113         calculate D2E/DX2 analytically  !
 ! D14   D(7,2,3,10)           -62.1045         calculate D2E/DX2 analytically  !
 ! D15   D(7,2,3,11)           178.1269         calculate D2E/DX2 analytically  !
 ! D16   D(8,2,3,9)            -57.9998         calculate D2E/DX2 analytically  !
 ! D17   D(8,2,3,10)          -178.1157         calculate D2E/DX2 analytically  !
 ! D18   D(8,2,3,11)            62.1157         calculate D2E/DX2 analytically  !
 --------------------------------------------------------------------------------
 Trust Radius=3.00D-01 FncErr=1.00D-07 GrdErr=1.00D-07
 Number of steps in this run=      2 maximum allowed number of steps=      2.
 GradGradGradGradGradGradGradGradGradGradGradGradGradGradGradGradGradGrad

                          Input orientation:                          
 ---------------------------------------------------------------------
 Center     Atomic      Atomic             Coordinates (Angstroms)
 Number     Number       Type             X           Y           Z
 ---------------------------------------------------------------------
      1          6           0        3.367064    1.646155    1.326671
      2          6           0        2.004632    1.076293    0.933330
      3          6           0        0.952575    1.245303    2.028909
      4          1           0        3.753885    1.156408    2.216053
      5          1           0        3.299531    2.709378    1.539925
      6          1           0        4.095580    1.513603    0.532664
      7          1           0        1.659510    1.561532    0.023684
      8          1           0        2.110297    0.020977    0.694236
      9          1           0       -0.004723    0.832874    1.725209
     10          1           0        0.800592    2.294507    2.266729
     11          1           0        1.255158    0.741570    2.942791
 ---------------------------------------------------------------------
                    Distance matrix (angstroms):
                    1          2          3          4          5
     1  C    0.000000
     2  C    1.528293   0.000000
     3  C    2.546287   1.528294   0.000000
     4  H    1.086500   2.170642   2.808961   0.000000
     5  H    1.086500   2.170642   2.809061   1.753654   0.000000
     6  H    1.085703   2.173439   3.491306   1.754464   1.754465
     7  H    2.149576   1.087208   2.149579   3.058924   2.511216
     8  H    2.149567   1.087209   2.149570   2.511277   3.058916
     9  H    3.491305   2.173438   1.085703   3.804305   3.804430
    10  H    2.809065   2.170647   1.086501   3.165403   2.635347
    11  H    2.808962   2.170642   1.086501   2.635124   3.165401
                    6          7          8          9         10
     6  H    0.000000
     7  H    2.489136   0.000000
     8  H    2.489053   1.739586   0.000000
     9  H    4.324123   2.489137   2.489055   0.000000
    10  H    3.804436   2.511223   3.058921   1.754464   0.000000
    11  H    3.804306   3.058926   2.511279   1.754463   1.753654
                   11
    11  H    0.000000
 Stoichiometry    C3H8
 Framework group  C1[X(C3H8)]
 Deg. of freedom    27
 Full point group                 C1      NOp   1
 Largest Abelian subgroup         C1      NOp   1
 Largest concise Abelian subgroup C1      NOp   1
                         Standard orientation:                         
 ---------------------------------------------------------------------
 Center     Atomic      Atomic             Coordinates (Angstroms)
 Number     Number       Type             X           Y           Z
 ---------------------------------------------------------------------
      1          6           0       -1.273144   -0.259795   -0.000001
      2          6           0       -0.000001    0.585656   -0.000002
      3          6           0        1.273144   -0.259794   -0.000001
      4          1           0       -1.317561   -0.899938    0.876770
      5          1           0       -1.317671   -0.899776   -0.876884
      6          1           0       -2.162062    0.363563    0.000114
      7          1           0       -0.000002    1.237958   -0.869785
      8          1           0       -0.000002    1.237936    0.869800
      9          1           0        2.162061    0.363566    0.000114
     10          1           0        1.317677   -0.899778   -0.876882
     11          1           0        1.317563   -0.899935    0.876771
 ---------------------------------------------------------------------
 Rotational constants (GHZ):     29.7697099      8.4304660      7.4677957
 Standard basis: 6-31G(d) (6D, 7F)
 There are    61 symmetry adapted cartesian basis functions of A   symmetry.
 There are    61 symmetry adapted basis functions of A   symmetry.
    61 basis functions,   116 primitive gaussians,    61 cartesian basis functions
    13 alpha electrons       13 beta electrons
       nuclear repulsion energy        82.7257971930 Hartrees.
 NAtoms=   11 NActive=   11 NUniq=   11 SFac= 1.00D+00 NAtFMM=   60 NAOKFM=F Big=F
 Integral buffers will be    131072 words long.
 Raffenetti 1 integral format.
 Two-electron integral symmetry is turned on.
 One-electron integrals computed using PRISM.
 NBasis=    61 RedAO= T EigKep=  6.12D-03  NBF=    61
 NBsUse=    61 1.00D-06 EigRej= -1.00D+00 NBFU=    61
 Initial guess from the checkpoint file:  "propane-opt.chk"
 B after Tr=    -0.000000    0.000000    0.000000
         Rot=    1.000000   -0.000000   -0.000000   -0.000000 Ang=   0.00 deg.
 Keep R1 ints in memory in canonical form, NReq=2673479.
 Requested convergence on RMS density matrix=1.00D-08 within 128 cycles.
 Requested convergence on MAX density matrix=1.00D-06.
 Requested convergence on             energy=1.00D-06.
 No special actions if energy rises.
 SCF Done:  E(RHF) =  -118.263651025     A.U. after    1 cycles
            NFock=  1  Conv=0.10D-08     -V/T= 2.0004
 Range of M.O.s used for correlation:     1    61
 NBasis=    61 NAE=    13 NBE=    13 NFC=     0 NFV=     0
 NROrb=     61 NOA=    13 NOB=    13 NVA=    48 NVB=    48
          Differentiating once with respect to electric field.
                with respect to dipole field.
          Electric field/nuclear overlap derivatives assumed to be zero.
 Keep R1 ints in memory in canonical form, NReq=2655898.
          There are     3 degrees of freedom in the 1st order CPHF.  IDoFFX=0 NUNeed=     3.
      3 vectors produced by pass  0 Test12= 2.08D-14 3.33D-08 XBig12= 7.49D+00 1.29D+00.
 AX will form     3 AO Fock derivatives at one time.
      3 vectors produced by pass  1 Test12= 2.08D-14 3.33D-08 XBig12= 2.67D-01 1.55D-01.
      3 vectors produced by pass  2 Test12= 2.08D-14 3.33D-08 XBig12= 1.37D-02 4.62D-02.
      3 vectors produced by pass  3 Test12= 2.08D-14 3.33D-08 XBig12= 6.49D-04 7.94D-03.
      3 vectors produced by pass  4 Test12= 2.08D-14 3.33D-08 XBig12= 1.96D-05 1.65D-03.
      3 vectors produced by pass  5 Test12= 2.08D-14 3.33D-08 XBig12= 6.30D-07 2.26D-04.
      3 vectors produced by pass  6 Test12= 2.08D-14 3.33D-08 XBig12= 6.26D-08 6.74D-05.
      3 vectors produced by pass  7 Test12= 2.08D-14 3.33D-08 XBig12= 2.05D-09 1.28D-05.
      2 vectors produced by pass  8 Test12= 2.08D-14 3.33D-08 XBig12= 3.61D-11 2.15D-06.
      1 vectors produced by pass  9 Test12= 2.08D-14 3.33D-08 XBig12= 2.80D-13 1.70D-07.
 InvSVY:  IOpt=1 It=  1 EMax= 4.44D-16
 Solved reduced A of dimension    27 with     3 vectors.
 End of Minotr F.D. properties file   721 does not exist.
 End of Minotr F.D. properties file   722 does not exist.
 End of Minotr F.D. properties file   788 does not exist.
 Symmetrizing basis deriv contribution to polar:
 IMax=3 JMax=2 DiffMx= 0.00D+00
 G2DrvN: will do    12 centers at a time, making    1 passes.
 PxScal for G2LodP:  IOpCl= 0 ISclPx=1 IMOff=     1 NMtTot=     4 NTT=    1891 ScalPx= 1.94D+00
 Calling FoFCou, ICntrl=  3107 FMM=F I1Cent=   0 AccDes= 0.00D+00.
 End of G2Drv F.D. properties file   721 does not exist.
 End of G2Drv F.D. properties file   722 does not exist.
 End of G2Drv F.D. properties file   788 does not exist.
          IDoAtm=11111111111
          Differentiating once with respect to electric field.
                with respect to dipole field.
          Differentiating once with respect to nuclear coordinates.
 Keep R1 ints in memory in canonical form, NReq=2656151.
          There are    36 degrees of freedom in the 1st order CPHF.  IDoFFX=5 NUNeed=    36.
 Will reuse    3 saved solutions.
     30 vectors produced by pass  0 Test12= 1.73D-15 2.78D-09 XBig12= 3.59D-02 6.71D-02.
 AX will form    30 AO Fock derivatives at one time.
     30 vectors produced by pass  1 Test12= 1.73D-15 2.78D-09 XBig12= 5.63D-04 6.50D-03.
     30 vectors produced by pass  2 Test12= 1.73D-15 2.78D-09 XBig12= 8.95D-06 8.03D-04.
     30 vectors produced by pass  3 Test12= 1.73D-15 2.78D-09 XBig12= 6.01D-08 7.09D-05.
     30 vectors produced by pass  4 Test12= 1.73D-15 2.78D-09 XBig12= 2.03D-10 4.25D-06.
     30 vectors produced by pass  5 Test12= 1.73D-15 2.78D-09 XBig12= 7.62D-13 2.12D-07.
      9 vectors produced by pass  6 Test12= 1.73D-15 2.78D-09 XBig12= 2.27D-15 9.50D-09.
 InvSVY:  IOpt=1 It=  1 EMax= 1.78D-15
[...]
 Linear search not attempted -- first point.
 Iteration  1 RMS(Cart)=  0.00037589 RMS(Int)=  0.00000007
 Iteration  2 RMS(Cart)=  0.00000009 RMS(Int)=  0.00000003
 Variable       Old X    -DE/DX   Delta X   Delta X   Delta X     New X
                                 (Linear)    (Quad)   (Total)
    R1        2.88806  -0.00005   0.00000   0.00000   0.00000   2.88806
    R2        2.05319   0.00003   0.00000   0.00005   0.00005   2.05323
    R3        2.05319   0.00003   0.00000   0.00005   0.00005   2.05323
    R4        2.05168   0.00001   0.00000   0.00003   0.00003   2.05171
    R5        2.88806  -0.00005   0.00000   0.00000   0.00000   2.88806
    R6        2.05453   0.00002   0.00000   0.00002   0.00002   2.05455
    R7        2.05453   0.00002   0.00000   0.00002   0.00002   2.05455
    R8        2.05168   0.00001   0.00000   0.00003   0.00003   2.05171
    R9        2.05319   0.00003   0.00000   0.00005   0.00005   2.05323
   R10        2.05319   0.00003   0.00000   0.00005   0.00005   2.05323
    A1        1.93905  -0.00002   0.00000  -0.00016  -0.00016   1.93889
    A2        1.93905  -0.00002   0.00000  -0.00016  -0.00016   1.93889
    A3        1.94383  -0.00009   0.00000  -0.00048  -0.00048   1.94335
    A4        1.87818   0.00003   0.00000   0.00032   0.00032   1.87849
    A5        1.88044   0.00005   0.00000   0.00027   0.00027   1.88071
    A6        1.88044   0.00005   0.00000   0.00027   0.00027   1.88071
    A7        1.96919  -0.00012   0.00000  -0.00059  -0.00059   1.96861
    A8        1.90912   0.00003   0.00000   0.00003   0.00003   1.90916
    A9        1.90911   0.00003   0.00000   0.00005   0.00005   1.90916
   A10        1.90912   0.00003   0.00000   0.00003   0.00003   1.90916
   A11        1.90911   0.00003   0.00000   0.00005   0.00005   1.90916
   A12        1.85467   0.00000   0.00000   0.00049   0.00049   1.85516
   A13        1.94382  -0.00009   0.00000  -0.00048  -0.00048   1.94335
   A14        1.93906  -0.00002   0.00000  -0.00017  -0.00017   1.93889
   A15        1.93905  -0.00002   0.00000  -0.00016  -0.00016   1.93889
   A16        1.88044   0.00005   0.00000   0.00027   0.00027   1.88071
   A17        1.88044   0.00005   0.00000   0.00027   0.00027   1.88071
   A18        1.87817   0.00003   0.00000   0.00032   0.00032   1.87849
    D1        1.04506   0.00001   0.00000   0.00020   0.00020   1.04527
    D2       -3.10890  -0.00001   0.00000  -0.00013  -0.00013  -3.10903
    D3       -1.08413   0.00003   0.00000   0.00051   0.00051  -1.08362
    D4       -1.04529  -0.00001   0.00000   0.00002   0.00002  -1.04527
    D5        1.08393  -0.00003   0.00000  -0.00031  -0.00031   1.08362
    D6        3.10870   0.00001   0.00000   0.00033   0.00033   3.10903
    D7        3.14148   0.00000   0.00000   0.00011   0.00011  -3.14159
    D8       -1.01249  -0.00002   0.00000  -0.00022  -0.00022  -1.01271
    D9        1.01229   0.00002   0.00000   0.00042   0.00042   1.01271
   D10       -3.14148  -0.00000   0.00000  -0.00011  -0.00011   3.14159
   D11        1.04529   0.00001   0.00000  -0.00002  -0.00002   1.04527
   D12       -1.04507  -0.00001   0.00000  -0.00020  -0.00020  -1.04527
   D13        1.01249   0.00002   0.00000   0.00022   0.00022   1.01271
   D14       -1.08393   0.00003   0.00000   0.00031   0.00031  -1.08362
   D15        3.10890   0.00001   0.00000   0.00013   0.00013   3.10903
   D16       -1.01229  -0.00002   0.00000  -0.00042  -0.00042  -1.01271
   D17       -3.10870  -0.00001   0.00000  -0.00032  -0.00032  -3.10903
   D18        1.08412  -0.00003   0.00000  -0.00051  -0.00051   1.08362
         Item               Value     Threshold  Converged?
 Maximum Force            0.000119     0.000450     YES
 RMS     Force            0.000037     0.000300     YES
 Maximum Displacement     0.001104     0.001800     YES
 RMS     Displacement     0.000376     0.001200     YES
 Predicted change in Energy=-1.704713D-07
 Optimization completed.
    -- Stationary point found.
                           ----------------------------
                           !   Optimized Parameters   !
                           ! (Angstroms and Degrees)  !
 --------------------------                            --------------------------
 ! Name  Definition              Value          Derivative Info.                !
 --------------------------------------------------------------------------------
 ! R1    R(1,2)                  1.5283         -DE/DX =    0.0                 !
 ! R2    R(1,4)                  1.0865         -DE/DX =    0.0                 !
 ! R3    R(1,5)                  1.0865         -DE/DX =    0.0                 !
 ! R4    R(1,6)                  1.0857         -DE/DX =    0.0                 !
 ! R5    R(2,3)                  1.5283         -DE/DX =    0.0                 !
 ! R6    R(2,7)                  1.0872         -DE/DX =    0.0                 !
 ! R7    R(2,8)                  1.0872         -DE/DX =    0.0                 !
 ! R8    R(3,9)                  1.0857         -DE/DX =    0.0                 !
 ! R9    R(3,10)                 1.0865         -DE/DX =    0.0                 !
 ! R10   R(3,11)                 1.0865         -DE/DX =    0.0                 !
 ! A1    A(2,1,4)              111.0996         -DE/DX =    0.0                 !
 ! A2    A(2,1,5)              111.0996         -DE/DX =    0.0                 !
 ! A3    A(2,1,6)              111.373          -DE/DX =   -0.0001              !
 ! A4    A(4,1,5)              107.6115         -DE/DX =    0.0                 !
 ! A5    A(4,1,6)              107.7414         -DE/DX =    0.0001              !
 ! A6    A(5,1,6)              107.7415         -DE/DX =    0.0001              !
 ! A7    A(1,2,3)              112.8265         -DE/DX =   -0.0001              !
 ! A8    A(1,2,7)              109.3846         -DE/DX =    0.0                 !
 ! A9    A(1,2,8)              109.3838         -DE/DX =    0.0                 !
 ! A10   A(3,2,7)              109.3847         -DE/DX =    0.0                 !
 ! A11   A(3,2,8)              109.3839         -DE/DX =    0.0                 !
 ! A12   A(7,2,8)              106.2648         -DE/DX =    0.0                 !
 ! A13   A(2,3,9)              111.3729         -DE/DX =   -0.0001              !
 ! A14   A(2,3,10)             111.0999         -DE/DX =    0.0                 !
 ! A15   A(2,3,11)             111.0996         -DE/DX =    0.0                 !
 ! A16   A(9,3,10)             107.7414         -DE/DX =    0.0001              !
 ! A17   A(9,3,11)             107.7414         -DE/DX =    0.0001              !
 ! A18   A(10,3,11)            107.6114         -DE/DX =    0.0                 !
 ! D1    D(4,1,2,3)             59.8778         -DE/DX =    0.0                 !
 ! D2    D(4,1,2,7)           -178.1269         -DE/DX =    0.0                 !
 ! D3    D(4,1,2,8)            -62.1159         -DE/DX =    0.0                 !
 ! D4    D(5,1,2,3)            -59.8907         -DE/DX =    0.0                 !
 ! D5    D(5,1,2,7)             62.1046         -DE/DX =    0.0                 !
 ! D6    D(5,1,2,8)            178.1156         -DE/DX =    0.0                 !
 ! D7    D(6,1,2,3)           -180.0066         -DE/DX =    0.0                 !
 ! D8    D(6,1,2,7)            -58.0113         -DE/DX =    0.0                 !
 ! D9    D(6,1,2,8)             57.9997         -DE/DX =    0.0                 !
 ! D10   D(1,2,3,9)            180.0065         -DE/DX =    0.0                 !
 ! D11   D(1,2,3,10)            59.8907         -DE/DX =    0.0                 !
 ! D12   D(1,2,3,11)           -59.8779         -DE/DX =    0.0                 !
 ! D13   D(7,2,3,9)             58.0113         -DE/DX =    0.0                 !
 ! D14   D(7,2,3,10)           -62.1045         -DE/DX =    0.0                 !
 ! D15   D(7,2,3,11)           178.1269         -DE/DX =    0.0                 !
 ! D16   D(8,2,3,9)            -57.9998         -DE/DX =    0.0                 !
 ! D17   D(8,2,3,10)          -178.1157         -DE/DX =    0.0                 !
 ! D18   D(8,2,3,11)            62.1157         -DE/DX =    0.0                 !
 --------------------------------------------------------------------------------
 GradGradGradGradGradGradGradGradGradGradGradGradGradGradGradGradGradGrad

 1\1\GINC-GTX1080DELTA\Freq\RHF\6-31G(d)\C3H8\MVEROT\16-Apr-2022\0\\#N 
 Geom=AllCheck Guess=TCheck SCRF=Check GenChk RHF/6-31G(d) Freq\\Optimi
 sation de geometrie\\0,1\C,3.367064226,1.6461545457,1.3266705126\C,2.0
 04631752,1.0762934632,0.9333296807\C,0.9525750716,1.2453032999,2.02890
 94996\H,3.753884982,1.1564082768,2.216053184\H,3.2995306326,2.70937834
 08,1.5399247011\H,4.0955798505,1.5136025747,0.5326638049\H,1.659509724
 4,1.561531697,0.0236835117\H,2.1102970922,0.0209767911,0.6942356396\H,
 -0.0047232082,0.8328743117,1.7252094857\H,0.8005921813,2.29450651,2.26
 67285804\H,1.2551576956,0.7415701891,2.9427913996\\Version=AM64L-G09Re
 vD.01\State=1-A\HF=-118.263651\RMSD=1.023e-09\RMSF=4.536e-05\ZeroPoint
 =0.1105721\Thermal=0.1149367\Dipole=-0.0047493,-0.0113065,-0.0227819\D
 ipoleDeriv=0.0638526,-0.0409383,-0.0143971,-0.0310432,0.1653266,-0.018
 2306,0.0083123,-0.011573,0.1501421,0.1628894,-0.0086925,0.0062196,-0.0
 086865,0.1951101,-0.0096179,0.0062231,-0.0096374,0.1755346,0.0865412,-
 0.0021615,0.0594282,-0.0120609,0.1742907,-0.0103991,0.0367161,-0.01703
 92,0.1184899,-0.0065912,0.0104556,-0.0583319,0.0352111,-0.0104531,0.09
 54893,-0.1015711,0.0796555,-0.1207081,0.0177821,0.0326372,-0.0018556,-
 0.0174507,-0.1910582,-0.0519389,-0.016793,-0.0531271,0.0355204,-0.1181
 308,-0.0020509,0.1131458,0.0077246,0.0477622,-0.0269239,0.1355855,-0.0
 203588,-0.0806472,-0.0434807,0.0195279,-0.0596285,0.0260887,-0.0051477
 ,0.0998309,-0.0558839,0.0772737,-0.1709318,-0.0186323,0.0132071,0.0222
 112,0.0066456,-0.2073473,-0.0824365,0.018466,-0.0598781,0.0064109,-0.1
 882101,-0.081564,-0.0223465,-0.0913377,0.0200468,-0.0239906,-0.044785,
 -0.0305618,0.0171472,0.0318319,0.0114351,0.0211407,0.0532273,-0.183231
 2,-0.0679992,0.0313433,-0.0382916,0.0136436,0.0121481,0.0481444,-0.065
 586,0.0316817,-0.005299,0.0962165,-0.0176133,0.0835377,-0.1446016\Pola
 r=34.0075844,0.5256609,31.2129629,-0.783898,0.032268,31.6460515\PolarD
 eriv=1.2431235,2.0787006,1.2135136,2.3168161,0.8409799,-3.1442889,2.83
 51535,-0.1488131,-5.4757723,0.8792055,-2.3321038,2.4808072,3.1002108,0
 .9713242,-1.8248225,-4.4752836,1.8871096,-1.1807781,-1.9105727,-2.0483
 724,-1.0407406,-1.9568229,-1.228625,3.4057281,-2.6559964,-0.751956,6.4
 349256,-1.2453691,3.3729499,-2.6971943,-3.1652197,-1.2068088,2.039548,
 3.6467457,-2.0432284,3.3056504,3.0256004,2.3043516,0.7549396,2.4443207
 ,1.3213756,-3.1343429,2.6165126,1.811057,-4.8994003,1.2123557,-2.78454
 75,2.3445089,3.8818443,1.2836738,-1.6017994,-2.3122817,2.0654866,-2.57
 33942,2.3297419,-1.5434059,0.0146858,2.1685793,-0.4386744,1.3108167,-1
 .2501971,1.1061893,-1.4348886,-0.5990823,2.3376691,-1.3506753,1.037535
 4,-0.5149073,0.8399295,2.691391,-1.759056,5.3554196,-0.403422,1.961060
 4,-0.0262365,0.1312596,-0.1057629,0.297257,0.420697,0.8332735,8.309312
 6,0.0071596,1.3287536,0.1806363,-0.3091767,0.0336483,0.8950788,0.73087
 37,1.9687788,1.0106949,5.7840436,-0.5028154,0.0059435,-3.5740361,-0.12
 00092,1.7141702,-0.6426025,1.6814805,0.218161,-0.053183,-1.3066345,-0.
 5605541,-2.7583639,-0.1567018,-0.1481575,3.5590598,-0.5298362,-4.39895
 56,-1.5231673,1.2905356,-0.0261618,-1.9708428,0.4529543,-1.5784274,1.0
 237321,-0.6292577,1.1183202,0.5190255,-2.6924864,1.9581112,-0.3740778,
 0.3990733,-0.7910766,-2.0494142,2.0326302,-7.2485299,0.785981,-1.88331
 99,0.41969,-0.3456569,0.328941,-0.350575,-0.375554,0.3180026,-8.564682
 6,0.3539974,-2.4082759,-0.570622,0.4701992,0.2634544,-1.2130068,-0.323
 239,-2.1381945,-1.7461563,-8.8136781,-2.3618724,-0.7897983,-1.0090027,
 -0.252474,0.0859064,-1.9045125,-2.7840543,-1.3262108,-0.2272049,-0.163
 1208,-0.5801997,-1.2745464,-0.3364717,-0.0798165,-1.8136918,-1.1832486
 ,-1.0004686,-1.4009266,2.0632973,-0.6704543,0.2874407,-0.4725303,0.351
 7929,0.6889511,-1.596641,7.3779414,-0.7014556,1.8785456,0.5802686,-0.4
 446801,-0.5684447,0.9041441,-0.2909139,2.0592779,1.5987905,0.8832762,-
 1.3581596,0.144619,1.5079451,-0.3261749,1.0419629,-0.7561837,0.1607192
 ,-1.7577063,-0.1454488,2.7692507,-1.785087,-0.1637251,-0.1678397,0.979
 9791,0.6367539,-2.3597194,6.8777271\HyperPolar=-12.0489363,-12.927481,
 -4.8567326,22.4985957,-15.9621982,-5.3759589,9.1329288,16.0673036,-11.
 5664414,2.8075736\PG=C01 [X(C3H8)]\NImag=0\\0.57159960,-0.03217552,0.6
 2987049,-0.02605940,-0.00807577,0.64176317,-0.19921336,-0.04452788,-0.
 03384331,0.54618706,-0.04352501,-0.11631232,-0.01424114,-0.02546491,0.
 65885810,-0.03153453,-0.01356740,-0.10734584,0.02703320,-0.01633988,0.
 61771761,-0.02769618,0.00350816,0.02737006,-0.15603879,0.01044698,0.06
 343536,0.60493364,-0.01067437,0.00325895,0.01229606,0.01144911,-0.0992
 4877,-0.01199617,0.01026703,0.64304303,-0.00521167,0.00276197,0.010877
 70,0.06574379,-0.01132032,-0.16758338,0.04904698,-0.00634105,0.5952547
 3,-0.09302373,0.04459264,-0.07833935,-0.01120951,0.01789900,-0.0291897
 6,0.00175678,0.00118059,-0.00110709,0.09796543,0.04564447,-0.11928293,
 0.10593356,-0.00569776,0.00818742,-0.01388882,0.00077338,0.00016502,-0
 .00005072,-0.04762550,0.12315473,-0.07982280,0.10520487,-0.24782958,-0
 .00250626,0.00474221,-0.00795588,0.00079789,-0.00025976,0.00062056,0.0
 8976752,-0.11754362,0.26666998,-0.06088429,0.02178215,0.00464463,0.004
 17383,-0.03635244,-0.00625935,0.00223415,-0.00062004,-0.00033484,-0.00
 143515,0.01242317,0.00357300,0.06266115,0.01988513,-0.32875155,-0.0525
 6096,0.00217301,-0.01298825,-0.00231817,0.00092359,0.00022635,-0.00003
 626,0.00163264,-0.01586279,-0.00292886,-0.02151905,0.35712960,0.004185
 59,-0.05239966,-0.07050111,0.00134561,-0.01091763,-0.00216268,0.000373
 43,0.00093739,0.00008121,-0.00192274,0.03191352,0.00850369,-0.00325227
 ,0.05968234,0.06799910,-0.18393460,0.02371112,0.13783484,-0.01979369,0
 .00645938,0.02752586,-0.00570326,-0.00382369,-0.00468466,0.01082542,-0
 .00322620,-0.00983174,-0.00134217,0.00119964,0.00114974,0.19829815,0.0
 2456381,-0.06442549,-0.02698550,-0.00960241,0.00186188,0.01282613,-0.0
 0254454,-0.00105882,-0.00163015,-0.01336082,0.00276592,0.01308286,0.02
 536329,-0.00257000,-0.02871491,-0.02501001,0.06179456,0.13979231,-0.02
 641232,-0.21446814,-0.00936657,0.00203201,0.01004995,-0.00174548,-0.00
 077022,-0.00020144,0.02043333,-0.00506134,-0.02204179,0.00310704,-0.00
 114336,-0.00453821,-0.15320496,0.03058308,0.22899314,-0.01172856,0.017
 31630,-0.03005043,-0.08722425,0.04013718,-0.07331416,0.00923961,-0.013
 90878,0.02458581,-0.00656671,-0.00371831,-0.00177073,0.00172187,-0.000
 28259,0.00062241,0.00107376,0.00079560,0.00087454,0.09638846,-0.005644
 21,0.00799594,-0.01418503,0.04068432,-0.12014148,0.10511930,-0.0018534
 0,0.00286341,-0.00520444,-0.00348105,-0.00014156,-0.00150894,0.0010033
 3,0.00095171,-0.00007111,0.00107285,0.00031308,0.00037244,-0.04304867,
 0.12317137,-0.00270096,0.00452759,-0.00717742,-0.07300192,0.10323819,-
 0.25130921,-0.00898846,0.01357774,-0.02301289,-0.00180104,-0.00113013,
 0.00091443,0.00028269,-0.00049285,-0.00010766,-0.00040721,-0.00018991,
 0.00089538,0.07916293,-0.11550335,0.27247082,0.00379434,-0.03692414,-0
 .00729007,-0.06239339,0.02781231,0.00502322,-0.00312052,0.02778486,0.0
 0554954,0.00166760,0.00106460,0.00019063,-0.00691550,-0.00308268,-0.00
 239793,0.00155181,0.00070646,0.00082035,-0.00135777,0.01200389,0.00292
 322,0.06865033,0.00162418,-0.01279209,-0.00223395,0.02726543,-0.322155
 66,-0.05633414,0.00014173,-0.00210455,-0.00000501,-0.00015545,0.000934
 07,-0.00059268,-0.00319463,0.00078102,-0.00071447,-0.00047565,0.000333
 28,0.00068132,0.00209292,-0.01681968,-0.00228217,-0.02866773,0.3488609
 9,0.00117090,-0.01046779,-0.00191352,0.00471107,-0.05445404,-0.0741228
 1,0.00331343,-0.02926607,-0.00568605,0.00068201,-0.00012654,-0.0000369
 7,-0.00207876,-0.00100824,0.00034083,0.00002321,0.00063530,0.00039850,
 -0.00273414,0.03179448,0.00853310,-0.00800767,0.06277032,0.07451798,-0
 .00224236,0.00186306,0.00605297,-0.02035099,-0.01031433,-0.01062349,-0
 .27771160,-0.09491314,-0.07154264,0.00047426,0.00018081,-0.00001794,0.
 00031788,-0.00011739,-0.00002557,-0.00165808,-0.00083537,-0.00042039,0
 .00117885,-0.00045362,0.00032186,0.00062489,0.00090977,-0.00047838,0.3
 0099354,0.00058394,0.00030928,-0.00059028,0.00574625,0.00164064,0.0020
 0158,-0.09576594,-0.10151159,-0.03127722,-0.00028931,-0.00003421,-0.00
 019888,0.00038565,0.00050202,0.00003701,0.00013562,0.00056106,-0.00011
 407,-0.00040138,-0.00014196,0.00028433,-0.00004738,0.00046368,0.000726
 51,0.10582841,0.10240738,0.00311382,-0.00145033,-0.00503047,0.02626832
 ,0.01279969,0.01082842,-0.07350016,-0.03185002,-0.08360514,0.00025585,
 -0.00027188,0.00027405,-0.00022434,0.00013206,-0.00010610,0.00181005,0
 .00053863,0.00059193,-0.00108833,0.00049561,0.00124532,-0.00114711,-0.
 00009302,0.00119501,0.07822777,0.03591069,0.08568520,0.00138176,0.0014
 5654,-0.00062339,-0.00311710,0.02721458,0.00451128,-0.06475777,0.03515
 731,0.00699151,-0.00010133,-0.00003141,-0.00001801,-0.00040902,-0.0007
 8315,-0.00002886,0.00036019,-0.00034007,-0.00008808,0.00103466,-0.0007
 9037,-0.00071632,-0.00360236,0.00048424,0.00469506,0.00689019,-0.03357
 366,-0.00613433,0.06418808,-0.00030000,0.00039145,0.00023054,-0.000292
 20,-0.00264296,-0.00016504,0.03664139,-0.32364096,-0.05723236,0.000001
 82,-0.00003699,-0.00000945,0.00065943,0.00060673,0.00015842,0.00015343
 ,0.00042533,0.00007796,0.00010888,0.00073783,-0.00080574,0.00020794,0.
 00184677,-0.00068071,0.00116496,-0.01258743,-0.00227005,-0.04005165,0.
 35093258,-0.00145321,-0.00001099,0.00076850,0.00319592,-0.02945038,-0.
 00521666,0.00721491,-0.05597447,-0.07173739,0.00011457,0.00014659,0.00
 005088,0.00042190,0.00065283,0.00043078,-0.00029230,0.00020584,-0.0000
 7173,-0.00127679,0.00010210,0.00079338,0.00492042,-0.00040945,-0.00403
 804,0.00185944,-0.01105822,-0.00275325,-0.01150062,0.06377733,0.072668
 20,0.00194737,-0.00060242,0.00030346,0.00898018,-0.01431274,0.02339237
 ,-0.08313606,0.03810112,-0.06903672,-0.00035306,0.00021274,-0.00036157
 ,-0.00012274,-0.00002916,-0.00004940,0.00032248,0.00026407,-0.00020208
 ,-0.00375993,0.00050694,0.00492520,0.00110056,-0.00002481,-0.00129673,
 -0.00851659,0.01739779,-0.02758154,-0.00186731,0.00170599,-0.00320424,
 0.08540510,0.00001760,-0.00026172,0.00041248,-0.00173297,0.00294139,-0
 .00533738,0.03746163,-0.12199207,0.11033556,-0.00039456,0.00015133,0.0
 0001226,0.00006913,-0.00002485,0.00008909,-0.00019649,-0.00000079,-0.0
 0024549,0.00090886,0.00121135,-0.00122369,-0.00085813,0.00065217,0.000
 07678,-0.00331315,0.00839113,-0.01394139,0.01125764,-0.01603235,0.0320
 1883,-0.04321954,0.12496441,-0.00148004,-0.00011016,0.00085670,-0.0095
 7984,0.01391130,-0.02289952,-0.06731796,0.10964656,-0.25500791,0.00110
 669,0.00007939,0.00083061,0.00012030,0.00002148,0.00006015,0.00007717,
 -0.00035136,0.00039242,0.00498890,-0.00141107,-0.00324526,-0.00058461,
 -0.00078677,0.00081197,-0.00335364,0.00427855,-0.00832498,0.00291177,-
 0.00308088,0.00910533,0.07311126,-0.12219704,0.27742050\\-0.00001815,-
 0.00005034,-0.00009985,0.00002553,0.00006657,0.00012640,-0.00002248,-0
 .00005090,-0.00009845,0.00001538,0.00003334,-0.00002132,0.00003259,-0.
 00002655,0.00000379,0.00004621,0.00003284,0.00004626,0.00000591,-0.000
 04023,-0.00000331,-0.00001254,0.00002282,-0.00003113,-0.00002237,0.000
 02158,0.00006622,-0.00001663,-0.00003443,0.00001843,-0.00003343,0.0000
 2530,-0.00000703\\\@


 Ideas are like rabbits. You get a couple and learn
 how to handle them, and pretty soon you have a dozen.
                                    -- John Steinbeck
 Job cpu time:       0 days  0 hours  0 minutes  3.8 seconds.
 File lengths (MBytes):  RWF=    147 Int=      0 D2E=      0 Chk=      3 Scr=      2
 Normal termination of Gaussian 09 at Sat Apr 16 12:15:16 2022.
