 Entering Gaussian System, Link 0=g09
 Input=/scratch/mverot/dedoubl-s-opt-pm3-freq/dedoubl-s-opt-pm3-freq.com
 Output=/scratch/mverot/dedoubl-s-opt-pm3-freq/dedoubl-s-opt-pm3-freq.log
 Initial command:
 /opt/g09/l1.exe "/scratch/mverot/dedoubl-s-opt-pm3-freq/Gau-1961603.inp" -scrdir="/scratch/mverot/dedoubl-s-opt-pm3-freq/"
 Entering Link 1 = /opt/g09/l1.exe PID=   1961605.
  
 Copyright (c) 1988,1990,1992,1993,1995,1998,2003,2009,2013,
            Gaussian, Inc.  All Rights Reserved.
  
 This is part of the Gaussian(R) 09 program.  It is based on
 the Gaussian(R) 03 system (copyright 2003, Gaussian, Inc.),
 the Gaussian(R) 98 system (copyright 1998, Gaussian, Inc.),
 the Gaussian(R) 94 system (copyright 1995, Gaussian, Inc.),
 the Gaussian 92(TM) system (copyright 1992, Gaussian, Inc.),
 the Gaussian 90(TM) system (copyright 1990, Gaussian, Inc.),
 the Gaussian 88(TM) system (copyright 1988, Gaussian, Inc.),
 the Gaussian 86(TM) system (copyright 1986, Carnegie Mellon
 University), and the Gaussian 82(TM) system (copyright 1983,
 Carnegie Mellon University). Gaussian is a federally registered
 trademark of Gaussian, Inc.
  
 This software contains proprietary and confidential information,
 including trade secrets, belonging to Gaussian, Inc.
  
 This software is provided under written license and may be
 used, copied, transmitted, or stored only in accord with that
 written license.
  
 The following legend is applicable only to US Government
 contracts under FAR:
  
                    RESTRICTED RIGHTS LEGEND
  
 Use, reproduction and disclosure by the US Government is
 subject to restrictions as set forth in subparagraphs (a)
 and (c) of the Commercial Computer Software - Restricted
 Rights clause in FAR 52.227-19.
  
 Gaussian, Inc.
 340 Quinnipiac St., Bldg. 40, Wallingford CT 06492
  
  
 ---------------------------------------------------------------
 Warning -- This program may not be used in any manner that
 competes with the business of Gaussian, Inc. or will provide
 assistance to any competitor of Gaussian, Inc.  The licensee
 of this program is prohibited from giving any competitor of
 Gaussian, Inc. access to this program.  By using this program,
 the user acknowledges that Gaussian, Inc. is engaged in the
 business of creating and licensing software in the field of
 computational chemistry and represents and warrants to the
 licensee that it is not a competitor of Gaussian, Inc. and that
 it will not use this program in any manner prohibited above.
 ---------------------------------------------------------------
  

 Cite this work as:
 Gaussian 09, Revision D.01,
 M. J. Frisch, G. W. Trucks, H. B. Schlegel, G. E. Scuseria, 
 M. A. Robb, J. R. Cheeseman, G. Scalmani, V. Barone, B. Mennucci, 
 G. A. Petersson, H. Nakatsuji, M. Caricato, X. Li, H. P. Hratchian, 
 A. F. Izmaylov, J. Bloino, G. Zheng, J. L. Sonnenberg, M. Hada, 
 M. Ehara, K. Toyota, R. Fukuda, J. Hasegawa, M. Ishida, T. Nakajima, 
 Y. Honda, O. Kitao, H. Nakai, T. Vreven, J. A. Montgomery, Jr., 
 J. E. Peralta, F. Ogliaro, M. Bearpark, J. J. Heyd, E. Brothers, 
 K. N. Kudin, V. N. Staroverov, T. Keith, R. Kobayashi, J. Normand, 
 K. Raghavachari, A. Rendell, J. C. Burant, S. S. Iyengar, J. Tomasi, 
 M. Cossi, N. Rega, J. M. Millam, M. Klene, J. E. Knox, J. B. Cross, 
 V. Bakken, C. Adamo, J. Jaramillo, R. Gomperts, R. E. Stratmann, 
 O. Yazyev, A. J. Austin, R. Cammi, C. Pomelli, J. W. Ochterski, 
 R. L. Martin, K. Morokuma, V. G. Zakrzewski, G. A. Voth, 
 P. Salvador, J. J. Dannenberg, S. Dapprich, A. D. Daniels, 
 O. Farkas, J. B. Foresman, J. V. Ortiz, J. Cioslowski, 
 and D. J. Fox, Gaussian, Inc., Wallingford CT, 2013.
 
 ******************************************
 Gaussian 09:  AM64L-G09RevD.01 24-Apr-2013
                18-Apr-2022 
 ******************************************
 %chk=dedoubl-s-opt-freq
 -----------
 #n PM3 freq
 -----------
 1/10=4,30=1,38=1/1,3;
 2/12=2,17=6,18=5,40=1/2;
 3/5=2,16=1,25=1,41=800000,71=2,140=1/1,2,3;
 4/35=1/1;
 5/5=2,35=1,38=5,98=1/2;
 8/6=4,10=90,11=11/1;
 11/6=1,8=1,9=11,15=111,16=1/1,2,10;
 10/6=1/2;
 6/7=2,8=2,9=2,10=2,18=1,28=1/1;
 7/8=1,10=1,25=1/1,2,3,16;
 1/10=4,30=1/3;
 99//99;
 ----------
 UV-spectra
 ----------
 Symbolic Z-matrix:
 Charge =  0 Multiplicity = 1
 O                    -2.06413  -6.12124  -3.33023 
 O                    -0.43064  -8.79457  -1.44395 
 C                    -0.7956   -6.31511  -3.78744 
 C                    -0.53814  -6.33415  -5.19228 
 C                     0.73249  -6.5292   -5.64821 
 C                     1.80787  -6.71461  -4.73722 
 C                     3.13038  -6.92004  -5.21275 
 C                     4.164    -7.09837  -4.33406 
 C                     3.92181  -7.07889  -2.94184 
 C                     2.65646  -6.88229  -2.45989 
 C                     1.56055  -6.69454  -3.34792 
 C                     0.23107  -6.48632  -2.86936 
 C                    -0.03119  -6.46695  -1.41957 
 C                    -0.37078  -7.62429  -0.73449 
 C                    -0.63165  -7.60526   0.66622 
 C                    -0.54898  -6.43057   1.35806 
 C                    -0.20514  -5.22466   0.69222 
 C                    -0.1198   -4.00105   1.41051 
 C                     0.20755  -2.84053   0.7652 
 C                     0.46411  -2.84907  -0.62551 
 C                     0.38992  -4.01414  -1.33816 
 C                     0.05256  -5.23884  -0.69554 
 H                    -1.37972  -6.1867   -5.88743 
 H                     0.94123  -6.54534  -6.72394 
 H                     3.30613  -6.93323  -6.29424 
 H                     5.18421  -7.25745  -4.69683 
 H                     4.76083  -7.22335  -2.25368 
 H                     2.46479  -6.86669  -1.38011 
 H                    -0.89976  -8.5351    1.18181 
 H                    -0.32059  -4.00626   2.48766 
 H                     0.27465  -1.89616   1.3145 
 H                     0.72322  -1.9096   -1.12451 
 H                     0.58647  -4.02779  -2.41782 
 H                    -2.6516   -5.90126  -4.0941 
 H                    -0.78617  -9.46053  -0.86886 
 Cl                   -3.95232  -5.8267   -5.31206 
 O                    -3.67895  -7.96417  -2.0926 
 N                    -6.66826  -7.65903  -4.00946 
 N                    -3.00062  -12.59172  -3.77498 
 C                    -8.1556   -7.93527  -3.75058 
 C                    -8.53256  -7.5403   -2.32162 
 C                    -7.31404  -6.93901  -1.62008 
 C                    -6.20407  -7.98157  -1.56626 
 C                    -5.87333  -8.49562  -2.97322 
 C                    -6.83739  -5.71298  -2.42109 
 C                    -6.42061  -6.17375  -3.82241 
 C                    -5.78949  -4.95535  -1.67208 
 C                    -4.73242  -4.38015  -2.23053 
 C                    -6.30378  -8.11977  -5.42538 
 C                    -6.96394  -7.33462  -6.51137 
 C                    -8.17895  -7.75532  -7.05661 
 C                    -8.74393  -7.04465  -8.10771 
 C                    -8.09622  -5.92296  -8.61904 
 C                    -6.88123  -5.51381  -8.08076 
 C                    -6.30558  -6.2156   -7.02708 
 C                    -4.32303  -8.51107  -3.21791 
 C                    -3.86588  -9.94054  -3.43226 
 C                    -3.29359  -10.34074  -4.68246 
 C                    -3.12202  -9.46025  -5.78361 
 C                    -2.55116  -9.90561  -6.94611 
 C                    -2.12957  -11.24808  -7.07573 
 C                    -2.28231  -12.12847  -6.03756 
 C                    -2.86726  -11.68185  -4.82037 
 C                    -3.52619  -12.19569  -2.62811 
 C                    -3.97176  -10.8617  -2.42171 
 H                    -8.75198  -7.36904  -4.50046 
 H                    -8.3756   -9.00714  -3.94352 
 H                    -9.37171  -6.818    -2.33096 
 H                    -8.90121  -8.42116  -1.76107 
 H                    -7.58787  -6.63264  -0.58391 
 H                    -6.48347  -8.82649  -0.90908 
 H                    -5.26282  -7.54651  -1.13542 
 H                    -7.69874  -5.00478  -2.52444 
 H                    -5.30551  -5.89839  -4.1298 
 H                    -7.00061  -5.62457  -4.59758 
 H                    -5.97163  -4.86916  -0.59309 
 H                    -4.50802  -4.46483  -3.29844 
 H                    -4.00576  -3.81147  -1.65827 
 H                    -8.67912  -8.65138  -6.67112 
 H                    -9.69569  -7.37206  -8.53865 
 H                    -8.54383  -5.36727  -9.44987 
 H                    -6.36549  -4.63628  -8.48589 
 H                    -5.30508  -5.90195  -6.56261 
 H                    -4.06546  -7.89869  -4.13264 
 H                    -3.44391  -8.40182  -5.68827 
 H                    -2.41133  -9.2178   -7.78754 
 H                    -1.67398  -11.5741  -8.01691 
 H                    -1.95415  -13.17093  -6.12776 
 H                    -3.60006  -12.95198  -1.83785 
 H                    -4.38598  -10.57826  -1.44675 
 H                    -2.97711  -7.39622  -2.42771 
 H                    -6.24223  -9.55054  -3.08136 
 H                    -5.18184  -8.03595  -5.54023 
 H                    -6.55008  -9.19936  -5.52106 
 H                    -0.74702  -6.40354   2.4356 
 

 GradGradGradGradGradGradGradGradGradGradGradGradGradGradGradGradGradGrad
 Berny optimization.
 Initialization pass.
 Trust Radius=3.00D-01 FncErr=1.00D-07 GrdErr=1.00D-07
 Number of steps in this run=      2 maximum allowed number of steps=      2.
 GradGradGradGradGradGradGradGradGradGradGradGradGradGradGradGradGradGrad

 Stoichiometry    C46H43ClN2O3
 Framework group  C1[X(C46H43ClN2O3)]
 Deg. of freedom   279
 Full point group                 C1      NOp   1
 Largest Abelian subgroup         C1      NOp   1
 Largest concise Abelian subgroup C1      NOp   1
                         Standard orientation:                         
 ---------------------------------------------------------------------
 Center     Atomic      Atomic             Coordinates (Angstroms)
 Number     Number       Type             X           Y           Z
 ---------------------------------------------------------------------
      1          8           0       -1.098006   -0.511214   -0.880026
      2          8           0       -2.824858    0.744225    2.088950
      3          6           0       -2.006653    0.441706   -1.229456
      4          6           0       -1.657675    1.444927   -2.184445
      5          6           0       -2.568508    2.398706   -2.532468
      6          6           0       -3.866535    2.405649   -1.953000
      7          6           0       -4.813693    3.400555   -2.314111
      8          6           0       -6.062555    3.405374   -1.755025
      9          6           0       -6.420069    2.416277   -0.811000
     10          6           0       -5.524905    1.447413   -0.447657
     11          6           0       -4.218391    1.415810   -1.010584
     12          6           0       -3.266775    0.414209   -0.648459
     13          6           0       -3.629931   -0.619464    0.336760
     14          6           0       -3.389256   -0.438745    1.690837
     15          6           0       -3.733491   -1.440828    2.643595
     16          6           0       -4.311872   -2.605920    2.227171
     17          6           0       -4.573367   -2.828576    0.849554
     18          6           0       -5.174174   -4.041038    0.414336
     19          6           0       -5.420799   -4.253987   -0.913903
     20          6           0       -5.078790   -3.266860   -1.867093
     21          6           0       -4.501273   -2.091380   -1.472780
     22          6           0       -4.232514   -1.839145   -0.097719
     23          1           0       -0.649571    1.426810   -2.627872
     24          1           0       -2.311337    3.172850   -3.264310
     25          1           0       -4.525274    4.162356   -3.047028
     26          1           0       -6.794760    4.170713   -2.030462
     27          1           0       -7.423591    2.435744   -0.374010
     28          1           0       -5.798865    0.678339    0.284722
     29          1           0       -3.530093   -1.271777    3.707725
     30          1           0       -5.434992   -4.798769    1.161603
     31          1           0       -5.883527   -5.186050   -1.253342
     32          1           0       -5.282772   -3.456428   -2.925959
     33          1           0       -4.232096   -1.321577   -2.207242
     34          1           0       -0.302263   -0.425437   -1.460069
     35          1           0       -2.617494    0.666634    3.011780
     36         17           0        1.343500   -0.263358   -2.127947
     37          8           0        0.183955   -0.772390    1.533297
     38          7           0        3.579788   -1.040621    0.484590
     39          7           0        1.139090    3.590146    3.715210
     40          6           0        4.853531   -1.655554    1.080363
     41          6           0        4.530540   -2.969961    1.793117
     42          6           0        3.042277   -3.283920    1.634956
     43          6           0        2.225818   -2.165420    2.270746
     44          6           0        2.603498   -0.806792    1.666862
     45          6           0        2.713774   -3.378411    0.133251
     46          6           0        3.002307   -2.021476   -0.518818
     47          6           0        1.328938   -3.896697   -0.082838
     48          6           0        0.505615   -3.471905   -1.032476
     49          6           0        3.920975    0.303196   -0.169379
     50          6           0        4.807019    0.191465   -1.366916
     51          6           0        6.194132    0.291052   -1.238320
     52          6           0        6.994952    0.246502   -2.372232
     53          6           0        6.414806    0.111119   -3.630918
     54          6           0        5.032740    0.023420   -3.755641
     55          6           0        4.219660    0.065092   -2.628125
     56          6           0        1.322689    0.016289    1.285268
     57          6           0        1.271685    1.277680    2.124673
     58          6           0        1.348102    2.566464    1.505090
     59          6           0        1.479934    2.755860    0.103672
     60          6           0        1.530235    4.018476   -0.424452
     61          6           0        1.459881    5.154840    0.412506
     62          6           0        1.337008    5.012884    1.769323
     63          6           0        1.276655    3.709150    2.334847
     64          6           0        1.064051    2.388786    4.262446
     65          6           0        1.125970    1.199585    3.486150
     66          1           0        5.586270   -1.808205    0.256706
     67          1           0        5.330855   -0.928919    1.772236
     68          1           0        5.147365   -3.792246    1.381597
     69          1           0        4.796055   -2.903841    2.866043
     70          1           0        2.804741   -4.250258    2.137202
     71          1           0        2.365329   -2.145391    3.368001
     72          1           0        1.127217   -2.319074    2.096586
     73          1           0        3.391572   -4.141958   -0.326890
     74          1           0        2.080882   -1.533895   -1.090652
     75          1           0        3.733988   -2.140172   -1.349151
     76          1           0        1.033501   -4.707271    0.595771
     77          1           0        0.758510   -2.651289   -1.711149
     78          1           0       -0.484502   -3.892723   -1.179095
     79          1           0        6.651588    0.420962   -0.250629
     80          1           0        8.082696    0.325525   -2.275613
     81          1           0        7.049872    0.079416   -4.522610
     82          1           0        4.572910   -0.075458   -4.745061
     83          1           0        3.077281   -0.005249   -2.699689
     84          1           0        1.351940    0.300221    0.191372
     85          1           0        1.528837    1.868694   -0.562308
     86          1           0        1.620354    4.157142   -1.507636
     87          1           0        1.499978    6.151728   -0.039457
     88          1           0        1.277398    5.889078    2.426047
     89          1           0        0.948904    2.354951    5.352196
     90          1           0        1.043133    0.226883    3.985591
     91          1           0       -0.412347   -0.634075    0.789831
     92          1           0        3.175827   -0.207757    2.424648
     93          1           0        2.950685    0.797843   -0.474065
     94          1           0        4.383408    0.962673    0.596507
     95          1           0       -4.581382   -3.383752    2.950624
 ---------------------------------------------------------------------
 Rotational constants (GHZ):      0.0755737      0.0417969      0.0371973
 Standard basis: VSTO-6G (5D, 7F)
 There are   251 symmetry adapted cartesian basis functions of A   symmetry.
 There are   251 symmetry adapted basis functions of A   symmetry.
   251 basis functions,  1506 primitive gaussians,   251 cartesian basis functions
   131 alpha electrons      131 beta electrons
       nuclear repulsion energy      3660.1837052474 Hartrees.
 Integral buffers will be    131072 words long.
 Regular integral format.
 Two-electron integral symmetry is turned off.
 Do NDO integrals.
 One-electron integrals computed using PRISM.
 NBasis=   251 RedAO= F EigKep=  0.00D+00  NBF=   251
 NBsUse=   251 1.00D-04 EigRej=  0.00D+00 NBFU=   251
 Simple Huckel Guess.
 Overlap will be assumed to be unity.
 Keep J ints in memory in canonical form, NReq=1293887.
 Requested convergence on RMS density matrix=1.00D-08 within 128 cycles.
 Requested convergence on MAX density matrix=1.00D-06.
 Requested convergence on             energy=1.00D-06.
 No special actions if energy rises.
 SCF Done:  E(RPM3) =  0.446984627174E-01 A.U. after   16 cycles
            NFock= 15  Conv=0.77D-08     -V/T= 1.0002
 Range of M.O.s used for correlation:     1   251
 NBasis=   251 NAE=   131 NBE=   131 NFC=     0 NFV=     0
 NROrb=    251 NOA=   131 NOB=   131 NVA=   120 NVB=   120
 Symmetrizing basis deriv contribution to polar:
 IMax=3 JMax=2 DiffMx= 0.00D+00
 G2DrvN: will do    96 centers at a time, making    1 passes.
 Calling FoFCou, ICntrl=  3107 FMM=F I1Cent=   0 AccDes= 0.00D+00.
 End of G2Drv F.D. properties file   721 does not exist.
 End of G2Drv F.D. properties file   722 does not exist.
 End of G2Drv F.D. properties file   788 does not exist.
          IDoAtm=11111111111111111111111111111111111111111111111111
          IDoAtm=111111111111111111111111111111111111111111111
          Differentiating once with respect to electric field.
                with respect to dipole field.
          Differentiating once with respect to nuclear coordinates.
          Electric field/nuclear overlap derivatives assumed to be zero.
 Keep J ints in memory in canonical form, NReq=1117187.
          There are   288 degrees of freedom in the 1st order CPHF.  IDoFFX=5 NUNeed=   288.
 LinEq1:  Iter=  0 NonCon=   288 RMS=1.22D-01 Max=4.72D+00 NDo=   288
 AX will form   288 AO Fock derivatives at one time.
 LinEq1:  Iter=  1 NonCon=   288 RMS=2.00D-02 Max=5.91D-01 NDo=   288
 LinEq1:  Iter=  2 NonCon=   288 RMS=4.54D-03 Max=2.34D-01 NDo=   288
 LinEq1:  Iter=  3 NonCon=   288 RMS=1.10D-03 Max=6.61D-02 NDo=   288
 LinEq1:  Iter=  4 NonCon=   288 RMS=3.12D-04 Max=1.42D-02 NDo=   288
 LinEq1:  Iter=  5 NonCon=   288 RMS=7.62D-05 Max=3.56D-03 NDo=   288
 LinEq1:  Iter=  6 NonCon=   288 RMS=1.66D-05 Max=6.15D-04 NDo=   288
 LinEq1:  Iter=  7 NonCon=   269 RMS=4.33D-06 Max=1.86D-04 NDo=   288
 LinEq1:  Iter=  8 NonCon=   144 RMS=1.24D-06 Max=7.12D-05 NDo=   288
 LinEq1:  Iter=  9 NonCon=    19 RMS=2.58D-07 Max=1.10D-05 NDo=   288
 LinEq1:  Iter= 10 NonCon=     3 RMS=5.03D-08 Max=1.91D-06 NDo=   288
 LinEq1:  Iter= 11 NonCon=     3 RMS=1.14D-08 Max=3.88D-07 NDo=   288
 LinEq1:  Iter= 12 NonCon=     0 RMS=2.05D-09 Max=5.68D-08 NDo=   288
 Linear equations converged to 1.000D-08 1.000D-07 after    12 iterations.
 Isotropic polarizability for W=    0.000000      415.52 Bohr**3.
 End of Minotr F.D. properties file   721 does not exist.
 End of Minotr F.D. properties file   722 does not exist.
 End of Minotr F.D. properties file   788 does not exist.

 **********************************************************************

            Population analysis using the SCF density.

 **********************************************************************

 Orbital symmetries:
       Occupied  (A) (A) (A) (A) (A) (A) (A) (A) (A) (A) (A) (A)
                 (A) (A) (A) (A) (A) (A) (A) (A) (A) (A) (A) (A)
                 (A) (A) (A) (A) (A) (A) (A) (A) (A) (A) (A) (A)
                 (A) (A) (A) (A) (A) (A) (A) (A) (A) (A) (A) (A)
                 (A) (A) (A) (A) (A) (A) (A) (A) (A) (A) (A) (A)
                 (A) (A) (A) (A) (A) (A) (A) (A) (A) (A) (A) (A)
                 (A) (A) (A) (A) (A) (A) (A) (A) (A) (A) (A) (A)
                 (A) (A) (A) (A) (A) (A) (A) (A) (A) (A) (A) (A)
                 (A) (A) (A) (A) (A) (A) (A) (A) (A) (A) (A) (A)
                 (A) (A) (A) (A) (A) (A) (A) (A) (A) (A) (A) (A)
                 (A) (A) (A) (A) (A) (A) (A) (A) (A) (A) (A)
       Virtual   (A) (A) (A) (A) (A) (A) (A) (A) (A) (A) (A) (A)
                 (A) (A) (A) (A) (A) (A) (A) (A) (A) (A) (A) (A)
                 (A) (A) (A) (A) (A) (A) (A) (A) (A) (A) (A) (A)
                 (A) (A) (A) (A) (A) (A) (A) (A) (A) (A) (A) (A)
                 (A) (A) (A) (A) (A) (A) (A) (A) (A) (A) (A) (A)
                 (A) (A) (A) (A) (A) (A) (A) (A) (A) (A) (A) (A)
                 (A) (A) (A) (A) (A) (A) (A) (A) (A) (A) (A) (A)
                 (A) (A) (A) (A) (A) (A) (A) (A) (A) (A) (A) (A)
                 (A) (A) (A) (A) (A) (A) (A) (A) (A) (A) (A) (A)
                 (A) (A) (A) (A) (A) (A) (A) (A) (A) (A) (A) (A)
 The electronic state is 1-A.
 Alpha  occ. eigenvalues --   -2.03861  -1.65312  -1.54497  -1.51426  -1.47607
 Alpha  occ. eigenvalues --   -1.46538  -1.40841  -1.39001  -1.36934  -1.31081
 Alpha  occ. eigenvalues --   -1.30287  -1.25625  -1.25049  -1.23784  -1.19122
 Alpha  occ. eigenvalues --   -1.18892  -1.13546  -1.10614  -1.10109  -1.08089
 Alpha  occ. eigenvalues --   -1.06433  -1.05620  -1.02459  -1.02218  -1.00815
 Alpha  occ. eigenvalues --   -0.99031  -0.95924  -0.94180  -0.92736  -0.88812
 Alpha  occ. eigenvalues --   -0.84380  -0.83450  -0.82459  -0.81564  -0.80333
 Alpha  occ. eigenvalues --   -0.80140  -0.79852  -0.78695  -0.78269  -0.77651
 Alpha  occ. eigenvalues --   -0.77030  -0.74762  -0.72712  -0.72292  -0.71064
 Alpha  occ. eigenvalues --   -0.69611  -0.68216  -0.67730  -0.67112  -0.66939
 Alpha  occ. eigenvalues --   -0.66801  -0.65268  -0.64682  -0.64517  -0.64149
 Alpha  occ. eigenvalues --   -0.63910  -0.63539  -0.62566  -0.62182  -0.60774
 Alpha  occ. eigenvalues --   -0.59539  -0.59327  -0.59264  -0.58834  -0.58812
 Alpha  occ. eigenvalues --   -0.58424  -0.57833  -0.57739  -0.57231  -0.56701
 Alpha  occ. eigenvalues --   -0.56332  -0.55360  -0.55339  -0.55167  -0.55020
 Alpha  occ. eigenvalues --   -0.54610  -0.54369  -0.54192  -0.53921  -0.53614
 Alpha  occ. eigenvalues --   -0.53506  -0.53139  -0.52808  -0.52675  -0.52437
 Alpha  occ. eigenvalues --   -0.52218  -0.51949  -0.51393  -0.51001  -0.50812
 Alpha  occ. eigenvalues --   -0.50547  -0.49673  -0.49432  -0.48370  -0.48210
 Alpha  occ. eigenvalues --   -0.47777  -0.47534  -0.47373  -0.47140  -0.47009
 Alpha  occ. eigenvalues --   -0.46834  -0.46601  -0.46165  -0.45773  -0.45545
 Alpha  occ. eigenvalues --   -0.45522  -0.45409  -0.44621  -0.44614  -0.44043
 Alpha  occ. eigenvalues --   -0.43841  -0.42359  -0.42128  -0.41163  -0.40973
 Alpha  occ. eigenvalues --   -0.40021  -0.37887  -0.37558  -0.37268  -0.37153
 Alpha  occ. eigenvalues --   -0.37080  -0.36788  -0.36444  -0.35875  -0.35707
 Alpha  occ. eigenvalues --   -0.35064  -0.34165  -0.32925  -0.31881  -0.30195
 Alpha  occ. eigenvalues --   -0.29313
 Alpha virt. eigenvalues --   -0.03063  -0.02051  -0.01116  -0.00397   0.00204
 Alpha virt. eigenvalues --    0.00462   0.00474   0.01472   0.02451   0.02525
 Alpha virt. eigenvalues --    0.04006   0.04148   0.04523   0.05084   0.05530
 Alpha virt. eigenvalues --    0.05841   0.06132   0.07231   0.07521   0.08039
 Alpha virt. eigenvalues --    0.08333   0.08468   0.08599   0.08953   0.09103
 Alpha virt. eigenvalues --    0.09244   0.09363   0.09464   0.09690   0.09760
 Alpha virt. eigenvalues --    0.10224   0.10273   0.10336   0.10721   0.10806
 Alpha virt. eigenvalues --    0.10962   0.10986   0.11195   0.11337   0.11573
 Alpha virt. eigenvalues --    0.11665   0.11749   0.11886   0.11980   0.12094
 Alpha virt. eigenvalues --    0.12422   0.12494   0.12533   0.12677   0.12690
 Alpha virt. eigenvalues --    0.12815   0.13056   0.13306   0.13478   0.13579
 Alpha virt. eigenvalues --    0.13592   0.13616   0.13661   0.13821   0.13845
 Alpha virt. eigenvalues --    0.13997   0.14061   0.14109   0.14271   0.14295
 Alpha virt. eigenvalues --    0.14397   0.14694   0.14759   0.14852   0.14963
 Alpha virt. eigenvalues --    0.15279   0.15407   0.15480   0.15600   0.15630
 Alpha virt. eigenvalues --    0.16049   0.16080   0.16113   0.16347   0.16604
 Alpha virt. eigenvalues --    0.16662   0.16825   0.16928   0.17074   0.17229
 Alpha virt. eigenvalues --    0.17385   0.17649   0.18019   0.18219   0.18639
 Alpha virt. eigenvalues --    0.18671   0.18989   0.19106   0.19182   0.19373
 Alpha virt. eigenvalues --    0.19474   0.19619   0.20018   0.20312   0.20559
 Alpha virt. eigenvalues --    0.20641   0.21122   0.21175   0.21429   0.21487
 Alpha virt. eigenvalues --    0.21529   0.21635   0.21980   0.22042   0.22128
 Alpha virt. eigenvalues --    0.22195   0.22613   0.23071   0.23614   0.24412
 Alpha virt. eigenvalues --    0.24721   0.24828   0.24896   0.25773   0.26153
          Condensed to atoms (all electrons):
 Mulliken charges:
               1
     1  O   -0.342112
     2  O   -0.214424
     3  C    0.150209
     4  C   -0.181507
     5  C   -0.056598
     6  C   -0.078107
     7  C   -0.078130
     8  C   -0.122242
     9  C   -0.097677
    10  C   -0.101035
    11  C    0.023026
    12  C   -0.093502
    13  C   -0.033350
    14  C    0.093323
    15  C   -0.174473
    16  C   -0.057699
    17  C   -0.072689
    18  C   -0.086306
    19  C   -0.112799
    20  C   -0.099445
    21  C   -0.088978
    22  C    0.014367
    23  H    0.141648
    24  H    0.100533
    25  H    0.099627
    26  H    0.099760
    27  H    0.098395
    28  H    0.113257
    29  H    0.105949
    30  H    0.100251
    31  H    0.100581
    32  H    0.101760
    33  H    0.121518
    34  H    0.289672
    35  H    0.191322
    36  Cl  -0.762411
    37  O   -0.330778
    38  N    0.629577
    39  N   -0.047676
    40  C   -0.216630
    41  C   -0.105548
    42  C   -0.084835
    43  C   -0.146706
    44  C   -0.182777
    45  C   -0.010415
    46  C   -0.381906
    47  C   -0.176447
    48  C   -0.139405
    49  C   -0.185017
    50  C   -0.147318
    51  C   -0.100029
    52  C   -0.113591
    53  C   -0.081483
    54  C   -0.089375
    55  C   -0.145315
    56  C    0.089582
    57  C   -0.077410
    58  C   -0.056116
    59  C   -0.125080
    60  C   -0.076198
    61  C   -0.096471
    62  C   -0.069885
    63  C   -0.033412
    64  C   -0.065250
    65  C   -0.134519
    66  H    0.108850
    67  H    0.088473
    68  H    0.074770
    69  H    0.070091
    70  H    0.094416
    71  H    0.070752
    72  H    0.142515
    73  H    0.074090
    74  H    0.257769
    75  H    0.113791
    76  H    0.101053
    77  H    0.122087
    78  H    0.092304
    79  H    0.097717
    80  H    0.105727
    81  H    0.104612
    82  H    0.113045
    83  H    0.235576
    84  H    0.118465
    85  H    0.143866
    86  H    0.111339
    87  H    0.106966
    88  H    0.120750
    89  H    0.116946
    90  H    0.120631
    91  H    0.254802
    92  H    0.096840
    93  H    0.158535
    94  H    0.090526
    95  H    0.101410
 Sum of Mulliken charges =  -0.00000
 Mulliken charges with hydrogens summed into heavy atoms:
               1
     1  O   -0.052440
     2  O   -0.023101
     3  C    0.150209
     4  C   -0.039858
     5  C    0.043935
     6  C   -0.078107
     7  C    0.021497
     8  C   -0.022482
     9  C    0.000718
    10  C    0.012222
    11  C    0.023026
    12  C   -0.093502
    13  C   -0.033350
    14  C    0.093323
    15  C   -0.068523
    16  C    0.043712
    17  C   -0.072689
    18  C    0.013945
    19  C   -0.012218
    20  C    0.002315
    21  C    0.032540
    22  C    0.014367
    36  Cl  -0.762411
    37  O   -0.075976
    38  N    0.629577
    39  N   -0.047676
    40  C   -0.019307
    41  C    0.039313
    42  C    0.009581
    43  C    0.066561
    44  C   -0.085937
    45  C    0.063675
    46  C   -0.010345
    47  C   -0.075394
    48  C    0.074985
    49  C    0.064044
    50  C   -0.147318
    51  C   -0.002312
    52  C   -0.007864
    53  C    0.023129
    54  C    0.023670
    55  C    0.090260
    56  C    0.208047
    57  C   -0.077410
    58  C   -0.056116
    59  C    0.018787
    60  C    0.035141
    61  C    0.010495
    62  C    0.050865
    63  C   -0.033412
    64  C    0.051696
    65  C   -0.013888
 APT charges:
               1
     1  O   -0.983670
     2  O   -0.507184
     3  C    0.631540
     4  C   -0.229468
     5  C    0.057328
     6  C   -0.223950
     7  C   -0.002907
     8  C   -0.183485
     9  C   -0.031069
    10  C   -0.124026
    11  C    0.130608
    12  C   -0.277666
    13  C   -0.112139
    14  C    0.403378
    15  C   -0.155687
    16  C    0.009952
    17  C   -0.177239
    18  C   -0.056566
    19  C   -0.141263
    20  C   -0.039830
    21  C   -0.130333
    22  C    0.106663
    23  H    0.170821
    24  H    0.090795
    25  H    0.089831
    26  H    0.101756
    27  H    0.090571
    28  H    0.098656
    29  H    0.102782
    30  H    0.093522
    31  H    0.103389
    32  H    0.095139
    33  H    0.111319
    34  H    0.689384
    35  H    0.203248
    36  Cl  -1.315682
    37  O   -0.532738
    38  N    0.216301
    39  N   -0.303027
    40  C   -0.122748
    41  C   -0.038290
    42  C   -0.006872
    43  C   -0.138411
    44  C   -0.083310
    45  C    0.093782
    46  C   -0.408906
    47  C   -0.137041
    48  C   -0.144677
    49  C    0.016918
    50  C   -0.177622
    51  C   -0.052155
    52  C   -0.182054
    53  C   -0.012957
    54  C   -0.122507
    55  C   -0.262174
    56  C    0.415817
    57  C   -0.042399
    58  C   -0.106070
    59  C   -0.184922
    60  C   -0.059382
    61  C   -0.069158
    62  C   -0.101493
    63  C    0.073070
    64  C    0.118525
    65  C   -0.192118
    66  H    0.089111
    67  H    0.057665
    68  H    0.041787
    69  H    0.035102
    70  H    0.051295
    71  H    0.035307
    72  H    0.166744
    73  H    0.007117
    74  H    0.488838
    75  H    0.094659
    76  H    0.074940
    77  H    0.138451
    78  H    0.085445
    79  H    0.082041
    80  H    0.103215
    81  H    0.104436
    82  H    0.105307
    83  H    0.492520
    84  H    0.113158
    85  H    0.170128
    86  H    0.106885
    87  H    0.108773
    88  H    0.122235
    89  H    0.100701
    90  H    0.120863
    91  H    0.367634
    92  H    0.050317
    93  H    0.192729
    94  H    0.054236
    95  H    0.096517
 Sum of APT charges =   0.00006
 APT charges with hydrogens summed into heavy atoms:
               1
     1  O   -0.294286
     2  O   -0.303936
     3  C    0.631540
     4  C   -0.058648
     5  C    0.148123
     6  C   -0.223950
     7  C    0.086924
     8  C   -0.081728
     9  C    0.059503
    10  C   -0.025370
    11  C    0.130608
    12  C   -0.277666
    13  C   -0.112139
    14  C    0.403378
    15  C   -0.052905
    16  C    0.106469
    17  C   -0.177239
    18  C    0.036955
    19  C   -0.037873
    20  C    0.055309
    21  C   -0.019014
    22  C    0.106663
    36  Cl  -1.315682
    37  O   -0.165103
    38  N    0.216301
    39  N   -0.303027
    40  C    0.024028
    41  C    0.038599
    42  C    0.044423
    43  C    0.063640
    44  C   -0.032993
    45  C    0.100899
    46  C    0.174591
    47  C   -0.062100
    48  C    0.079219
    49  C    0.263883
    50  C   -0.177622
    51  C    0.029886
    52  C   -0.078839
    53  C    0.091479
    54  C   -0.017200
    55  C    0.230346
    56  C    0.528975
    57  C   -0.042399
    58  C   -0.106070
    59  C   -0.014793
    60  C    0.047502
    61  C    0.039615
    62  C    0.020743
    63  C    0.073070
    64  C    0.219226
    65  C   -0.071255
 Charge=             -0.0000 electrons
 Dipole moment (field-independent basis, Debye):
    X=              9.0660    Y=             -3.3543    Z=              4.7379  Tot=             10.7653
 N-N= 3.660183705247D+03 E-N=-6.918587696892D+03  KE=-2.174774967506D+02
  Exact polarizability: 394.377   9.338 419.670  -9.985 -45.518 432.515
 Approx polarizability: 291.480  12.178 339.887  -7.640 -43.963 397.927
 Calling FoFJK, ICntrl=    100127 FMM=F ISym2X=0 I1Cent= 0 IOpClX= 0 NMat=1 NMatS=1 NMatT=0.
 Full mass-weighted force constant matrix:
 Low frequencies ---   -0.4321   -0.1704   -0.1193    0.0386    0.2383    0.3961
 Low frequencies ---    5.0487    9.4451   16.5242
 Diagonal vibrational polarizability:
      219.2759173     243.0286675      60.6944941
 Harmonic frequencies (cm**-1), IR intensities (KM/Mole), Raman scattering
 activities (A**4/AMU), depolarization ratios for plane and unpolarized
 incident light, reduced masses (AMU), force constants (mDyne/A),
 and normal coordinates:
                      1                      2                      3
                      A                      A                      A
 Frequencies --      5.0486                 9.4450                16.5242
 Red. masses --      6.0774                 6.3443                 6.2515
 Frc consts  --      0.0001                 0.0003                 0.0010
 IR Inten    --      0.0696                 0.3625                 0.2472
  Atom  AN      X      Y      Z        X      Y      Z        X      Y      Z
     1   8     0.00   0.03  -0.03     0.01  -0.06  -0.03    -0.01   0.00  -0.02
     2   8     0.01   0.13  -0.05     0.11   0.00  -0.02    -0.11   0.09   0.04
     3   6    -0.01   0.01  -0.05     0.03  -0.04  -0.02     0.01   0.03   0.00
     4   6    -0.03  -0.02  -0.09     0.04  -0.06  -0.04     0.01   0.03   0.01
     5   6    -0.05  -0.04  -0.11     0.06  -0.04  -0.03     0.02   0.05   0.04
     6   6    -0.04  -0.04  -0.10     0.07   0.01  -0.01     0.03   0.07   0.06
     7   6    -0.06  -0.06  -0.13     0.10   0.03  -0.01     0.05   0.09   0.08
     8   6    -0.06  -0.06  -0.12     0.11   0.07   0.01     0.05   0.10   0.10
     9   6    -0.03  -0.03  -0.08     0.09   0.09   0.03     0.05   0.09   0.09
    10   6    -0.02  -0.01  -0.05     0.07   0.07   0.02     0.04   0.07   0.06
    11   6    -0.02  -0.01  -0.06     0.06   0.02   0.00     0.03   0.06   0.05
    12   6    -0.01   0.02  -0.04     0.04   0.00  -0.01     0.02   0.04   0.02
    13   6     0.02   0.05   0.01     0.02   0.02   0.01     0.02   0.04   0.02
    14   6     0.02   0.11  -0.00     0.06   0.02   0.00    -0.05   0.06   0.03
    15   6     0.04   0.14   0.04     0.04   0.04   0.02    -0.04   0.06   0.03
    16   6     0.06   0.12   0.09    -0.01   0.06   0.04     0.03   0.03   0.02
    17   6     0.06   0.06   0.10    -0.05   0.06   0.05     0.10  -0.00   0.01
    18   6     0.07   0.03   0.15    -0.11   0.08   0.07     0.18  -0.04  -0.01
    19   6     0.07  -0.03   0.16    -0.15   0.08   0.08     0.25  -0.07  -0.01
    20   6     0.05  -0.06   0.12    -0.13   0.06   0.06     0.24  -0.06  -0.01
    21   6     0.03  -0.04   0.07    -0.07   0.04   0.04     0.17  -0.02   0.00
    22   6     0.04   0.02   0.06    -0.04   0.04   0.03     0.10   0.00   0.01
    23   1    -0.04  -0.02  -0.10     0.04  -0.09  -0.05     0.01   0.02  -0.00
    24   1    -0.07  -0.06  -0.14     0.07  -0.05  -0.04     0.03   0.06   0.05
    25   1    -0.08  -0.09  -0.16     0.11   0.02  -0.02     0.05   0.10   0.09
    26   1    -0.07  -0.08  -0.14     0.12   0.09   0.02     0.06   0.12   0.12
    27   1    -0.03  -0.03  -0.07     0.10   0.12   0.04     0.05   0.10   0.10
    28   1    -0.00   0.02  -0.02     0.06   0.08   0.03     0.03   0.06   0.05
    29   1     0.05   0.19   0.03     0.07   0.04   0.01    -0.10   0.08   0.03
    30   1     0.09   0.06   0.19    -0.12   0.10   0.08     0.19  -0.04  -0.01
    31   1     0.08  -0.05   0.20    -0.19   0.10   0.09     0.32  -0.10  -0.02
    32   1     0.05  -0.11   0.13    -0.16   0.06   0.07     0.30  -0.08  -0.02
    33   1     0.02  -0.06   0.04    -0.06   0.02   0.03     0.16  -0.02   0.00
    34   1     0.01   0.04  -0.02     0.01  -0.07  -0.03    -0.01  -0.00  -0.03
    35   1     0.00   0.18  -0.05     0.14  -0.00  -0.03    -0.19   0.13   0.06
    36  17     0.01   0.05  -0.01     0.02  -0.06  -0.02    -0.01  -0.03  -0.03
    37   8    -0.02  -0.02  -0.03     0.01  -0.08  -0.03    -0.03  -0.03  -0.02
    38   7    -0.01  -0.02  -0.02     0.02   0.01  -0.00    -0.03  -0.02  -0.00
    39   7    -0.00  -0.07   0.07    -0.14  -0.06  -0.01    -0.08  -0.01  -0.05
    40   6    -0.02  -0.04  -0.02     0.04   0.04   0.00    -0.03  -0.02   0.00
    41   6    -0.03  -0.06  -0.05     0.07   0.04   0.01    -0.03  -0.02  -0.00
    42   6    -0.04  -0.04  -0.07     0.08  -0.00  -0.00    -0.03  -0.02  -0.01
    43   6    -0.03  -0.05  -0.05     0.04  -0.02  -0.01    -0.03  -0.02  -0.01
    44   6    -0.02  -0.04  -0.02     0.01  -0.01  -0.01    -0.03  -0.02  -0.01
    45   6    -0.03  -0.01  -0.07     0.09  -0.02  -0.00    -0.03  -0.02  -0.01
    46   6    -0.01   0.00  -0.04     0.05  -0.01  -0.00    -0.02  -0.02  -0.01
    47   6    -0.03   0.00  -0.09     0.10  -0.06  -0.01    -0.03  -0.02  -0.01
    48   6    -0.02   0.03  -0.09     0.09  -0.07  -0.00    -0.02  -0.02  -0.01
    49   6    -0.00  -0.01   0.02    -0.01   0.02  -0.01    -0.03  -0.02  -0.00
    50   6     0.01   0.01   0.02    -0.00   0.04  -0.00    -0.02  -0.02   0.00
    51   6     0.01  -0.00   0.03    -0.00   0.08   0.01    -0.02  -0.01   0.02
    52   6     0.01   0.02   0.04     0.00   0.10   0.01    -0.01  -0.02   0.02
    53   6     0.02   0.05   0.03     0.01   0.08   0.01     0.01  -0.02   0.02
    54   6     0.02   0.06   0.02     0.02   0.04   0.00     0.01  -0.03   0.01
    55   6     0.01   0.04   0.01     0.01   0.02  -0.00    -0.00  -0.03  -0.00
    56   6    -0.01  -0.02  -0.01    -0.01  -0.05  -0.02    -0.03  -0.03  -0.02
    57   6    -0.01  -0.04   0.02    -0.05  -0.05  -0.02    -0.04  -0.02  -0.03
    58   6     0.00  -0.03   0.05    -0.08  -0.05  -0.01    -0.06  -0.03  -0.04
    59   6     0.01  -0.00   0.05    -0.08  -0.04  -0.01    -0.06  -0.04  -0.04
    60   6     0.02   0.01   0.08    -0.11  -0.04  -0.01    -0.08  -0.04  -0.06
    61   6     0.02  -0.01   0.10    -0.15  -0.04  -0.01    -0.11  -0.04  -0.07
    62   6     0.01  -0.03   0.10    -0.16  -0.05  -0.01    -0.11  -0.02  -0.07
    63   6     0.01  -0.05   0.07    -0.13  -0.05  -0.01    -0.08  -0.02  -0.05
    64   6    -0.01  -0.08   0.04    -0.10  -0.06  -0.02    -0.06  -0.01  -0.04
    65   6    -0.01  -0.07   0.02    -0.06  -0.06  -0.02    -0.04  -0.01  -0.03
    66   1    -0.02  -0.03  -0.02     0.04   0.06   0.01    -0.02  -0.02   0.00
    67   1    -0.02  -0.06  -0.00     0.01   0.06   0.00    -0.03  -0.02   0.00
    68   1    -0.04  -0.05  -0.07     0.09   0.05   0.01    -0.03  -0.02  -0.00
    69   1    -0.04  -0.08  -0.05     0.06   0.05   0.01    -0.03  -0.02  -0.00
    70   1    -0.04  -0.05  -0.09     0.10  -0.01   0.00    -0.03  -0.02  -0.01
    71   1    -0.04  -0.08  -0.05     0.03  -0.02  -0.01    -0.03  -0.02  -0.01
    72   1    -0.03  -0.04  -0.06     0.05  -0.05  -0.02    -0.03  -0.02  -0.01
    73   1    -0.03  -0.00  -0.08     0.11   0.00   0.00    -0.03  -0.02  -0.01
    74   1    -0.01   0.02  -0.04     0.04  -0.04  -0.01    -0.02  -0.02  -0.02
    75   1    -0.01   0.02  -0.04     0.06   0.01  -0.00    -0.01  -0.02  -0.00
    76   1    -0.04  -0.01  -0.11     0.13  -0.07  -0.02    -0.03  -0.02  -0.01
    77   1    -0.01   0.04  -0.07     0.06  -0.06   0.00    -0.02  -0.02  -0.01
    78   1    -0.02   0.04  -0.10     0.10  -0.10  -0.01    -0.02  -0.02  -0.01
    79   1     0.00  -0.03   0.04    -0.01   0.09   0.01    -0.03  -0.01   0.02
    80   1     0.01   0.01   0.04     0.00   0.13   0.01    -0.01  -0.01   0.03
    81   1     0.03   0.07   0.03     0.02   0.09   0.01     0.01  -0.02   0.03
    82   1     0.03   0.09   0.01     0.02   0.02  -0.00     0.02  -0.03   0.00
    83   1     0.01   0.05   0.00     0.01  -0.01  -0.01    -0.00  -0.03  -0.01
    84   1    -0.00  -0.00   0.00    -0.01  -0.05  -0.02    -0.03  -0.04  -0.02
    85   1     0.01   0.01   0.03    -0.04  -0.04  -0.01    -0.04  -0.04  -0.03
    86   1     0.02   0.03   0.08    -0.10  -0.04  -0.01    -0.08  -0.05  -0.06
    87   1     0.03   0.00   0.12    -0.18  -0.04  -0.01    -0.12  -0.04  -0.08
    88   1     0.02  -0.05   0.11    -0.19  -0.05  -0.01    -0.12  -0.02  -0.07
    89   1    -0.01  -0.10   0.04    -0.11  -0.07  -0.02    -0.06   0.00  -0.04
    90   1    -0.02  -0.08  -0.00    -0.04  -0.06  -0.02    -0.03  -0.01  -0.02
    91   1    -0.02  -0.00  -0.02     0.01  -0.08  -0.03    -0.03  -0.03  -0.02
    92   1    -0.02  -0.06   0.00    -0.01   0.00  -0.01    -0.04  -0.02  -0.01
    93   1     0.00   0.00   0.02    -0.02  -0.01  -0.01    -0.03  -0.03  -0.01
    94   1    -0.00  -0.03   0.03    -0.03   0.03  -0.00    -0.04  -0.02  -0.00
    95   1     0.08   0.14   0.12    -0.03   0.08   0.05     0.04   0.03   0.01
                      4                      5                      6
                      A                      A                      A
 Frequencies --     18.8308                27.7639                31.1323
 Red. masses --      5.5388                 5.5886                 5.4339
 Frc consts  --      0.0012                 0.0025                 0.0031
 IR Inten    --      0.2291                 0.5478                 0.3697
  Atom  AN      X      Y      Z        X      Y      Z        X      Y      Z
     1   8     0.02   0.00  -0.07     0.02   0.02   0.07    -0.03  -0.09  -0.04
     2   8     0.15  -0.06  -0.02    -0.02  -0.01   0.03    -0.06   0.00  -0.00
     3   6     0.00  -0.00  -0.04     0.02   0.01   0.05    -0.02  -0.07  -0.02
     4   6    -0.03   0.01  -0.05     0.03   0.02   0.06    -0.01  -0.08  -0.03
     5   6    -0.05   0.00  -0.01     0.03   0.01   0.04     0.01  -0.05  -0.01
     6   6    -0.03  -0.00   0.03     0.01  -0.01   0.01     0.02  -0.02   0.01
     7   6    -0.05  -0.00   0.07     0.01  -0.02  -0.02     0.05   0.02   0.04
     8   6    -0.02  -0.01   0.12    -0.00  -0.03  -0.05     0.06   0.05   0.07
     9   6     0.01  -0.02   0.12    -0.01  -0.04  -0.05     0.05   0.06   0.06
    10   6     0.02  -0.02   0.08    -0.01  -0.02  -0.03     0.02   0.03   0.04
    11   6     0.00  -0.01   0.03     0.00  -0.01   0.00     0.01  -0.01   0.01
    12   6     0.02  -0.01  -0.01     0.01   0.00   0.03    -0.01  -0.04  -0.01
    13   6     0.06  -0.02  -0.00    -0.01   0.00   0.02    -0.03  -0.03   0.00
    14   6     0.13  -0.05  -0.02    -0.03   0.00   0.02    -0.06  -0.00   0.00
    15   6     0.18  -0.07  -0.01    -0.05   0.01   0.02    -0.09   0.02   0.02
    16   6     0.16  -0.06  -0.00    -0.06   0.01   0.01    -0.09   0.01   0.02
    17   6     0.07  -0.03   0.01    -0.04   0.01   0.01    -0.05  -0.01   0.02
    18   6     0.04  -0.01   0.02    -0.05   0.02   0.00    -0.04  -0.02   0.03
    19   6    -0.05   0.01   0.03    -0.03   0.02  -0.00    -0.00  -0.05   0.03
    20   6    -0.10   0.03   0.03    -0.00   0.02   0.00     0.03  -0.07   0.02
    21   6    -0.06   0.02   0.02     0.01   0.01   0.01     0.02  -0.06   0.01
    22   6     0.02  -0.01   0.01    -0.01   0.01   0.01    -0.02  -0.03   0.01
    23   1    -0.05   0.02  -0.08     0.04   0.03   0.08    -0.02  -0.10  -0.05
    24   1    -0.08   0.01  -0.02     0.03   0.01   0.04     0.02  -0.06  -0.02
    25   1    -0.07   0.00   0.07     0.02  -0.02  -0.01     0.06   0.01   0.04
    26   1    -0.04  -0.01   0.15    -0.01  -0.05  -0.07     0.08   0.08   0.09
    27   1     0.03  -0.02   0.16    -0.03  -0.05  -0.08     0.06   0.09   0.09
    28   1     0.05  -0.03   0.08    -0.02  -0.02  -0.03     0.01   0.03   0.04
    29   1     0.25  -0.09  -0.02    -0.07   0.00   0.02    -0.12   0.04   0.02
    30   1     0.07  -0.03   0.02    -0.08   0.03  -0.00    -0.06  -0.00   0.04
    31   1    -0.07   0.02   0.04    -0.04   0.03  -0.01     0.00  -0.05   0.03
    32   1    -0.16   0.05   0.04     0.01   0.02  -0.00     0.06  -0.09   0.01
    33   1    -0.10   0.03   0.02     0.03   0.00   0.01     0.04  -0.08  -0.00
    34   1     0.02   0.03  -0.07     0.02   0.01   0.06    -0.03  -0.08  -0.03
    35   1     0.28  -0.10  -0.06    -0.04  -0.00   0.04    -0.10   0.02   0.01
    36  17     0.03   0.04  -0.04     0.00   0.02   0.01    -0.02  -0.04  -0.02
    37   8    -0.05   0.03  -0.04    -0.01   0.00   0.08    -0.05  -0.01  -0.02
    38   7    -0.04  -0.01   0.02    -0.01  -0.03   0.02    -0.03   0.02   0.01
    39   7    -0.04   0.04  -0.06     0.15   0.04  -0.07     0.06   0.01  -0.03
    40   6    -0.06  -0.03   0.04    -0.01  -0.05   0.01    -0.03   0.04   0.03
    41   6    -0.09  -0.03   0.02    -0.02  -0.07  -0.03    -0.02   0.04   0.04
    42   6    -0.09  -0.01  -0.01    -0.02  -0.06  -0.05    -0.01   0.01  -0.00
    43   6    -0.09  -0.00  -0.02    -0.02  -0.08  -0.02    -0.05  -0.01  -0.03
    44   6    -0.06  -0.00  -0.00    -0.01  -0.06   0.02    -0.05   0.00  -0.01
    45   6    -0.07   0.01  -0.02    -0.01  -0.02  -0.05     0.03  -0.00  -0.01
    46   6    -0.03   0.01  -0.00    -0.00  -0.00  -0.01     0.01   0.01  -0.00
    47   6    -0.07   0.04  -0.05    -0.01  -0.01  -0.08     0.05  -0.05  -0.04
    48   6    -0.03   0.04  -0.09     0.00   0.01  -0.08     0.06  -0.07  -0.06
    49   6    -0.01  -0.01   0.04    -0.01  -0.01   0.06    -0.04   0.02   0.01
    50   6     0.02  -0.01   0.06     0.00   0.03   0.06    -0.03   0.05   0.02
    51   6     0.02  -0.03   0.09    -0.00   0.04   0.08    -0.04   0.09   0.03
    52   6     0.05  -0.03   0.11     0.01   0.10   0.08    -0.03   0.13   0.04
    53   6     0.08  -0.02   0.10     0.02   0.14   0.07    -0.01   0.14   0.03
    54   6     0.08   0.00   0.06     0.02   0.13   0.06    -0.01   0.09   0.02
    55   6     0.05   0.01   0.04     0.01   0.07   0.06    -0.02   0.05   0.01
    56   6    -0.04   0.02  -0.03     0.01  -0.04   0.04    -0.06  -0.01  -0.02
    57   6    -0.04   0.02  -0.04     0.06  -0.01   0.00    -0.05  -0.00  -0.03
    58   6    -0.02   0.02  -0.05     0.01  -0.03  -0.05     0.03  -0.00  -0.03
    59   6     0.01   0.01  -0.04    -0.07  -0.07  -0.06     0.04  -0.01  -0.03
    60   6     0.03   0.00  -0.05    -0.13  -0.09  -0.11     0.16  -0.01  -0.02
    61   6     0.03   0.01  -0.06    -0.10  -0.06  -0.14     0.26  -0.01  -0.01
    62   6     0.01   0.02  -0.06    -0.01  -0.02  -0.13     0.22  -0.00  -0.02
    63   6    -0.02   0.02  -0.06     0.05  -0.00  -0.08     0.10  -0.00  -0.02
    64   6    -0.06   0.04  -0.05     0.20   0.06  -0.02    -0.05   0.01  -0.03
    65   6    -0.06   0.03  -0.04     0.15   0.03   0.01    -0.10   0.01  -0.03
    66   1    -0.04  -0.03   0.06    -0.01  -0.03   0.00    -0.01   0.05   0.04
    67   1    -0.07  -0.04   0.06    -0.01  -0.08   0.03    -0.05   0.06   0.03
    68   1    -0.10  -0.04   0.02    -0.02  -0.06  -0.05     0.01   0.05   0.06
    69   1    -0.11  -0.05   0.03    -0.03  -0.10  -0.03    -0.05   0.06   0.04
    70   1    -0.12  -0.01  -0.03    -0.03  -0.08  -0.08    -0.00   0.01  -0.00
    71   1    -0.11  -0.01  -0.02    -0.03  -0.11  -0.02    -0.09  -0.00  -0.02
    72   1    -0.09   0.02  -0.04    -0.02  -0.06  -0.03    -0.04  -0.02  -0.06
    73   1    -0.07   0.00  -0.01    -0.01  -0.01  -0.07     0.07   0.02   0.01
    74   1    -0.01   0.03  -0.02     0.00   0.01  -0.01     0.00  -0.02  -0.01
    75   1    -0.01   0.00   0.01     0.00   0.02  -0.01     0.02   0.03   0.01
    76   1    -0.11   0.05  -0.05    -0.03  -0.01  -0.09     0.06  -0.06  -0.06
    77   1     0.01   0.03  -0.09     0.02   0.01  -0.07     0.05  -0.06  -0.05
    78   1    -0.03   0.06  -0.11     0.00   0.02  -0.10     0.08  -0.10  -0.09
    79   1    -0.00  -0.04   0.11    -0.01   0.01   0.09    -0.05   0.08   0.04
    80   1     0.05  -0.05   0.14     0.01   0.11   0.10    -0.03   0.16   0.05
    81   1     0.10  -0.02   0.11     0.03   0.19   0.08    -0.01   0.17   0.03
    82   1     0.10   0.02   0.05     0.03   0.16   0.05    -0.00   0.09   0.02
    83   1     0.05   0.02   0.01     0.01   0.06   0.04    -0.02   0.01   0.01
    84   1    -0.02   0.01  -0.03    -0.01  -0.07   0.03    -0.05  -0.01  -0.02
    85   1     0.01   0.00  -0.04    -0.09  -0.09  -0.03    -0.04  -0.01  -0.03
    86   1     0.04  -0.01  -0.05    -0.20  -0.13  -0.12     0.17  -0.01  -0.02
    87   1     0.04   0.00  -0.07    -0.15  -0.08  -0.18     0.35  -0.01  -0.01
    88   1     0.00   0.02  -0.07     0.02   0.00  -0.15     0.29  -0.00  -0.01
    89   1    -0.07   0.05  -0.05     0.28   0.10  -0.01    -0.09   0.01  -0.04
    90   1    -0.07   0.04  -0.03     0.19   0.05   0.05    -0.16   0.01  -0.04
    91   1    -0.04   0.02  -0.06    -0.02   0.01   0.09    -0.05  -0.03  -0.03
    92   1    -0.07  -0.01   0.01    -0.01  -0.10   0.05    -0.07   0.00   0.00
    93   1     0.01   0.01   0.02    -0.01  -0.01   0.06    -0.05   0.00  -0.00
    94   1    -0.02  -0.02   0.05    -0.02  -0.03   0.08    -0.07   0.03   0.02
    95   1     0.19  -0.07  -0.00    -0.08   0.02   0.01    -0.11   0.03   0.03
                      7                      8                      9
                      A                      A                      A
 Frequencies --     43.0426                46.3026                52.0524
 Red. masses --      5.2511                 5.4387                 4.6152
 Frc consts  --      0.0057                 0.0069                 0.0074
 IR Inten    --      0.1555                 0.0999                 0.0711
  Atom  AN      X      Y      Z        X      Y      Z        X      Y      Z
     1   8    -0.02   0.08   0.04     0.02   0.07  -0.01     0.02  -0.07   0.02
     2   8     0.02   0.03   0.01    -0.00   0.02   0.02     0.05  -0.02  -0.03
     3   6    -0.01   0.08   0.03     0.01   0.07   0.04     0.05  -0.03   0.03
     4   6    -0.01   0.08   0.03    -0.00   0.13   0.10     0.11   0.01   0.10
     5   6    -0.02   0.07   0.02    -0.02   0.13   0.13     0.14   0.05   0.12
     6   6    -0.03   0.04  -0.01    -0.04   0.05   0.08     0.11   0.02   0.04
     7   6    -0.05   0.02  -0.05    -0.08   0.01   0.08     0.13   0.04   0.04
     8   6    -0.06  -0.01  -0.09    -0.11  -0.08   0.01     0.09   0.00  -0.05
     9   6    -0.06  -0.01  -0.08    -0.10  -0.14  -0.05     0.03  -0.05  -0.13
    10   6    -0.05   0.02  -0.04    -0.06  -0.10  -0.04     0.01  -0.06  -0.12
    11   6    -0.03   0.05  -0.01    -0.03  -0.01   0.02     0.05  -0.02  -0.03
    12   6    -0.02   0.07   0.01    -0.00   0.02   0.02     0.03  -0.04  -0.01
    13   6    -0.00   0.05   0.00     0.01   0.01   0.02     0.02  -0.03  -0.01
    14   6     0.05   0.02  -0.00    -0.02   0.02   0.02     0.03  -0.02  -0.01
    15   6     0.15  -0.03  -0.02    -0.07   0.05   0.03     0.04  -0.01   0.00
    16   6     0.18  -0.04  -0.03    -0.10   0.06   0.03     0.03  -0.01   0.02
    17   6     0.11  -0.00  -0.03    -0.06   0.04   0.03     0.01  -0.02   0.03
    18   6     0.14  -0.01  -0.04    -0.09   0.06   0.03     0.00  -0.02   0.05
    19   6     0.06   0.03  -0.03    -0.05   0.04   0.02    -0.01  -0.04   0.05
    20   6    -0.05   0.09  -0.01     0.03   0.00   0.02    -0.02  -0.05   0.04
    21   6    -0.07   0.10   0.00     0.05  -0.01   0.01    -0.01  -0.05   0.02
    22   6     0.01   0.05  -0.01    -0.00   0.01   0.02     0.01  -0.03   0.01
    23   1    -0.00   0.09   0.05     0.01   0.19   0.13     0.13   0.02   0.14
    24   1    -0.02   0.07   0.02    -0.02   0.18   0.18     0.19   0.09   0.18
    25   1    -0.05   0.01  -0.05    -0.08   0.06   0.12     0.18   0.08   0.10
    26   1    -0.08  -0.04  -0.12    -0.14  -0.11   0.01     0.11   0.02  -0.06
    27   1    -0.08  -0.03  -0.11    -0.13  -0.22  -0.10    -0.00  -0.08  -0.21
    28   1    -0.04   0.02  -0.04    -0.06  -0.15  -0.08    -0.03  -0.10  -0.18
    29   1     0.19  -0.06  -0.02    -0.10   0.06   0.03     0.05   0.00  -0.00
    30   1     0.23  -0.06  -0.05    -0.15   0.08   0.04     0.01  -0.01   0.06
    31   1     0.09   0.03  -0.04    -0.07   0.05   0.03    -0.02  -0.04   0.07
    32   1    -0.12   0.13  -0.01     0.06  -0.02   0.01    -0.03  -0.06   0.04
    33   1    -0.16   0.14   0.02     0.11  -0.03   0.01    -0.01  -0.05   0.01
    34   1    -0.03   0.04   0.02     0.01   0.09  -0.01     0.02  -0.07   0.01
    35   1     0.09   0.00  -0.01    -0.07   0.04   0.03     0.06  -0.01  -0.03
    36  17    -0.03  -0.08   0.01     0.03   0.02   0.00    -0.01   0.00  -0.04
    37   8    -0.02  -0.06   0.02     0.04  -0.06  -0.04    -0.01  -0.01   0.03
    38   7    -0.02  -0.02   0.01     0.04  -0.01   0.00    -0.03  -0.00  -0.02
    39   7     0.03  -0.02  -0.02    -0.13  -0.02  -0.06    -0.04   0.00   0.00
    40   6    -0.00   0.02   0.01     0.04  -0.01   0.01    -0.03  -0.02  -0.05
    41   6     0.03   0.02   0.04     0.04  -0.02  -0.01    -0.02  -0.03  -0.07
    42   6     0.04  -0.01   0.04     0.04  -0.01  -0.02    -0.04   0.01  -0.00
    43   6     0.01  -0.03   0.03     0.04  -0.02  -0.01     0.02   0.03   0.04
    44   6    -0.02  -0.03   0.02     0.03  -0.01  -0.01    -0.00   0.02  -0.00
    45   6     0.04  -0.04   0.04     0.04  -0.00  -0.02    -0.12   0.02   0.01
    46   6    -0.01  -0.04   0.03     0.05   0.00  -0.01    -0.06   0.00  -0.01
    47   6     0.05  -0.09   0.06     0.05  -0.00  -0.03    -0.16   0.12   0.08
    48   6    -0.02  -0.07   0.13     0.03   0.02  -0.00    -0.11   0.08   0.02
    49   6    -0.05  -0.01   0.00     0.05  -0.00   0.01    -0.03  -0.01  -0.03
    50   6    -0.05   0.01   0.00     0.05  -0.01   0.01    -0.03   0.00  -0.02
    51   6    -0.05   0.06  -0.00     0.05  -0.02   0.01    -0.03   0.03  -0.02
    52   6    -0.05   0.11  -0.00     0.05  -0.03   0.01    -0.03   0.07  -0.02
    53   6    -0.05   0.09  -0.00     0.05  -0.02   0.01    -0.02   0.07  -0.02
    54   6    -0.05   0.03   0.00     0.05  -0.00   0.01    -0.02   0.04  -0.03
    55   6    -0.05  -0.01   0.00     0.05   0.00   0.01    -0.02   0.00  -0.03
    56   6    -0.03  -0.05   0.01     0.02  -0.03  -0.03    -0.02  -0.00   0.01
    57   6    -0.04  -0.04   0.00    -0.02  -0.03  -0.04    -0.03   0.00   0.01
    58   6    -0.01  -0.05  -0.01    -0.00  -0.03  -0.05    -0.01   0.00   0.01
    59   6    -0.02  -0.06  -0.01     0.06  -0.04  -0.04    -0.00  -0.00   0.01
    60   6     0.03  -0.07  -0.02     0.11  -0.04  -0.04     0.02  -0.00   0.01
    61   6     0.09  -0.06  -0.03     0.09  -0.04  -0.05     0.03  -0.00   0.01
    62   6     0.09  -0.04  -0.03     0.01  -0.03  -0.06     0.01   0.00   0.01
    63   6     0.04  -0.04  -0.02    -0.04  -0.03  -0.06    -0.01   0.00   0.01
    64   6    -0.02  -0.02  -0.01    -0.17  -0.01  -0.06    -0.06   0.00   0.00
    65   6    -0.05  -0.02  -0.00    -0.10  -0.02  -0.05    -0.05   0.00   0.00
    66   1    -0.01   0.02   0.01     0.05   0.00   0.01    -0.03   0.00  -0.05
    67   1    -0.01   0.04  -0.01     0.03  -0.01   0.02    -0.02  -0.03  -0.03
    68   1     0.05   0.03   0.05     0.04  -0.01  -0.03    -0.07  -0.03  -0.14
    69   1     0.03   0.05   0.03     0.04  -0.03  -0.01     0.04  -0.07  -0.09
    70   1     0.06  -0.01   0.05     0.04  -0.02  -0.03    -0.04   0.01   0.01
    71   1     0.00  -0.01   0.03     0.05  -0.02  -0.01     0.09   0.04   0.03
    72   1     0.01  -0.05   0.02     0.04  -0.03  -0.00     0.01   0.04   0.11
    73   1     0.06  -0.02   0.05     0.05   0.00  -0.03    -0.19  -0.03  -0.02
    74   1    -0.02  -0.06   0.03     0.05   0.01  -0.01    -0.04   0.01  -0.03
    75   1    -0.01  -0.03   0.02     0.05   0.01  -0.01    -0.05  -0.04   0.00
    76   1     0.12  -0.15   0.02     0.06  -0.03  -0.05    -0.25   0.23   0.18
    77   1    -0.09  -0.02   0.16     0.02   0.05   0.02    -0.03  -0.02  -0.08
    78   1    -0.00  -0.11   0.15     0.03   0.02  -0.01    -0.16   0.16   0.06
    79   1    -0.06   0.08  -0.00     0.06  -0.02   0.01    -0.04   0.03  -0.02
    80   1    -0.06   0.16  -0.01     0.05  -0.04   0.01    -0.03   0.09  -0.01
    81   1    -0.05   0.13  -0.01     0.05  -0.03   0.01    -0.02   0.10  -0.02
    82   1    -0.04   0.01   0.00     0.05   0.00   0.01    -0.01   0.04  -0.03
    83   1    -0.04  -0.06   0.00     0.05   0.01   0.01    -0.02  -0.01  -0.03
    84   1    -0.04  -0.06   0.01     0.04  -0.04  -0.03    -0.03  -0.00   0.01
    85   1    -0.07  -0.07  -0.01     0.06  -0.04  -0.04    -0.02  -0.00   0.01
    86   1     0.02  -0.08  -0.03     0.17  -0.05  -0.04     0.03  -0.00   0.01
    87   1     0.14  -0.06  -0.04     0.14  -0.04  -0.05     0.06  -0.00   0.01
    88   1     0.13  -0.04  -0.03    -0.02  -0.03  -0.07     0.02   0.00   0.01
    89   1    -0.03  -0.00  -0.01    -0.24  -0.01  -0.07    -0.08   0.00   0.00
    90   1    -0.07  -0.02   0.01    -0.12  -0.02  -0.05    -0.06   0.00   0.00
    91   1    -0.04  -0.04   0.04     0.02  -0.03  -0.02    -0.01  -0.04   0.02
    92   1    -0.02  -0.01   0.01     0.01  -0.00  -0.00     0.01   0.04  -0.03
    93   1    -0.06  -0.04  -0.00     0.06  -0.00   0.01    -0.04  -0.01  -0.03
    94   1    -0.07   0.00  -0.00     0.05  -0.01   0.01    -0.04  -0.00  -0.03
    95   1     0.26  -0.08  -0.05    -0.15   0.08   0.04     0.04  -0.00   0.03
                     10                     11                     12
                      A                      A                      A
 Frequencies --     54.3940                59.8946                66.2057
 Red. masses --      4.3380                 4.6614                 5.3673
 Frc consts  --      0.0076                 0.0099                 0.0139
 IR Inten    --      0.2263                 1.6580                 0.2846
  Atom  AN      X      Y      Z        X      Y      Z        X      Y      Z
     1   8    -0.03  -0.03  -0.03    -0.03  -0.03   0.04     0.02  -0.04   0.06
     2   8    -0.01   0.03  -0.07    -0.06   0.01   0.02     0.04  -0.04   0.15
     3   6    -0.01  -0.00  -0.00    -0.02  -0.02   0.02     0.05  -0.00   0.08
     4   6     0.03   0.06   0.07     0.00  -0.04   0.01     0.06  -0.02   0.07
     5   6     0.06   0.10   0.11     0.02  -0.04  -0.01     0.06  -0.04   0.02
     6   6     0.03   0.06   0.06     0.02  -0.01  -0.02     0.05  -0.04  -0.00
     7   6     0.06   0.09   0.08     0.04   0.01  -0.04     0.02  -0.11  -0.11
     8   6     0.02   0.04   0.01     0.04   0.04  -0.04     0.00  -0.12  -0.15
     9   6    -0.03  -0.03  -0.10     0.02   0.06  -0.03     0.03  -0.04  -0.06
    10   6    -0.05  -0.06  -0.11    -0.01   0.05  -0.01     0.05   0.03   0.05
    11   6    -0.01  -0.00  -0.03    -0.00   0.01  -0.01     0.06   0.01   0.06
    12   6    -0.02  -0.02  -0.04    -0.02  -0.00   0.01     0.06   0.03   0.10
    13   6    -0.02  -0.01  -0.03    -0.04   0.00   0.01     0.04   0.02   0.09
    14   6     0.00   0.01  -0.04    -0.03  -0.00   0.01     0.03  -0.02   0.10
    15   6     0.04   0.02  -0.02     0.02  -0.03   0.00    -0.00  -0.05   0.06
    16   6     0.06  -0.00   0.01     0.06  -0.05  -0.00    -0.01  -0.03   0.02
    17   6     0.02  -0.02   0.02     0.03  -0.03   0.00     0.01   0.02   0.01
    18   6     0.03  -0.04   0.05     0.07  -0.04  -0.00     0.01   0.04  -0.05
    19   6    -0.01  -0.05   0.06     0.02  -0.02   0.00     0.03   0.08  -0.06
    20   6    -0.05  -0.06   0.04    -0.06   0.01   0.01     0.06   0.11  -0.02
    21   6    -0.06  -0.04   0.01    -0.08   0.02   0.01     0.06   0.09   0.03
    22   6    -0.02  -0.02  -0.00    -0.03  -0.00   0.01     0.04   0.04   0.04
    23   1     0.05   0.08   0.11     0.01  -0.06   0.02     0.07  -0.03   0.08
    24   1     0.10   0.15   0.19     0.04  -0.05  -0.02     0.06  -0.07   0.00
    25   1     0.10   0.15   0.16     0.06  -0.01  -0.05     0.01  -0.16  -0.17
    26   1     0.04   0.07   0.03     0.05   0.05  -0.05    -0.02  -0.18  -0.24
    27   1    -0.06  -0.08  -0.16     0.02   0.09  -0.03     0.02  -0.03  -0.08
    28   1    -0.09  -0.11  -0.19    -0.02   0.06  -0.00     0.07   0.08   0.11
    29   1     0.06   0.03  -0.02     0.04  -0.04   0.00    -0.01  -0.08   0.07
    30   1     0.07  -0.03   0.07     0.12  -0.07  -0.01    -0.01   0.01  -0.08
    31   1     0.00  -0.07   0.09     0.04  -0.03  -0.00     0.03   0.10  -0.10
    32   1    -0.09  -0.07   0.05    -0.10   0.03   0.02     0.08   0.15  -0.03
    33   1    -0.10  -0.04  -0.00    -0.13   0.05   0.02     0.08   0.11   0.06
    34   1    -0.02  -0.03  -0.02    -0.02  -0.03   0.06     0.01  -0.06   0.04
    35   1     0.02   0.04  -0.07    -0.04   0.01   0.01     0.03  -0.08   0.15
    36  17    -0.01  -0.01   0.01    -0.01   0.05   0.09    -0.03   0.01  -0.03
    37   8    -0.04   0.05  -0.02     0.03   0.01   0.01    -0.04   0.01   0.05
    38   7    -0.02   0.02   0.00     0.05  -0.02   0.04    -0.04   0.04  -0.02
    39   7     0.05   0.01   0.02    -0.11   0.03  -0.04    -0.04   0.02   0.01
    40   6    -0.02   0.03   0.03     0.03  -0.06   0.05    -0.04   0.05  -0.01
    41   6    -0.03   0.05   0.07    -0.01  -0.06   0.03    -0.02   0.04  -0.03
    42   6    -0.01   0.01  -0.01    -0.01  -0.03  -0.00    -0.02   0.01  -0.05
    43   6    -0.07  -0.01  -0.06     0.00  -0.02   0.01    -0.04  -0.01  -0.04
    44   6    -0.04   0.00  -0.01     0.03  -0.02   0.03    -0.04   0.01  -0.01
    45   6     0.07  -0.01  -0.03     0.01   0.00  -0.01     0.01   0.02  -0.05
    46   6     0.02   0.01  -0.01     0.04   0.01   0.02    -0.01   0.04  -0.03
    47   6     0.12  -0.10  -0.11     0.01   0.02  -0.05     0.03  -0.00  -0.11
    48   6     0.12  -0.10  -0.10     0.06   0.01  -0.10     0.08  -0.05  -0.18
    49   6    -0.01   0.02   0.00     0.09  -0.02   0.06    -0.06   0.04  -0.02
    50   6    -0.02   0.00   0.00     0.03  -0.02   0.02    -0.05   0.03  -0.01
    51   6    -0.01  -0.03   0.00     0.04  -0.14  -0.05    -0.05   0.01  -0.00
    52   6    -0.01  -0.08   0.01    -0.02  -0.10  -0.10    -0.03  -0.07   0.01
    53   6    -0.01  -0.10   0.01    -0.10   0.07  -0.08    -0.02  -0.12   0.01
    54   6    -0.02  -0.06   0.01    -0.11   0.17  -0.01    -0.02  -0.09  -0.00
    55   6    -0.02  -0.01   0.00    -0.05   0.12   0.04    -0.03  -0.01  -0.01
    56   6    -0.02   0.03  -0.01     0.04  -0.00   0.02    -0.05   0.01   0.01
    57   6     0.00   0.02  -0.00     0.02   0.01   0.00    -0.04   0.02   0.01
    58   6    -0.00   0.03   0.01     0.02   0.00  -0.01    -0.03   0.02   0.01
    59   6    -0.03   0.04   0.01     0.07  -0.01  -0.01    -0.03   0.01   0.01
    60   6    -0.05   0.04   0.02     0.08  -0.02  -0.02     0.01   0.01   0.01
    61   6    -0.04   0.04   0.03     0.02  -0.01  -0.04     0.04   0.01   0.01
    62   6    -0.01   0.03   0.03    -0.05   0.01  -0.05     0.03   0.02   0.01
    63   6     0.01   0.02   0.02    -0.05   0.01  -0.03    -0.02   0.02   0.01
    64   6     0.07   0.01   0.01    -0.10   0.04  -0.02    -0.07   0.02   0.00
    65   6     0.04   0.01   0.00    -0.03   0.03  -0.00    -0.06   0.02   0.01
    66   1    -0.01   0.01   0.04     0.03  -0.06   0.06    -0.03   0.06  -0.01
    67   1    -0.03   0.05   0.02     0.03  -0.08   0.07    -0.05   0.05  -0.00
    68   1     0.02   0.05   0.13    -0.02  -0.07   0.02    -0.00   0.05  -0.03
    69   1    -0.10   0.10   0.08    -0.02  -0.09   0.03    -0.04   0.03  -0.02
    70   1    -0.01   0.01  -0.02    -0.04  -0.03  -0.02    -0.01   0.00  -0.06
    71   1    -0.15  -0.02  -0.05    -0.00  -0.04   0.01    -0.05  -0.02  -0.04
    72   1    -0.06  -0.01  -0.13     0.00  -0.00   0.00    -0.03  -0.01  -0.06
    73   1     0.15   0.04   0.01     0.01   0.00  -0.01     0.04   0.04  -0.05
    74   1     0.00  -0.01   0.00     0.04   0.03   0.03    -0.02   0.02  -0.03
    75   1     0.02   0.04  -0.01     0.04   0.02   0.02    -0.01   0.06  -0.03
    76   1     0.17  -0.18  -0.18    -0.04   0.05  -0.04    -0.01   0.02  -0.09
    77   1     0.07  -0.03  -0.04     0.11  -0.00  -0.11     0.11  -0.07  -0.19
    78   1     0.16  -0.18  -0.16     0.06   0.03  -0.14     0.10  -0.07  -0.23
    79   1    -0.01  -0.02   0.00     0.11  -0.26  -0.06    -0.06   0.06  -0.00
    80   1    -0.01  -0.11   0.01    -0.01  -0.20  -0.15    -0.03  -0.08   0.02
    81   1    -0.01  -0.14   0.01    -0.15   0.11  -0.12    -0.01  -0.19   0.02
    82   1    -0.02  -0.07   0.01    -0.17   0.29   0.01    -0.01  -0.13  -0.00
    83   1    -0.02   0.01   0.01    -0.05   0.16   0.09    -0.04   0.01  -0.02
    84   1    -0.02   0.04  -0.01     0.06  -0.01   0.02    -0.07   0.01   0.01
    85   1    -0.02   0.04   0.00     0.10  -0.02   0.00    -0.06   0.01   0.01
    86   1    -0.07   0.05   0.02     0.13  -0.03  -0.02     0.01   0.01   0.01
    87   1    -0.07   0.04   0.03     0.03  -0.01  -0.05     0.08   0.01   0.01
    88   1     0.00   0.02   0.04    -0.10   0.01  -0.06     0.04   0.02   0.01
    89   1     0.10  -0.00   0.02    -0.15   0.05  -0.03    -0.09   0.02   0.00
    90   1     0.04   0.01  -0.01    -0.02   0.03   0.01    -0.08   0.02   0.01
    91   1    -0.02   0.04  -0.03     0.03   0.02   0.01    -0.07   0.01   0.08
    92   1    -0.05  -0.03   0.01     0.02  -0.03   0.05    -0.05  -0.00  -0.00
    93   1    -0.01   0.02   0.00     0.10   0.02   0.12    -0.06   0.02  -0.02
    94   1    -0.01   0.02   0.00     0.15  -0.07   0.06    -0.07   0.05  -0.02
    95   1     0.09   0.00   0.03     0.11  -0.07  -0.01    -0.03  -0.05  -0.01
                     13                     14                     15
                      A                      A                      A
 Frequencies --     72.2738                83.4421                93.9750
 Red. masses --      4.7786                 5.1512                 4.3424
 Frc consts  --      0.0147                 0.0211                 0.0226
 IR Inten    --      0.9351                 0.1380                 1.0638
  Atom  AN      X      Y      Z        X      Y      Z        X      Y      Z
     1   8     0.03   0.01  -0.04     0.00   0.03   0.00     0.02  -0.05  -0.05
     2   8     0.16  -0.05  -0.01     0.18  -0.05  -0.07    -0.17   0.06   0.06
     3   6     0.03   0.02  -0.02     0.00   0.02  -0.02     0.02  -0.03  -0.00
     4   6     0.02   0.03  -0.01    -0.00   0.01  -0.03     0.03  -0.02   0.01
     5   6     0.00   0.03   0.01    -0.01   0.01  -0.03     0.03  -0.01   0.02
     6   6     0.00   0.00   0.01    -0.01   0.01  -0.02     0.03  -0.01   0.02
     7   6    -0.02  -0.03   0.01    -0.00   0.02   0.01     0.02  -0.03  -0.00
     8   6    -0.03  -0.06   0.00     0.01   0.03   0.03     0.01  -0.05  -0.02
     9   6    -0.00  -0.06   0.01     0.01   0.01   0.01     0.02  -0.04  -0.01
    10   6     0.03  -0.04   0.02     0.00  -0.00  -0.01     0.03  -0.02   0.02
    11   6     0.03  -0.00   0.01    -0.00  -0.00  -0.02     0.04  -0.01   0.02
    12   6     0.04   0.01   0.00     0.00   0.00  -0.03     0.03  -0.01   0.02
    13   6     0.06   0.00  -0.00     0.02  -0.00  -0.03     0.02  -0.01   0.02
    14   6     0.08  -0.01  -0.00     0.08  -0.01  -0.04    -0.05   0.01   0.03
    15   6     0.01   0.01   0.00     0.03   0.02  -0.03    -0.01  -0.01   0.02
    16   6    -0.06   0.05   0.00    -0.04   0.05  -0.01     0.04  -0.04   0.01
    17   6    -0.03   0.04  -0.00    -0.03   0.03  -0.01     0.04  -0.02   0.00
    18   6    -0.06   0.06  -0.01    -0.04   0.03   0.00     0.00  -0.00  -0.00
    19   6     0.01   0.04  -0.02     0.03  -0.02  -0.00    -0.06   0.04   0.00
    20   6     0.12  -0.00  -0.03     0.09  -0.06  -0.02    -0.07   0.05   0.01
    21   6     0.13  -0.01  -0.02     0.07  -0.04  -0.03    -0.02   0.02   0.02
    22   6     0.05   0.01  -0.01     0.01  -0.00  -0.02     0.03  -0.01   0.01
    23   1     0.02   0.05  -0.01    -0.00   0.02  -0.03     0.03  -0.02   0.01
    24   1    -0.01   0.04   0.02    -0.02   0.01  -0.03     0.04  -0.00   0.03
    25   1    -0.04  -0.02   0.00    -0.00   0.03   0.02     0.01  -0.04  -0.01
    26   1    -0.05  -0.09  -0.01     0.01   0.04   0.05     0.00  -0.07  -0.04
    27   1    -0.00  -0.09   0.00     0.01   0.01   0.02     0.02  -0.05  -0.02
    28   1     0.05  -0.04   0.02     0.00  -0.01  -0.03     0.04  -0.01   0.03
    29   1     0.01   0.01   0.00     0.04   0.02  -0.03    -0.03  -0.01   0.03
    30   1    -0.15   0.09  -0.01    -0.09   0.06   0.02     0.02  -0.02  -0.01
    31   1    -0.01   0.05  -0.02     0.04  -0.02   0.01    -0.10   0.06  -0.00
    32   1     0.19  -0.03  -0.03     0.15  -0.09  -0.02    -0.12   0.09   0.02
    33   1     0.21  -0.04  -0.02     0.11  -0.07  -0.04    -0.02   0.03   0.02
    34   1     0.02  -0.00  -0.04     0.00   0.02   0.01     0.02  -0.02  -0.05
    35   1     0.17  -0.07  -0.01     0.20  -0.06  -0.07    -0.19   0.07   0.07
    36  17     0.01  -0.07  -0.02    -0.02   0.06   0.01     0.02   0.02  -0.05
    37   8    -0.03   0.07  -0.02    -0.02  -0.08   0.02    -0.02  -0.01  -0.04
    38   7    -0.03  -0.05   0.01    -0.00   0.05   0.03    -0.02   0.02  -0.03
    39   7    -0.02   0.02   0.02     0.08  -0.02  -0.00     0.04  -0.03   0.00
    40   6    -0.04  -0.05   0.03     0.01   0.08   0.03    -0.01   0.03  -0.03
    41   6    -0.08  -0.01   0.10     0.05   0.05  -0.01     0.00   0.05   0.01
    42   6    -0.07  -0.01   0.05     0.05   0.02   0.00     0.01   0.03  -0.00
    43   6    -0.09   0.01  -0.01     0.04  -0.00   0.04    -0.01   0.02  -0.02
    44   6    -0.03  -0.01  -0.01    -0.01   0.01   0.03    -0.02   0.02  -0.04
    45   6    -0.01  -0.05   0.04     0.03   0.05   0.00     0.02   0.00  -0.00
    46   6    -0.03  -0.06   0.02     0.02   0.06   0.02    -0.02   0.00  -0.02
    47   6     0.01  -0.11   0.01     0.02   0.06   0.02     0.03  -0.05   0.03
    48   6    -0.01  -0.09   0.04     0.01   0.07   0.03    -0.09   0.03   0.18
    49   6     0.00  -0.06  -0.01    -0.03   0.07   0.04    -0.03   0.01  -0.04
    50   6    -0.02  -0.06  -0.02    -0.05   0.05   0.02     0.00   0.01  -0.02
    51   6    -0.01  -0.09  -0.04    -0.04  -0.09   0.00     0.01  -0.14   0.04
    52   6    -0.04   0.01  -0.06    -0.06  -0.19  -0.01     0.04  -0.16   0.06
    53   6    -0.06   0.15  -0.07    -0.09  -0.11  -0.00     0.06   0.01   0.03
    54   6    -0.06   0.16  -0.05    -0.10   0.07   0.01     0.06   0.17  -0.02
    55   6    -0.04   0.04  -0.02    -0.08   0.13   0.03     0.03   0.14  -0.04
    56   6    -0.00   0.04  -0.01    -0.05  -0.05   0.03    -0.03   0.00  -0.04
    57   6     0.02   0.03  -0.00    -0.07  -0.04   0.02    -0.03  -0.00  -0.03
    58   6     0.01   0.04   0.01    -0.05  -0.05   0.00    -0.02   0.00  -0.02
    59   6     0.04   0.05   0.02    -0.12  -0.07  -0.01    -0.04   0.02  -0.02
    60   6     0.01   0.05   0.02    -0.09  -0.08  -0.02    -0.04   0.02  -0.00
    61   6    -0.04   0.05   0.03     0.03  -0.07  -0.03    -0.01   0.01   0.02
    62   6    -0.05   0.04   0.03     0.10  -0.05  -0.02     0.03  -0.00   0.02
    63   6    -0.02   0.03   0.02     0.05  -0.04  -0.01     0.02  -0.01   0.00
    64   6     0.01   0.01   0.01     0.02  -0.01   0.01     0.02  -0.03  -0.01
    65   6     0.03   0.02  -0.00    -0.06  -0.02   0.02    -0.02  -0.02  -0.03
    66   1    -0.05  -0.12   0.04     0.02   0.12   0.03    -0.03  -0.00  -0.04
    67   1    -0.01  -0.03  -0.01    -0.02   0.07   0.05     0.00   0.05  -0.06
    68   1    -0.06  -0.03   0.18     0.05   0.07  -0.05     0.02   0.05   0.05
    69   1    -0.13   0.06   0.11     0.06   0.02  -0.01    -0.01   0.09   0.01
    70   1    -0.09   0.00   0.07     0.07   0.01  -0.02     0.02   0.03   0.01
    71   1    -0.15   0.02   0.00     0.07  -0.01   0.03    -0.02   0.04  -0.02
    72   1    -0.08   0.02  -0.06     0.04  -0.03   0.06    -0.01   0.00  -0.03
    73   1     0.03  -0.04   0.09     0.02   0.06  -0.02     0.04   0.02   0.00
    74   1    -0.03  -0.07   0.02     0.02   0.05   0.01    -0.02  -0.00  -0.02
    75   1    -0.03  -0.06   0.02     0.03   0.07   0.03    -0.02   0.01  -0.03
    76   1     0.06  -0.17  -0.04     0.02   0.07   0.03     0.15  -0.17  -0.05
    77   1    -0.06  -0.04   0.09     0.01   0.06   0.03    -0.20   0.12   0.25
    78   1     0.01  -0.14   0.02     0.00   0.08   0.05    -0.08  -0.01   0.22
    79   1     0.01  -0.19  -0.04    -0.01  -0.13  -0.01    -0.01  -0.25   0.06
    80   1    -0.03  -0.01  -0.08    -0.05  -0.33  -0.02     0.05  -0.30   0.10
    81   1    -0.08   0.25  -0.09    -0.10  -0.19  -0.01     0.09   0.02   0.05
    82   1    -0.09   0.25  -0.05    -0.13   0.14   0.02     0.08   0.30  -0.04
    83   1    -0.04   0.02  -0.01    -0.08   0.20   0.04     0.03   0.17  -0.06
    84   1     0.01   0.04  -0.01    -0.05  -0.05   0.03    -0.03   0.01  -0.04
    85   1     0.08   0.05   0.02    -0.18  -0.07  -0.01    -0.05   0.02  -0.02
    86   1     0.04   0.06   0.03    -0.15  -0.09  -0.03    -0.07   0.04  -0.00
    87   1    -0.07   0.05   0.04     0.06  -0.07  -0.04    -0.01   0.02   0.03
    88   1    -0.09   0.03   0.03     0.20  -0.04  -0.02     0.06  -0.01   0.03
    89   1     0.02   0.00   0.01     0.03   0.00   0.01     0.04  -0.04  -0.01
    90   1     0.04   0.01  -0.01    -0.09  -0.02   0.03    -0.04  -0.03  -0.04
    91   1    -0.02   0.08  -0.03    -0.03  -0.07   0.03    -0.01  -0.04  -0.05
    92   1    -0.02  -0.03  -0.00    -0.04   0.04   0.03    -0.02   0.03  -0.04
    93   1     0.01  -0.04  -0.00    -0.04   0.06   0.07    -0.03   0.01  -0.05
    94   1     0.02  -0.07  -0.02    -0.01   0.06   0.03    -0.04   0.03  -0.04
    95   1    -0.13   0.08   0.00    -0.10   0.08   0.01     0.08  -0.06  -0.01
                     16                     17                     18
                      A                      A                      A
 Frequencies --     95.6661               110.3838               114.5033
 Red. masses --      3.4289                 5.4387                 5.5792
 Frc consts  --      0.0185                 0.0390                 0.0431
 IR Inten    --      1.3477                 0.6654                 2.5453
  Atom  AN      X      Y      Z        X      Y      Z        X      Y      Z
     1   8     0.01   0.02   0.06    -0.10  -0.11  -0.08    -0.04  -0.11  -0.12
     2   8     0.08  -0.05  -0.02     0.19  -0.12   0.04    -0.08   0.04   0.04
     3   6    -0.00  -0.00   0.03    -0.06  -0.03   0.01     0.00  -0.04  -0.04
     4   6     0.01  -0.02   0.01    -0.02  -0.01   0.05     0.02  -0.01  -0.01
     5   6     0.02  -0.03  -0.01     0.01   0.02   0.06     0.03   0.01   0.03
     6   6     0.01  -0.01  -0.02    -0.00   0.03   0.03     0.03   0.00   0.02
     7   6     0.04   0.01  -0.02    -0.00  -0.00  -0.05     0.01  -0.02  -0.01
     8   6     0.04   0.04  -0.01    -0.03  -0.00  -0.11     0.00  -0.05  -0.04
     9   6     0.02   0.05  -0.01    -0.03   0.04  -0.06     0.01  -0.04  -0.02
    10   6    -0.00   0.03  -0.01    -0.03   0.08   0.02     0.03  -0.00   0.02
    11   6    -0.00  -0.00  -0.01    -0.02   0.05   0.04     0.03   0.01   0.03
    12   6    -0.01  -0.01   0.00    -0.05   0.02   0.05     0.03  -0.00   0.01
    13   6    -0.02  -0.01  -0.00    -0.07   0.03   0.05     0.04  -0.00   0.01
    14   6     0.02  -0.03  -0.01    -0.00  -0.03   0.04     0.01   0.00   0.02
    15   6    -0.00  -0.01   0.00    -0.09   0.00   0.04     0.06  -0.02   0.00
    16   6    -0.03  -0.00   0.01    -0.12   0.02   0.03     0.06  -0.02  -0.00
    17   6    -0.02  -0.01   0.01    -0.06   0.01   0.02     0.03   0.00  -0.00
    18   6     0.00  -0.02   0.01     0.11  -0.06  -0.01    -0.06   0.05  -0.00
    19   6     0.03  -0.04   0.01     0.18  -0.08  -0.02    -0.07   0.06  -0.00
    20   6     0.02  -0.04   0.01     0.02   0.01   0.01     0.03   0.02  -0.01
    21   6    -0.01  -0.03   0.00    -0.14   0.07   0.04     0.10  -0.01  -0.00
    22   6    -0.02  -0.01   0.00    -0.12   0.05   0.04     0.07  -0.01   0.00
    23   1     0.02  -0.03   0.03    -0.01  -0.02   0.07     0.02  -0.01  -0.01
    24   1     0.02  -0.04  -0.03     0.04   0.03   0.09     0.04   0.04   0.05
    25   1     0.05  -0.00  -0.03     0.01  -0.03  -0.07     0.01  -0.03  -0.02
    26   1     0.06   0.06  -0.01    -0.04  -0.04  -0.18    -0.02  -0.08  -0.07
    27   1     0.02   0.07  -0.00    -0.05   0.05  -0.09     0.01  -0.05  -0.03
    28   1    -0.02   0.03  -0.01    -0.04   0.12   0.06     0.04   0.01   0.04
    29   1     0.00  -0.01  -0.00    -0.12   0.01   0.05     0.08  -0.04   0.00
    30   1     0.00  -0.02   0.01     0.19  -0.11  -0.03    -0.12   0.07  -0.00
    31   1     0.06  -0.06   0.01     0.34  -0.15  -0.05    -0.16   0.11  -0.00
    32   1     0.05  -0.06   0.00     0.02   0.02   0.01     0.05   0.02  -0.01
    33   1    -0.02  -0.03   0.00    -0.26   0.13   0.06     0.18  -0.04  -0.01
    34   1     0.01   0.03   0.07    -0.07  -0.06  -0.04    -0.01  -0.04  -0.06
    35   1     0.09  -0.06  -0.02     0.20  -0.16   0.03    -0.02   0.02   0.02
    36  17    -0.01   0.09   0.03    -0.01   0.01   0.04     0.03   0.15   0.12
    37   8    -0.00   0.03   0.06     0.01  -0.01  -0.12    -0.03  -0.01  -0.11
    38   7    -0.02  -0.01  -0.03     0.02  -0.00  -0.01     0.01  -0.01   0.04
    39   7    -0.08   0.04  -0.01     0.06  -0.05  -0.01     0.07  -0.04  -0.01
    40   6    -0.01  -0.02  -0.07     0.01  -0.00   0.02    -0.01  -0.02   0.08
    41   6     0.00  -0.01  -0.05    -0.01   0.01   0.03    -0.05  -0.02   0.07
    42   6     0.01  -0.03  -0.06    -0.01   0.02   0.02    -0.04  -0.01   0.02
    43   6    -0.02  -0.05  -0.06    -0.01   0.03  -0.01    -0.06  -0.01  -0.01
    44   6    -0.00  -0.03  -0.01    -0.00   0.02  -0.04    -0.03  -0.01   0.00
    45   6     0.03  -0.02  -0.07    -0.00   0.00   0.02     0.01  -0.00   0.00
    46   6    -0.05   0.01  -0.04     0.02  -0.01  -0.01     0.02   0.01   0.02
    47   6     0.07  -0.14  -0.06    -0.02   0.03   0.03     0.01  -0.01  -0.02
    48   6    -0.12   0.01   0.17    -0.02   0.04   0.04    -0.05   0.10   0.09
    49   6    -0.02   0.00  -0.01     0.03  -0.00  -0.01     0.06  -0.00   0.06
    50   6    -0.01   0.01  -0.00     0.04  -0.01   0.00     0.02  -0.01   0.02
    51   6    -0.01   0.03   0.01     0.04  -0.02   0.02     0.02   0.10  -0.06
    52   6    -0.00   0.01   0.03     0.05   0.00   0.02    -0.04   0.12  -0.10
    53   6     0.01  -0.03   0.02     0.06   0.03   0.02    -0.09  -0.01  -0.07
    54   6     0.02  -0.03   0.01     0.06   0.02   0.01    -0.08  -0.12   0.01
    55   6     0.00  -0.01  -0.00     0.05   0.00   0.00    -0.03  -0.09   0.05
    56   6     0.01   0.01   0.03     0.00   0.00  -0.08    -0.02  -0.01  -0.05
    57   6     0.02   0.02   0.02    -0.01  -0.01  -0.07    -0.03  -0.02  -0.04
    58   6     0.01   0.01   0.01     0.01   0.00  -0.04    -0.01  -0.02  -0.03
    59   6     0.03   0.00   0.01    -0.00   0.03  -0.04    -0.03  -0.01  -0.03
    60   6     0.06  -0.00  -0.00    -0.03   0.05  -0.01    -0.05  -0.00  -0.02
    61   6     0.03   0.01  -0.02    -0.04   0.03   0.02    -0.03  -0.01  -0.01
    62   6    -0.03   0.02  -0.02     0.00  -0.01   0.02     0.03  -0.02  -0.01
[...]
 249,-0.00000332,-0.00000254,-0.00000167,0.00001550,0.00000748,0.000002
 97,-0.00000424,-0.00000285,0.00000108,0.00000209,0.00000057,0.00000007
 ,-0.00000188,0.00000104,0.00000117,0.00000061,0.00000093,0.00000080,-0
 .00000072,0.00000070,0.00000105,-0.00000005,0.00000020,0.00000193,0.,0
 .00000010,-0.00000110,0.00000042,0.00000127,-0.00000943,0.00000381,-0.
 00000152,0.00000015,0.00000177,0.00000087,0.,0.00000114,0.00000072,-0.
 00000073,0.00000086,0.00000049,-0.00000042,0.00000072,-0.00000061,-0.0
 0000016,0.00000078,-0.00000030,-0.00000113,0.00000186,-0.00000081,-0.0
 0000089,0.00000019,-0.00000070,-0.00000093,-0.00000015,-0.00000033,-0.
 00000113,0.,-0.00000025,-0.00000159,0.,-0.00000083,-0.00004912,0.00000
 534,-0.00003229,-0.00000169,0.00000597,0.00000257,0.00007552,0.0000454
 3,0.00005880,0.00004810,-0.00003281,0.00001572,-0.00060755,-0.00536636
 ,-0.00541216,-0.00000568,-0.00002452,0.00000513,0.00102325,-0.00000714
 ,-0.00055830,-0.00004509,-0.00002278,0.00000074,-0.00002242,-0.0000035
 1,0.00002024,0.00003849,-0.00008128,0.00004913,-0.00036701,0.00055824,
 -0.00074152,0.00000309,-0.00001993,-0.00000058,0.00006240,-0.00028816,
 -0.00047261,0.00000147,0.00000318,-0.00000664,0.00000295,0.00000365,0.
 00000696,-0.05435548,-0.26099111,-0.01802503,-0.00063294,-0.01472671,0
 .00534182,0.00127325,-0.00016846,0.00076445,-0.00015118,0.00010755,-0.
 00006169,-0.00009304,-0.00005883,-0.00002147,-0.00009517,-0.00004422,0
 .00021995,0.00063695,-0.00034132,0.00053388,-0.00012251,0.00005725,0.0
 0000395,-0.00001465,0.00001514,0.00000733,-0.00007508,-0.00005179,-0.0
 0004813,-0.00002659,-0.00001041,-0.00000067,0.00000550,-0.00003896,-0.
 00001230,-0.00000777,0.00000909,-0.00000747,-0.00002248,-0.00001090,0.
 00001669,0.00002860,-0.00000705,-0.00002319,0.00000090,-0.00000246,0.0
 0000163,0.00000694,-0.00002412,-0.00001503,0.00008193,-0.00010764,-0.0
 0002914,0.00053372,-0.00005528,-0.00057431,0.00000456,-0.00000340,0.00
 001846,0.00000042,0.00002155,0.00001377,0.00000620,0.00000205,-0.00000
 265,-0.00000517,0.00002145,0.00001388,-0.00001764,-0.00000203,-0.00000
 165,0.00000136,-0.00000387,-0.00000536,-0.00000857,0.00005747,0.000051
 47,-0.00001134,0.00004911,0.00002038,0.00000168,-0.00000050,-0.0000013
 7,-0.00000168,-0.00000181,-0.00000112,-0.00000220,-0.00000130,-0.00000
 141,0.00078223,-0.00024617,0.00041033,0.00001224,0.00002486,-0.0000195
 3,0.00001720,-0.00001812,0.00000230,0.00001215,-0.00002259,0.00001520,
 -0.00002931,0.00000993,-0.00011866,-0.00002953,-0.00001765,-0.00002248
 ,-0.00004773,0.00005028,0.00001460,0.00000435,0.00001452,-0.00000066,0
 .00001121,-0.00000114,-0.00000104,0.00001140,-0.00000048,0.00000566,0.
 00000713,-0.00000440,0.00000499,0.00000518,0.00001710,0.00001084,-0.00
 001953,-0.00000571,0.00000072,-0.00006755,-0.00010319,-0.00028567,-0.0
 0941377,-0.00774380,-0.00014249,0.06161578,0.28959034,0.00003485,0.000
 00399,0.00001604,0.00000287,0.00000076,0.00000202,-0.00001815,0.000002
 87,0.00001010,0.00000447,-0.00000200,-0.00000339,-0.00000271,-0.000000
 34,0.00000059,0.00000272,-0.00000051,0.00000022,-0.00000160,-0.0000002
 7,0.00000061,0.00000091,-0.00000046,0.00000093,0.00000049,-0.00000025,
 -0.00000049,0.00000013,-0.00000017,-0.00000033,-0.00000105,0.00000026,
 0.00000145,0.00000542,-0.00000046,0.00000121,0.00000105,0.00000208,-0.
 00000196,-0.00000095,-0.00000368,-0.00000088,0.00000019,-0.00000006,-0
 .00000021,-0.00000029,0.00000118,0.00000017,-0.00000071,-0.00000071,0.
 00000129,-0.00000046,0.00000060,-0.00000002,-0.00000059,-0.00000031,0.
 00000065,-0.00000022,-0.00000007,-0.00000031,-0.00000029,0.00000109,0.
 00000033,-0.00000011,-0.00000200,-0.00000006,-0.00000634,0.00000193,-0
 .00000168,-0.00000012,0.00000087,0.00000025,-0.00000006,0.00000048,0.0
 0000021,-0.00000029,0.00000032,0.00000019,-0.00000019,0.00000022,-0.00
 000026,0.00000016,0.00000010,-0.00000035,-0.00000019,0.00000014,-0.000
 00017,0.00000047,-0.00000008,-0.00000011,0.00000031,-0.00000004,0.,0.0
 0000026,0.00000012,-0.00000015,0.00000032,-0.00000048,-0.00000095,-0.0
 0003800,-0.00000307,-0.00005044,-0.00000201,0.00000106,-0.00000049,0.0
 0005070,0.00004264,0.00024518,0.00001861,0.00002646,0.00006357,-0.0036
 6613,-0.02240656,-0.00571518,-0.00000032,-0.00003309,-0.00000943,0.001
 77353,-0.00085631,-0.00078123,-0.00017215,-0.00000099,0.00004236,-0.00
 001714,-0.00004939,0.00000257,0.00003400,-0.00000100,0.00011254,-0.001
 04252,-0.00034546,-0.00240211,-0.00010814,-0.00038278,0.00017452,0.000
 44128,-0.00090445,-0.00245529,0.00004592,-0.00000896,-0.00005741,-0.00
 000262,-0.00000379,-0.00000199,-0.00467893,-0.01591452,-0.03523317,0.0
 0257572,0.01792662,0.00024259,-0.00079906,0.00073482,-0.00070766,0.000
 17206,-0.00005705,0.00000577,0.00004316,0.00007616,0.00004943,0.000256
 42,-0.00001370,-0.00050102,-0.00137720,0.00053204,-0.00082334,-0.00014
 918,-0.00011871,-0.00011494,0.00003536,0.00005788,0.00004117,-0.000004
 85,-0.00003260,0.00000664,-0.00007475,-0.00002865,-0.00003035,-0.00000
 863,-0.00001598,-0.00000831,-0.00000547,-0.00000377,-0.00000584,-0.000
 00557,0.00000214,-0.00000565,-0.00000586,0.00003175,0.00000161,-0.0000
 0531,0.00001756,0.00000819,0.00000307,-0.00001516,-0.00001860,-0.00010
 028,-0.00007196,-0.00002888,0.00090413,0.00028798,-0.00065301,-0.00000
 673,-0.00000515,0.00000858,0.00000137,0.00000781,0.00000196,0.00000095
 ,0.00000125,-0.00000785,0.00000246,0.00001234,0.00000170,0.00001295,-0
 .00001289,0.00000647,0.00000670,0.00000189,-0.00006537,0.00029942,0.00
 020877,-0.00027447,0.00012640,0.00018118,-0.00009886,-0.00001576,-0.00
 000876,-0.00000326,0.00000967,-0.00000205,-0.00001936,0.00000108,0.000
 00316,0.00000300,-0.00077152,-0.00000094,-0.00013105,0.00000700,0.0000
 0156,0.00002549,-0.00001236,0.00000604,0.00003746,-0.00004727,0.000010
 27,-0.00002944,-0.00024998,-0.00003462,0.00000938,-0.00004386,-0.00004
 519,-0.00000692,-0.00001997,0.00005022,0.00003002,0.00001484,0.0000072
 0,0.00000130,0.00000866,0.00000300,0.00000163,0.00000732,-0.00000020,0
 .00000190,0.00000241,-0.00000285,-0.00000243,-0.00000452,0.00000230,-0
 .00000517,-0.00000551,-0.00001957,-0.00000288,0.00002863,0.00065572,-0
 .00136123,0.00059065,0.00150059,0.00278692,0.00594625,0.01900480,0.047
 67584,-0.00011875,0.00001484,0.00005058,-0.00020348,0.00006952,-0.0001
 1265,0.00015129,-0.00001802,-0.00011439,-0.00004187,0.00000136,0.00001
 482,0.00001887,-0.00000320,0.00000371,-0.00003069,0.00000572,-0.000008
 21,0.00001381,-0.00000183,-0.00000239,-0.00000694,0.00000142,-0.000011
 88,-0.00000331,0.00000038,-0.00000300,0.00000423,0.00000123,0.00000955
 ,0.00001171,-0.00000986,0.00006025,-0.00054700,0.00010443,-0.00009605,
 -0.00039679,0.00009016,-0.00009594,0.00573692,-0.00137110,0.00100873,0
 .00734556,-0.00069621,-0.00068587,-0.04952502,0.00145339,0.04707910,0.
 00539957,-0.00217295,0.00768541,-0.00147439,-0.00018877,-0.00009428,0.
 00004455,0.00001921,0.00003636,-0.00011799,0.00002348,-0.00003939,-0.0
 0029567,0.00009643,0.00005699,0.00276397,-0.00110767,0.00057585,0.0000
 0915,-0.00000134,0.00000101,-0.00000079,0.00000048,0.00000170,-0.00000
 130,0.00000026,0.00000233,-0.00000068,0.00000011,-0.00000080,-0.000000
 42,-0.00000026,0.00000491,-0.00000545,-0.00000020,0.00002437,-0.002508
 23,0.00043220,-0.00064667,0.00007062,-0.00040909,-0.00007354,0.0001021
 8,-0.00001810,0.00001263,0.00003464,-0.00000875,0.00000721,0.00012117,
 -0.00004274,0.00002791,0.00003918,-0.00001011,0.00000765,0.00001497,0.
 00001343,0.00001685,-0.00004722,0.00000760,0.00002220,-0.00002142,0.00
 002606,0.00003182,-0.00000136,0.00000104,-0.00000396,-0.00000569,0.000
 00857,0.00000224,0.00000481,0.00000256,0.00000545,0.00000194,-0.000000
 48,-0.00000078,-0.00000519,0.00000333,0.00000437,0.00000742,-0.0000001
 6,0.00000390,-0.00000303,0.00000915,0.00000346,-0.00000345,-0.00000026
 ,-0.00000344,-0.00001029,-0.00000748,0.00001962,0.00000452,-0.00001196
 ,0.00000635,0.00000417,-0.00000145,0.00001417,0.00000023,-0.00000092,-
 0.00000982,-0.00000025,0.00000200,0.00000712,-0.00000315,-0.00000026,-
 0.00000004,-0.00000030,-0.00000200,0.00000276,0.00000115,0.00000088,0.
 00000020,-0.00000038,0.00000055,0.00000041,-0.00000121,0.00000062,0.00
 000326,0.00000741,-0.00001995,-0.00000343,-0.00000257,0.00000089,-0.00
 000020,-0.00000194,0.00000725,0.00000170,-0.00000676,0.00000107,0.0000
 0117,-0.00000118,0.00000129,0.00000002,-0.00000096,-0.00000052,0.00000
 013,-0.00000151,-0.00000086,-0.00000047,0.00000209,-0.00000547,0.00000
 258,0.00000034,-0.00000475,-0.00000047,-0.00000256,0.00000159,0.000001
 93,-0.00000164,0.00000015,-0.00000246,-0.00000140,-0.00000107,-0.00000
 065,-0.00000047,0.00000066,0.00000080,-0.00000053,-0.00000012,0.000000
 58,-0.00000505,-0.00000112,-0.00000406,-0.00000178,-0.00000163,-0.0000
 0205,-0.00001357,-0.00001043,-0.00001718,-0.00000008,0.00000162,0.0000
 0161,0.00002517,0.00000139,-0.00002463,0.00000129,0.00000208,-0.000003
 17,-0.00000994,0.00000576,-0.00000972,0.00000460,0.00000002,-0.0000132
 9,-0.00000262,0.00000595,-0.00000895,0.00000034,-0.00000074,-0.0000011
 7,-0.00000028,-0.00000067,-0.00000073,-0.00000007,0.00000018,-0.000001
 21,0.00000125,0.00000031,-0.00000096,0.00000424,-0.00000055,-0.0000027
 1,0.00000527,0.00000487,-0.00000344,0.00000475,-0.00000100,-0.00000082
 ,0.00000166,0.00000120,0.,0.00000166,0.,-0.00000039,0.00000173,-0.0000
 0077,0.00000053,0.00000152,0.00000039,0.00000024,0.00000415,-0.0000049
 3,-0.00000678,0.00004091,-0.00000283,-0.00003089,0.00000113,-0.0000022
 6,0.00000132,0.00000631,0.00000012,-0.00000181,-0.00000017,-0.00000101
 ,0.00000046,0.03341461,0.00000843,0.00001357,-0.00000915,0.00013982,0.
 00017161,-0.00043802,-0.00002045,-0.00001182,0.00001660,0.00000388,0.0
 0000404,-0.00000097,0.00000030,-0.00000022,-0.00000051,0.00000530,-0.0
 0000008,-0.00000242,-0.00000109,0.00000076,0.00000050,0.00000139,0.000
 00006,0.00000090,0.00000046,-0.00000101,0.00000222,0.00000417,0.000008
 00,-0.00000338,-0.00000726,-0.00000409,-0.00001054,0.00009942,-0.00000
 223,0.00003998,0.00018501,0.00048006,-0.00004011,-0.00152610,-0.002629
 27,-0.00031639,0.00290518,-0.00137434,-0.02384460,0.00122203,-0.039051
 75,-0.00476764,-0.00571021,-0.00041464,0.02282968,-0.00026534,-0.00138
 525,0.00151462,-0.00003856,-0.00001334,0.00014631,0.00004689,-0.000047
 06,-0.00016836,0.00003004,0.00028544,0.00042411,-0.00102501,-0.0026444
 1,-0.00004721,-0.00000060,-0.00000161,0.00000003,-0.00000005,-0.000000
 79,0.00000030,0.00000024,-0.00000050,-0.00000007,-0.00000037,-0.000000
 33,0.00000036,-0.00000027,-0.00000060,-0.00000172,-0.00000185,-0.00000
 835,-0.00000717,0.00040817,-0.00142342,-0.00094551,-0.00014246,-0.0014
 1789,-0.00075441,-0.00001793,0.00000425,-0.00000888,-0.00000560,-0.000
 00299,-0.00000935,-0.00004051,-0.00008023,0.00000896,0.00000048,-0.000
 00467,0.00000299,0.00002589,0.00008057,0.00001691,0.00000011,0.0000023
 7,-0.00000629,-0.00001656,-0.00000228,-0.00000642,0.00000136,0.0000000
 4,0.00000064,0.00000070,-0.00000305,0.00000047,-0.00000022,-0.00000034
 ,-0.00000074,-0.00000036,-0.00000035,0.00000002,0.00000004,-0.00000016
 ,-0.00000003,-0.00000247,-0.00000062,-0.00000093,-0.00000196,-0.000002
 05,0.00000027,0.00000122,0.00000049,-0.00000029,-0.00000083,0.00000015
 ,-0.00000211,0.00000007,0.00000109,-0.00000021,-0.00000020,-0.00000049
 ,-0.00000288,-0.00000112,-0.00000002,0.00000175,-0.00000021,-0.0000002
 3,-0.00000096,0.00000034,0.00000012,0.,-0.00000008,0.00000020,-0.00000
 039,-0.00000009,-0.00000006,-0.00000006,-0.00000032,-0.00000014,-0.000
 00029,-0.00000058,-0.00000025,-0.00000069,0.00000988,0.00000750,0.0000
 0641,-0.00000205,-0.00000015,-0.00000041,0.00000025,-0.00000199,0.0000
 0065,-0.00000040,-0.00000040,-0.00000134,0.00000002,-0.00000021,-0.000
 00007,-0.00000002,-0.00000017,-0.00000002,-0.00000027,-0.00000037,-0.0
 0000029,0.00000030,0.00000088,-0.00000002,-0.00000067,0.00000359,0.000
 00076,-0.00000165,-0.00000343,0.00000060,0.00000009,0.,0.00000035,0.00
 000017,0.00000036,0.00000005,0.00000010,0.00000003,-0.00000002,0.00000
 003,0.00000017,-0.00000042,0.00000043,0.00000070,0.00000015,-0.0000003
 1,0.00000030,-0.00000115,0.00000491,0.00000188,-0.00000108,-0.00000016
 ,-0.00000029,0.,-0.00000069,-0.00000042,0.00000224,-0.00000010,-0.0000
 0024,0.00000042,0.00000162,0.00000029,0.00000199,-0.00000108,-0.000000
 28,0.00000156,-0.00000150,-0.00000038,0.00000223,0.00000005,0.00000018
 ,0.00000009,0.00000016,0.00000014,0.00000013,0.00000002,-0.00000007,0.
 00000022,-0.00000017,-0.00000006,0.00000014,0.00000125,0.00000011,0.00
 000157,-0.00000056,-0.00000159,0.00000052,0.00000047,0.00000020,0.0000
 0082,0.00000013,-0.00000031,0.00000038,-0.00000008,0.00000019,0.000000
 50,0.00000004,0.00000087,0.,0.00000028,0.00000119,-0.00000206,0.000001
 84,0.00000096,-0.00000238,0.00000629,-0.00000798,0.00001018,-0.0000003
 0,0.00000074,-0.00000023,0.00000070,0.00000007,0.00000050,0.00000021,0
 .00000024,0.,0.00371862,0.04947581,0.00012047,-0.00000758,0.00003552,-
 0.00000964,-0.00000146,-0.00017004,-0.00005650,0.00000490,0.00001947,0
 .00002928,-0.00000156,-0.00001999,-0.00003838,0.00000563,0.00000110,0.
 00000997,-0.00000128,0.00003915,-0.00001514,0.00000272,-0.00000026,-0.
 00000094,0.00000019,0.00001534,0.00000398,-0.00000049,-0.00000921,-0.0
 0003371,0.00000648,0.00000470,0.00004857,-0.00001156,0.00001744,-0.000
 10000,0.00001976,-0.00011265,-0.00008112,0.00022952,0.00006409,0.00089
 309,-0.00111867,0.00039446,0.00274834,-0.00455162,-0.01165287,0.046882
 52,-0.00618990,-0.29566180,0.00428361,0.00420261,-0.01144564,-0.000171
 76,0.00107464,0.00049007,-0.00001281,-0.00015297,-0.00002749,-0.000016
 17,-0.00002939,-0.00007077,-0.00002109,0.00003389,-0.00016345,0.000677
 27,0.00047702,-0.00003980,-0.00001190,0.00000091,-0.00000454,0.0000006
 0,-0.00000044,-0.00000730,0.00000003,-0.00000012,-0.00000483,0.0000055
 2,-0.00000110,-0.00000171,0.00000447,-0.00000107,0.00000661,0.00002153
 ,-0.00000338,-0.00000174,-0.00065790,-0.00103901,-0.00023667,0.0001865
 1,0.00067707,-0.00020671,0.00001404,0.00000021,0.00003208,0.00001043,0
 .00000856,-0.00001106,0.00003124,0.00001817,-0.00001231,-0.00008262,0.
 00001259,-0.00006488,0.00000129,-0.00001422,-0.00001245,0.00008559,0.0
 0000101,0.00004875,0.00005509,0.00003230,0.00002467,-0.00001021,-0.000
 00362,-0.00000161,-0.00000148,0.00001137,0.00000085,-0.00000050,0.0000
 0009,0.00000262,0.00000405,0.00000065,0.00000038,-0.00000189,0.0000022
 8,-0.00000046,0.00001346,0.00000285,0.00000484,0.00000827,0.00000787,-
 0.00000420,-0.00000115,-0.00000228,-0.00000154,0.00002350,0.00000502,-
 0.00000104,0.00000568,-0.00000251,-0.00000208,0.00000856,-0.00001133,0
 .00000144,0.00000870,0.00000050,-0.00000721,0.00000243,0.00000049,0.00
 000421,0.00000014,-0.00000069,0.00000029,0.00000140,-0.00000017,0.0000
 0075,-0.00000019,-0.00000065,0.00000007,0.00000522,0.00000042,0.000003
 06,0.00001130,0.00000410,0.00000511,-0.00003463,-0.00002975,-0.0000245
 1,0.00000730,0.00000326,0.00000171,-0.00000193,0.00000548,-0.00000049,
 0.00000542,0.00000308,0.00000406,0.00000121,0.00000189,0.00000176,0.00
 000105,0.00000098,0.00000002,0.00000173,0.00000161,-0.00000017,-0.0000
 0229,-0.00000211,0.00000198,0.00000315,-0.00001000,-0.00000242,0.00000
 454,0.00001021,-0.00000046,-0.00000066,0.00000051,-0.00000154,-0.00000
 040,-0.00000130,-0.00000062,-0.00000093,0.00000067,0.00000097,-0.00000
 078,-0.00000035,0.00000158,-0.00000115,0.00000023,0.00000338,-0.000000
 40,-0.00000027,0.00000259,-0.00002446,-0.00000448,0.00000393,0.0000011
 9,0.00000254,0.00000171,-0.00003354,-0.00000434,0.00000914,-0.00000129
 ,0.00000084,-0.00000185,-0.00000399,0.00000420,0.00000432,-0.00000571,
 0.00000652,0.00000004,-0.00000914,0.00000557,-0.00000248,-0.00000068,-
 0.00000073,0.00000019,-0.00000169,-0.00000051,-0.00000057,-0.00000056,
 0.00000105,-0.00000111,-0.00000054,0.00000043,-0.00000041,-0.00002825,
 -0.00000449,-0.00001930,-0.00000161,-0.00000123,0.00000112,-0.00000459
 ,-0.00000637,-0.00000366,-0.00000238,-0.00000079,-0.00000189,-0.000000
 72,-0.00000110,-0.00000225,-0.00000042,-0.00000355,-0.00000049,-0.0000
 0172,-0.00000333,0.00000355,-0.00000549,-0.00000382,0.00000128,-0.0000
 4443,-0.00002902,-0.00001086,0.00000121,-0.00000233,0.00000064,-0.0000
 0872,-0.00000321,-0.00000170,-0.00000095,-0.00000086,-0.00000024,-0.05
 468372,0.00636811,0.31877233\\0.00000644,0.00000364,0.00000413,-0.0000
 0004,0.00000449,-0.00000099,0.00000280,0.00000013,-0.00000278,-0.00000
 366,0.00000034,0.00000587,0.00000342,-0.00000079,0.00000010,0.00000034
 ,0.00000068,-0.00000268,-0.00000339,-0.00000030,-0.00000099,0.00000253
 ,0.00000070,0.00000317,0.00000291,-0.00000158,-0.00000241,-0.00000266,
 -0.00000078,-0.00000049,-0.00000086,0.00000217,0.00000263,-0.00000030,
 0.00000135,-0.00000397,0.00000181,0.00000071,-0.00000074,-0.00000269,-
 0.00000355,0.00000683,0.00000020,-0.00000357,-0.00000786,0.00000163,0.
 00000597,0.00000036,-0.00000092,-0.00000114,0.00000365,-0.00000017,-0.
 00000332,0.00000071,0.00000121,0.00000269,-0.00000365,-0.00000037,0.00
 000300,0.00000371,-0.00000071,-0.00000300,-0.00000086,0.00000121,-0.00
 000042,-0.00000253,0.00000044,-0.00000020,0.00000051,-0.00000073,0.000
 00144,0.00000036,0.00000017,-0.00000036,0.00000058,-0.00000102,-0.0000
 0140,-0.00000016,-0.00000045,0.00000166,0.00000006,0.00000081,0.000000
 11,-0.00000025,0.00000013,0.00000104,0.00000059,-0.00000046,0.00000037
 ,-0.00000061,-0.00000015,-0.00000080,0.00000011,0.00000026,-0.00000085
 ,-0.00000006,-0.00000044,0.00000104,0.00000059,-0.00000533,-0.00000874
 ,-0.00000034,-0.00000007,-0.00000153,0.00000162,0.00000679,-0.00000226
 ,0.00000107,-0.00000166,-0.00000799,0.00000272,-0.00000748,0.00000400,
 -0.00000058,-0.00000025,0.00000134,-0.00000015,-0.00000369,-0.00000071
 ,-0.00000221,0.00000138,-0.00000094,0.00000022,-0.00000149,-0.00000106
 ,0.00000034,0.00000140,-0.00000101,0.00000463,0.00000467,0.00000166,-0
 .00000121,-0.00000029,0.00000148,0.00000187,0.00000050,-0.00000056,-0.
 00000157,-0.00000101,0.00000063,-0.00000083,-0.00000140,-0.00000045,-0
 .00000068,0.00000625,-0.00000015,-0.00000419,-0.00000350,-0.00000245,0
 .00000140,-0.00000054,-0.00000108,0.00000098,-0.00000067,-0.00000072,0
 .00000040,0.00000063,0.00000076,-0.00000033,-0.00000090,0.00000029,-0.
 00000158,-0.00000827,-0.00000016,-0.00000897,-0.00000046,0.00000721,0.
 00001195,0.00000087,0.00000293,0.00000278,0.00000284,0.00000013,-0.000
 00682,-0.00000251,0.00000403,0.00000362,0.00000302,-0.00000599,-0.0000
 0409,-0.00000108,0.00000738,-0.00000356,-0.00000182,-0.00000192,0.0000
 0630,-0.00000025,-0.00000109,-0.00000155,0.00000514,-0.00000646,-0.000
 00459,-0.00000308,0.00000204,0.00000611,0.00000126,-0.00000099,0.00000
 131,0.00000084,0.00000112,0.00000049,0.00000059,-0.00000004,-0.0000002
 1,-0.00000017,0.00000064,-0.00000086,0.00000073,-0.00000052,-0.0000008
 2,-0.00000039,0.00000106,-0.00000070,0.,0.00000073,-0.00000080,0.00000
 113,0.00000019,0.00000044,-0.00000678,0.00000030,0.00000369,0.00000064
 ,-0.00000174,0.00000060,0.00000128,0.00000026,-0.00000051,-0.00000031,
 0.00000107,0.00000014,-0.00000050,0.00000020,0.00000101,0.00000040,0.0
 0000072,-0.00000049,0.00000063,0.00000040,0.,0.00000024,-0.00000041,0.
 00000042,-0.00000024,0.00000001,0.00000126,0.00000967,0.00000340,0.000
 00320,0.00000458,-0.00000296,-0.00000246,0.00000007,-0.00000296,0.0000
 0093,-0.00000005,0.00000007,0.00000109,0.00000005,-0.00000083,0.000001
 03,0.00000004,0.00000079,-0.00000084,-0.00000174,0.00000271,0.00000194
 ,0.00000025,0.00000052,-0.00000167,-0.00000076,-0.00000173,-0.00001121
 ,-0.00000162,0.00000051,-0.00000223,-0.00000430,0.00000031,-0.00000049
 ,-0.00000018,-0.00000002,0.00000045,-0.00000031,-0.00000085,-0.0000004
 3\\\@


 Until you make peace with who you are,
 you'll never be content with what you have.
                           -- Doris Mortman
 Job cpu time:       0 days  0 hours  0 minutes 31.2 seconds.
 File lengths (MBytes):  RWF=   2529 Int=      0 D2E=      0 Chk=      7 Scr=      2
 Normal termination of Gaussian 09 at Mon Apr 18 12:50:04 2022.
