 Entering Gaussian System, Link 0=g09
 Input=/scratch/mverot/trans/trans.com
 Output=/scratch/mverot/trans/trans.log
 Initial command:
 /opt/g09/l1.exe "/scratch/mverot/trans/Gau-2843383.inp" -scrdir="/scratch/mverot/trans/"
 Entering Link 1 = /opt/g09/l1.exe PID=   2843385.
  
 Copyright (c) 1988,1990,1992,1993,1995,1998,2003,2009,2013,
            Gaussian, Inc.  All Rights Reserved.
  
 This is part of the Gaussian(R) 09 program.  It is based on
 the Gaussian(R) 03 system (copyright 2003, Gaussian, Inc.),
 the Gaussian(R) 98 system (copyright 1998, Gaussian, Inc.),
 the Gaussian(R) 94 system (copyright 1995, Gaussian, Inc.),
 the Gaussian 92(TM) system (copyright 1992, Gaussian, Inc.),
 the Gaussian 90(TM) system (copyright 1990, Gaussian, Inc.),
 the Gaussian 88(TM) system (copyright 1988, Gaussian, Inc.),
 the Gaussian 86(TM) system (copyright 1986, Carnegie Mellon
 University), and the Gaussian 82(TM) system (copyright 1983,
 Carnegie Mellon University). Gaussian is a federally registered
 trademark of Gaussian, Inc.
  
 This software contains proprietary and confidential information,
 including trade secrets, belonging to Gaussian, Inc.
  
 This software is provided under written license and may be
 used, copied, transmitted, or stored only in accord with that
 written license.
  
 The following legend is applicable only to US Government
 contracts under FAR:
  
                    RESTRICTED RIGHTS LEGEND
  
 Use, reproduction and disclosure by the US Government is
 subject to restrictions as set forth in subparagraphs (a)
 and (c) of the Commercial Computer Software - Restricted
 Rights clause in FAR 52.227-19.
  
 Gaussian, Inc.
 340 Quinnipiac St., Bldg. 40, Wallingford CT 06492
  
  
 ---------------------------------------------------------------
 Warning -- This program may not be used in any manner that
 competes with the business of Gaussian, Inc. or will provide
 assistance to any competitor of Gaussian, Inc.  The licensee
 of this program is prohibited from giving any competitor of
 Gaussian, Inc. access to this program.  By using this program,
 the user acknowledges that Gaussian, Inc. is engaged in the
 business of creating and licensing software in the field of
 computational chemistry and represents and warrants to the
 licensee that it is not a competitor of Gaussian, Inc. and that
 it will not use this program in any manner prohibited above.
 ---------------------------------------------------------------
  

 Cite this work as:
 Gaussian 09, Revision D.01,
 M. J. Frisch, G. W. Trucks, H. B. Schlegel, G. E. Scuseria, 
 M. A. Robb, J. R. Cheeseman, G. Scalmani, V. Barone, B. Mennucci, 
 G. A. Petersson, H. Nakatsuji, M. Caricato, X. Li, H. P. Hratchian, 
 A. F. Izmaylov, J. Bloino, G. Zheng, J. L. Sonnenberg, M. Hada, 
 M. Ehara, K. Toyota, R. Fukuda, J. Hasegawa, M. Ishida, T. Nakajima, 
 Y. Honda, O. Kitao, H. Nakai, T. Vreven, J. A. Montgomery, Jr., 
 J. E. Peralta, F. Ogliaro, M. Bearpark, J. J. Heyd, E. Brothers, 
 K. N. Kudin, V. N. Staroverov, T. Keith, R. Kobayashi, J. Normand, 
 K. Raghavachari, A. Rendell, J. C. Burant, S. S. Iyengar, J. Tomasi, 
 M. Cossi, N. Rega, J. M. Millam, M. Klene, J. E. Knox, J. B. Cross, 
 V. Bakken, C. Adamo, J. Jaramillo, R. Gomperts, R. E. Stratmann, 
 O. Yazyev, A. J. Austin, R. Cammi, C. Pomelli, J. W. Ochterski, 
 R. L. Martin, K. Morokuma, V. G. Zakrzewski, G. A. Voth, 
 P. Salvador, J. J. Dannenberg, S. Dapprich, A. D. Daniels, 
 O. Farkas, J. B. Foresman, J. V. Ortiz, J. Cioslowski, 
 and D. J. Fox, Gaussian, Inc., Wallingford CT, 2013.
 
 ******************************************
 Gaussian 09:  AM64L-G09RevD.01 24-Apr-2013
                12-Apr-2022 
 ******************************************
 %chk=trans
 ----------
 #n AM1 Opt
 ----------
 1/14=-1,18=20,19=15,26=1,38=1/1,3;
 2/9=110,12=2,17=6,18=5,40=1/2;
 3/5=2,16=1,25=1,41=700000,71=1/1,2,3;
 4/35=1/1;
 5/5=2,35=1,38=5/2;
 6/7=2,8=2,9=2,10=2,28=1/1;
 7//1,2,3,16;
 1/14=-1,18=20,19=15,26=1/3(2);
 2/9=110/2;
 99//99;
 2/9=110/2;
 3/5=2,16=1,25=1,41=700000,71=1,135=20/1,2,3;
 4/5=5,16=3,35=1/1;
 5/5=2,35=1,38=5/2;
 7//1,2,3,16;
 1/14=-1,18=20,19=15,26=1/3(-5);
 2/9=110/2;
 6/7=2,8=2,9=2,10=2,19=2,28=1/1;
 99/9=1/99;
 ---------------------
 Geometry optimization
 ---------------------
 Symbolic Z-matrix:
 Charge =  0 Multiplicity = 1
 C                     6.18863   1.6555   -0.41953 
 C                     6.69671   0.34848  -0.36059 
 C                     4.79021   1.77616  -0.43484 
 N                     7.07541   2.68158  -0.4564 
 C                     5.86472  -0.77771  -0.31909 
 C                     3.94451   0.65986  -0.39386 
 C                     4.48254  -0.62183  -0.33578 
 N                     6.4845    4.0318   -0.51773 
 C                     7.36576   5.06202  -0.55483 
 C                     9.06405   7.34474  -0.63888 
 C                     7.68128   7.49598  -0.6553 
 C                     9.60647   6.06491  -0.58092 
 C                     6.85296   6.36706  -0.61364 
 C                     8.76451   4.9459   -0.53978 
 H                     7.77672   0.22673  -0.34756 
 H                     4.36304   2.77527  -0.48018 
 H                     6.31153  -1.76246  -0.27422 
 H                     2.87341   0.81559  -0.40827 
 H                     3.83246  -1.48601  -0.30402 
 H                     9.71124   8.21109  -0.67077 
 H                     7.23128   8.4793   -0.70007 
 H                     10.67807   5.91271  -0.56672 
 H                     5.77255   6.48507  -0.62646 
 H                     9.19464   3.94805  -0.49454 
 

 GradGradGradGradGradGradGradGradGradGradGradGradGradGradGradGradGradGrad
 Berny optimization.
 Initialization pass.
                           ----------------------------
                           !    Initial Parameters    !
                           ! (Angstroms and Degrees)  !
 --------------------------                            --------------------------
 ! Name  Definition              Value          Derivative Info.                !
 --------------------------------------------------------------------------------
 ! R1    R(1,2)                  1.4035         estimate D2E/DX2                !
 ! R2    R(1,3)                  1.4037         estimate D2E/DX2                !
 ! R3    R(1,4)                  1.3567         estimate D2E/DX2                !
 ! R4    R(2,5)                  1.4008         estimate D2E/DX2                !
 ! R5    R(2,15)                 1.0869         estimate D2E/DX2                !
 ! R6    R(3,6)                  1.4011         estimate D2E/DX2                !
 ! R7    R(3,16)                 1.0875         estimate D2E/DX2                !
 ! R8    R(4,8)                  1.4751         estimate D2E/DX2                !
 ! R9    R(5,7)                  1.391          estimate D2E/DX2                !
 ! R10   R(5,17)                 1.0823         estimate D2E/DX2                !
 ! R11   R(6,7)                  1.3913         estimate D2E/DX2                !
 ! R12   R(6,18)                 1.0825         estimate D2E/DX2                !
 ! R13   R(7,19)                 1.0819         estimate D2E/DX2                !
 ! R14   R(8,9)                  1.3562         estimate D2E/DX2                !
 ! R15   R(9,13)                 1.4034         estimate D2E/DX2                !
 ! R16   R(9,14)                 1.4036         estimate D2E/DX2                !
 ! R17   R(10,11)                1.3911         estimate D2E/DX2                !
 ! R18   R(10,12)                1.3912         estimate D2E/DX2                !
 ! R19   R(10,20)                1.0819         estimate D2E/DX2                !
 ! R20   R(11,13)                1.4008         estimate D2E/DX2                !
 ! R21   R(11,21)                1.0823         estimate D2E/DX2                !
 ! R22   R(12,14)                1.401          estimate D2E/DX2                !
 ! R23   R(12,22)                1.0824         estimate D2E/DX2                !
 ! R24   R(13,23)                1.0869         estimate D2E/DX2                !
 ! R25   R(14,24)                1.0875         estimate D2E/DX2                !
 ! A1    A(2,1,3)              116.1768         estimate D2E/DX2                !
 ! A2    A(2,1,4)              117.9584         estimate D2E/DX2                !
 ! A3    A(3,1,4)              125.8647         estimate D2E/DX2                !
 ! A4    A(1,2,5)              122.3381         estimate D2E/DX2                !
 ! A5    A(1,2,15)             117.6784         estimate D2E/DX2                !
 ! A6    A(5,2,15)             119.9835         estimate D2E/DX2                !
 ! A7    A(1,3,6)              122.1766         estimate D2E/DX2                !
 ! A8    A(1,3,16)             118.0817         estimate D2E/DX2                !
 ! A9    A(6,3,16)             119.7416         estimate D2E/DX2                !
 ! A10   A(1,4,8)              115.567          estimate D2E/DX2                !
 ! A11   A(2,5,7)              119.9807         estimate D2E/DX2                !
 ! A12   A(2,5,17)             119.1782         estimate D2E/DX2                !
 ! A13   A(7,5,17)             120.841          estimate D2E/DX2                !
 ! A14   A(3,6,7)              120.1187         estimate D2E/DX2                !
 ! A15   A(3,6,18)             118.8331         estimate D2E/DX2                !
 ! A16   A(7,6,18)             121.0482         estimate D2E/DX2                !
 ! A17   A(5,7,6)              119.209          estimate D2E/DX2                !
 ! A18   A(5,7,19)             120.4774         estimate D2E/DX2                !
 ! A19   A(6,7,19)             120.3136         estimate D2E/DX2                !
 ! A20   A(4,8,9)              115.858          estimate D2E/DX2                !
 ! A21   A(8,9,13)             118.0405         estimate D2E/DX2                !
 ! A22   A(8,9,14)             125.7598         estimate D2E/DX2                !
 ! A23   A(13,9,14)            116.1997         estimate D2E/DX2                !
 ! A24   A(11,10,12)           119.2124         estimate D2E/DX2                !
 ! A25   A(11,10,20)           120.4788         estimate D2E/DX2                !
 ! A26   A(12,10,20)           120.3088         estimate D2E/DX2                !
 ! A27   A(10,11,13)           119.9865         estimate D2E/DX2                !
 ! A28   A(10,11,21)           120.8332         estimate D2E/DX2                !
 ! A29   A(13,11,21)           119.1803         estimate D2E/DX2                !
 ! A30   A(10,12,14)           120.1113         estimate D2E/DX2                !
 ! A31   A(10,12,22)           121.0556         estimate D2E/DX2                !
 ! A32   A(14,12,22)           118.8331         estimate D2E/DX2                !
 ! A33   A(9,13,11)            122.3164         estimate D2E/DX2                !
 ! A34   A(9,13,23)            117.6888         estimate D2E/DX2                !
 ! A35   A(11,13,23)           119.9948         estimate D2E/DX2                !
 ! A36   A(9,14,12)            122.1738         estimate D2E/DX2                !
 ! A37   A(9,14,24)            118.0652         estimate D2E/DX2                !
 ! A38   A(12,14,24)           119.7611         estimate D2E/DX2                !
 ! D1    D(3,1,2,5)              0.0007         estimate D2E/DX2                !
 ! D2    D(3,1,2,15)           179.9999         estimate D2E/DX2                !
 ! D3    D(4,1,2,5)           -180.0            estimate D2E/DX2                !
 ! D4    D(4,1,2,15)            -0.0007         estimate D2E/DX2                !
 ! D5    D(2,1,3,6)             -0.0007         estimate D2E/DX2                !
 ! D6    D(2,1,3,16)          -179.9999         estimate D2E/DX2                !
 ! D7    D(4,1,3,6)            179.9999         estimate D2E/DX2                !
 ! D8    D(4,1,3,16)             0.0008         estimate D2E/DX2                !
 ! D9    D(2,1,4,8)           -179.9982         estimate D2E/DX2                !
 ! D10   D(3,1,4,8)              0.0011         estimate D2E/DX2                !
 ! D11   D(1,2,5,7)             -0.0002         estimate D2E/DX2                !
 ! D12   D(1,2,5,17)           179.9997         estimate D2E/DX2                !
 ! D13   D(15,2,5,7)          -179.9994         estimate D2E/DX2                !
 ! D14   D(15,2,5,17)            0.0004         estimate D2E/DX2                !
 ! D15   D(1,3,6,7)              0.0004         estimate D2E/DX2                !
 ! D16   D(1,3,6,18)          -179.9995         estimate D2E/DX2                !
 ! D17   D(16,3,6,7)           179.9995         estimate D2E/DX2                !
 ! D18   D(16,3,6,18)           -0.0003         estimate D2E/DX2                !
 ! D19   D(1,4,8,9)           -179.9993         estimate D2E/DX2                !
 ! D20   D(2,5,7,6)             -0.0002         estimate D2E/DX2                !
 ! D21   D(2,5,7,19)          -180.0            estimate D2E/DX2                !
 ! D22   D(17,5,7,6)           179.9999         estimate D2E/DX2                !
 ! D23   D(17,5,7,19)            0.0002         estimate D2E/DX2                !
 ! D24   D(3,6,7,5)              0.0001         estimate D2E/DX2                !
 ! D25   D(3,6,7,19)           179.9999         estimate D2E/DX2                !
 ! D26   D(18,6,7,5)           180.0            estimate D2E/DX2                !
 ! D27   D(18,6,7,19)           -0.0003         estimate D2E/DX2                !
 ! D28   D(4,8,9,13)          -179.998          estimate D2E/DX2                !
 ! D29   D(4,8,9,14)             0.0017         estimate D2E/DX2                !
 ! D30   D(8,9,13,11)         -179.9995         estimate D2E/DX2                !
 ! D31   D(8,9,13,23)           -0.0002         estimate D2E/DX2                !
 ! D32   D(14,9,13,11)           0.0007         estimate D2E/DX2                !
 ! D33   D(14,9,13,23)        -180.0            estimate D2E/DX2                !
 ! D34   D(8,9,14,12)          179.9997         estimate D2E/DX2                !
 ! D35   D(8,9,14,24)            0.0004         estimate D2E/DX2                !
 ! D36   D(13,9,14,12)          -0.0006         estimate D2E/DX2                !
 ! D37   D(13,9,14,24)        -179.9998         estimate D2E/DX2                !
 ! D38   D(12,10,11,13)          0.0009         estimate D2E/DX2                !
 ! D39   D(12,10,11,21)        179.9998         estimate D2E/DX2                !
 ! D40   D(20,10,11,13)        179.9998         estimate D2E/DX2                !
 ! D41   D(20,10,11,21)         -0.0013         estimate D2E/DX2                !
 ! D42   D(11,10,12,14)         -0.0008         estimate D2E/DX2                !
 ! D43   D(11,10,12,22)        179.9999         estimate D2E/DX2                !
 ! D44   D(20,10,12,14)       -179.9997         estimate D2E/DX2                !
 ! D45   D(20,10,12,22)          0.0009         estimate D2E/DX2                !
 ! D46   D(10,11,13,9)          -0.0009         estimate D2E/DX2                !
 ! D47   D(10,11,13,23)        179.9998         estimate D2E/DX2                !
 ! D48   D(21,11,13,9)        -179.9998         estimate D2E/DX2                !
 ! D49   D(21,11,13,23)          0.0009         estimate D2E/DX2                !
 ! D50   D(10,12,14,9)           0.0006         estimate D2E/DX2                !
 ! D51   D(10,12,14,24)        179.9999         estimate D2E/DX2                !
 ! D52   D(22,12,14,9)        -180.0            estimate D2E/DX2                !
 ! D53   D(22,12,14,24)         -0.0007         estimate D2E/DX2                !
 --------------------------------------------------------------------------------
 Trust Radius=3.00D-01 FncErr=1.00D-07 GrdErr=1.00D-07
 Number of steps in this run=    126 maximum allowed number of steps=    144.
 GradGradGradGradGradGradGradGradGradGradGradGradGradGradGradGradGradGrad

                          Input orientation:                          
 ---------------------------------------------------------------------
 Center     Atomic      Atomic             Coordinates (Angstroms)
 Number     Number       Type             X           Y           Z
 ---------------------------------------------------------------------
      1          6           0        6.188630    1.655500   -0.419530
      2          6           0        6.696710    0.348480   -0.360590
      3          6           0        4.790210    1.776160   -0.434840
      4          7           0        7.075410    2.681580   -0.456400
      5          6           0        5.864720   -0.777710   -0.319090
      6          6           0        3.944510    0.659860   -0.393860
      7          6           0        4.482540   -0.621830   -0.335780
      8          7           0        6.484500    4.031800   -0.517730
      9          6           0        7.365760    5.062020   -0.554830
     10          6           0        9.064050    7.344740   -0.638880
     11          6           0        7.681280    7.495980   -0.655300
     12          6           0        9.606470    6.064910   -0.580920
     13          6           0        6.852960    6.367060   -0.613640
     14          6           0        8.764510    4.945900   -0.539780
     15          1           0        7.776720    0.226730   -0.347560
     16          1           0        4.363040    2.775270   -0.480180
     17          1           0        6.311530   -1.762460   -0.274220
     18          1           0        2.873410    0.815590   -0.408270
     19          1           0        3.832460   -1.486010   -0.304020
     20          1           0        9.711240    8.211090   -0.670770
     21          1           0        7.231280    8.479300   -0.700070
     22          1           0       10.678070    5.912710   -0.566720
     23          1           0        5.772550    6.485070   -0.626460
     24          1           0        9.194640    3.948050   -0.494540
 ---------------------------------------------------------------------
                    Distance matrix (angstroms):
                    1          2          3          4          5
     1  C    0.000000
     2  C    1.403539   0.000000
     3  C    1.403699   2.382966   0.000000
     4  N    1.356679   2.365576   2.458127   0.000000
     5  C    2.456729   1.400797   2.773125   3.667603   0.000000
     6  C    2.455205   2.769958   1.401076   3.727439   2.399876
     7  C    2.846751   2.417574   2.419676   4.201195   1.391042
     8  N    2.396661   3.692773   2.822304   1.475137   4.853346
     9  C    3.606705   4.764747   4.176689   2.400101   6.034164
    10  C    6.378370   7.391170   7.022565   5.072775   8.735684
    11  C    6.032810   7.221010   6.412740   4.856448   8.477433
    12  C    5.581270   6.418163   6.450665   4.227138   7.803249
    13  C    4.762122   6.025923   5.036196   3.695534   7.218803
    14  C    4.180472   5.044222   5.084616   2.826156   6.420062
    15  H    2.137427   1.086929   3.365649   2.555381   2.159966
    16  H    2.142508   3.368921   1.087543   2.714092   3.860655
    17  H    3.423254   2.147531   3.855132   4.512892   1.082305
    18  H    3.419979   3.852024   2.144184   4.597939   3.390353
    19  H    3.928608   3.401835   3.402374   5.282873   2.152207
    20  H    7.446319   8.426401   8.104352   6.129358   9.783554
    21  H    6.908695   8.155443   7.138715   5.804931   9.365088
    22  H    6.188746   6.845025   7.196897   4.840613   8.245688
    23  H    4.851875   6.211481   4.814098   4.024040   7.269866
    24  H    3.781205   4.383435   4.911178   2.469117   5.783767
                    6          7          8          9         10
     6  C    0.000000
     7  C    1.391251   0.000000
     8  N    4.223372   5.069243   0.000000
     9  C    5.577623   6.377075   1.356226   0.000000
    10  C    8.423618   9.195017   4.200515   2.846412   0.000000
    11  C    7.795148   8.731144   3.667663   2.456381   1.391113
    12  C    7.829901   8.427766   3.726154   2.455046   1.391238
    13  C    6.409330   7.385166   2.366094   1.403407   2.417729
    14  C    6.451653   7.026841   2.456524   1.403642   2.419500
    15  H    3.856887   3.401737   4.022107   4.857147   7.239348
    16  H    2.158142   3.402267   2.465942   3.775066   6.557800
    17  H    3.388913   2.156393   5.801954   6.911127   9.521052
    18  H    1.082458   2.158872   4.836937   6.183434   9.000389
    19  H    2.150671   1.081859   6.125783   7.444717  10.269557
    20  H    9.505416  10.269956   5.282209   3.928277   1.081866
    21  H    8.487654   9.514139   4.513445   3.423008   2.156390
    22  H    8.541847   9.007671   4.596330   3.419826   2.158930
    23  H    6.109739   7.228876   2.556800   2.137410   3.401935
    24  H    6.195659   6.566041   2.711533   2.142281   3.402263
                   11         12         13         14         15
    11  C    0.000000
    12  C    2.399969   0.000000
    13  C    1.400825   2.770231   0.000000
    14  C    2.773020   1.400990   2.383102   0.000000
    15  H    7.276387   6.122645   6.215125   4.825271   0.000000
    16  H    5.772910   6.190754   4.372467   4.907965   4.262142
    17  H    9.366971   8.498142   8.154597   7.147708   2.471647
    18  H    8.234334   8.539278   6.833580   7.195958   4.938916
    19  H    9.778188   9.509588   8.419620   8.108648   4.300298
    20  H    2.152292   2.150613   3.401981   3.402194   8.221730
    21  H    1.082323   3.388953   2.147593   3.855049   8.278084
    22  H    3.390478   1.082448   3.852285   2.144099   6.387193
    23  H    2.160097   3.857143   1.086911   3.365766   6.577332
    24  H    3.860558   2.158277   3.368866   1.087549   3.985012
                   16         17         18         19         20
    16  H    0.000000
    17  H    4.942674   0.000000
    18  H    2.462623   4.299416   0.000000
    19  H    4.297796   2.494614   2.495598   0.000000
    20  H    7.628087  10.544524  10.075626  11.345850   0.000000
    21  H    6.388357  10.291790   8.820920  10.536424   2.494593
    22  H    7.051994   8.835183   9.323007  10.083276   2.495624
    23  H    3.971238   8.272625   6.371469   8.210118   4.300510
    24  H    4.971919   6.400843   7.055331   7.636641   4.297842
                   21         22         23         24
    21  H    0.000000
    22  H    4.299480   0.000000
    23  H    2.471895   4.939159   0.000000
    24  H    4.942596   2.462857   4.261992   0.000000
 Stoichiometry    C12H10N2
 Framework group  C1[X(C12H10N2)]
 Deg. of freedom    66
 Full point group                 C1      NOp   1
 Largest Abelian subgroup         C1      NOp   1
 Largest concise Abelian subgroup C1      NOp   1
                         Standard orientation:                         
 ---------------------------------------------------------------------
 Center     Atomic      Atomic             Coordinates (Angstroms)
 Number     Number       Type             X           Y           Z
 ---------------------------------------------------------------------
      1          6           0        1.787407   -0.242155   -0.000001
      2          6           0        2.727690   -1.284167   -0.000042
      3          6           0        2.307807    1.061515    0.000033
      4          7           0        0.471624   -0.572750   -0.000011
      5          6           0        4.108362   -1.047566   -0.000035
      6          6           0        3.685796    1.314814    0.000042
      7          6           0        4.589976    0.257442    0.000009
      8          7           0       -0.470067    0.562701   -0.000007
      9          6           0       -1.787072    0.238901   -0.000002
     10          6           0       -4.590956   -0.251302    0.000003
     11          6           0       -4.104926    1.052144   -0.000031
     12          6           0       -3.690414   -1.311758    0.000044
     13          6           0       -2.723462    1.284236   -0.000042
     14          6           0       -2.311682   -1.063020    0.000035
     15          1           0        2.351319   -2.303853   -0.000067
     16          1           0        1.606462    1.892699    0.000067
     17          1           0        4.788044   -1.889836   -0.000063
     18          1           0        4.027784    2.341829    0.000077
     19          1           0        5.654668    0.449408    0.000014
     20          1           0       -5.656290   -0.439710    0.000015
     21          1           0       -4.781894    1.896618   -0.000066
     22          1           0       -4.035784   -2.337629    0.000073
     23          1           0       -2.343565    2.302595   -0.000071
     24          1           0       -1.612796   -1.896279    0.000069
 ---------------------------------------------------------------------
 Rotational constants (GHZ):      2.7607106      0.2829907      0.2566794
 Standard basis: VSTO-6G (5D, 7F)
 There are    66 symmetry adapted cartesian basis functions of A   symmetry.
 There are    66 symmetry adapted basis functions of A   symmetry.
    66 basis functions,   396 primitive gaussians,    66 cartesian basis functions
    34 alpha electrons       34 beta electrons
       nuclear repulsion energy       409.0078058245 Hartrees.
 Integral buffers will be    131072 words long.
 Regular integral format.
 Two-electron integral symmetry is turned off.
 Do NDO integrals.
 One-electron integrals computed using PRISM.
 NBasis=    66 RedAO= F EigKep=  0.00D+00  NBF=    66
 NBsUse=    66 1.00D-04 EigRej=  0.00D+00 NBFU=    66
 Simple Huckel Guess.
 Overlap will be assumed to be unity.
 Keep J ints in memory in canonical form, NReq=919528.
 Requested convergence on RMS density matrix=1.00D-08 within 128 cycles.
 Requested convergence on MAX density matrix=1.00D-06.
 Requested convergence on             energy=1.00D-06.
 No special actions if energy rises.
 SCF Done:  E(RAM1) =  0.238359094613     A.U. after   15 cycles
            NFock= 14  Conv=0.58D-08     -V/T= 1.0052

 **********************************************************************

            Population analysis using the SCF density.

 **********************************************************************

 Orbital symmetries:
       Occupied  (A) (A) (A) (A) (A) (A) (A) (A) (A) (A) (A) (A)
                 (A) (A) (A) (A) (A) (A) (A) (A) (A) (A) (A) (A)
                 (A) (A) (A) (A) (A) (A) (A) (A) (A) (A)
       Virtual   (A) (A) (A) (A) (A) (A) (A) (A) (A) (A) (A) (A)
                 (A) (A) (A) (A) (A) (A) (A) (A) (A) (A) (A) (A)
                 (A) (A) (A) (A) (A) (A) (A) (A)
 The electronic state is 1-A.
 Alpha  occ. eigenvalues --   -1.46594  -1.45543  -1.31771  -1.23278  -1.16076
 Alpha  occ. eigenvalues --   -1.16013  -1.08944  -0.99277  -0.87177  -0.86436
 Alpha  occ. eigenvalues --   -0.83004  -0.78279  -0.66669  -0.64797  -0.62661
 Alpha  occ. eigenvalues --   -0.59866  -0.58294  -0.56966  -0.53855  -0.53842
 Alpha  occ. eigenvalues --   -0.53020  -0.52467  -0.51999  -0.50860  -0.46796
 Alpha  occ. eigenvalues --   -0.45692  -0.44837  -0.44828  -0.44243  -0.38918
 Alpha  occ. eigenvalues --   -0.37926  -0.36177  -0.36142  -0.30510
 Alpha virt. eigenvalues --   -0.06675   0.01303   0.01343   0.01995   0.04902
 Alpha virt. eigenvalues --    0.08655   0.10205   0.10915   0.14041   0.14235
 Alpha virt. eigenvalues --    0.14420   0.14508   0.14566   0.14891   0.15647
 Alpha virt. eigenvalues --    0.15714   0.16139   0.16168   0.16279   0.17139
 Alpha virt. eigenvalues --    0.18241   0.18257   0.19050   0.19355   0.19673
 Alpha virt. eigenvalues --    0.19786   0.19967   0.20011   0.20465   0.21300
 Alpha virt. eigenvalues --    0.22350   0.23560
          Condensed to atoms (all electrons):
               1          2          3          4          5          6
     1  C    4.054139   0.000000   0.000000   0.000000   0.000000   0.000000
     2  C    0.000000   4.084867   0.000000   0.000000   0.000000   0.000000
     3  C    0.000000   0.000000   4.103551   0.000000   0.000000   0.000000
     4  N    0.000000   0.000000   0.000000   5.070622   0.000000   0.000000
     5  C    0.000000   0.000000   0.000000   0.000000   4.141849   0.000000
     6  C    0.000000   0.000000   0.000000   0.000000   0.000000   4.141017
     7  C    0.000000   0.000000   0.000000   0.000000   0.000000   0.000000
     8  N    0.000000   0.000000   0.000000   0.000000   0.000000   0.000000
     9  C    0.000000   0.000000   0.000000   0.000000   0.000000   0.000000
    10  C    0.000000   0.000000   0.000000   0.000000   0.000000   0.000000
    11  C    0.000000   0.000000   0.000000   0.000000   0.000000   0.000000
    12  C    0.000000   0.000000   0.000000   0.000000   0.000000   0.000000
    13  C    0.000000   0.000000   0.000000   0.000000   0.000000   0.000000
    14  C    0.000000   0.000000   0.000000   0.000000   0.000000   0.000000
    15  H    0.000000   0.000000   0.000000   0.000000   0.000000   0.000000
    16  H    0.000000   0.000000   0.000000   0.000000   0.000000   0.000000
    17  H    0.000000   0.000000   0.000000   0.000000   0.000000   0.000000
    18  H    0.000000   0.000000   0.000000   0.000000   0.000000   0.000000
    19  H    0.000000   0.000000   0.000000   0.000000   0.000000   0.000000
    20  H    0.000000   0.000000   0.000000   0.000000   0.000000   0.000000
    21  H    0.000000   0.000000   0.000000   0.000000   0.000000   0.000000
    22  H    0.000000   0.000000   0.000000   0.000000   0.000000   0.000000
    23  H    0.000000   0.000000   0.000000   0.000000   0.000000   0.000000
    24  H    0.000000   0.000000   0.000000   0.000000   0.000000   0.000000
               7          8          9         10         11         12
     1  C    0.000000   0.000000   0.000000   0.000000   0.000000   0.000000
     2  C    0.000000   0.000000   0.000000   0.000000   0.000000   0.000000
     3  C    0.000000   0.000000   0.000000   0.000000   0.000000   0.000000
     4  N    0.000000   0.000000   0.000000   0.000000   0.000000   0.000000
     5  C    0.000000   0.000000   0.000000   0.000000   0.000000   0.000000
     6  C    0.000000   0.000000   0.000000   0.000000   0.000000   0.000000
     7  C    4.099791   0.000000   0.000000   0.000000   0.000000   0.000000
     8  N    0.000000   5.072019   0.000000   0.000000   0.000000   0.000000
     9  C    0.000000   0.000000   4.053763   0.000000   0.000000   0.000000
    10  C    0.000000   0.000000   0.000000   4.099692   0.000000   0.000000
    11  C    0.000000   0.000000   0.000000   0.000000   4.141864   0.000000
    12  C    0.000000   0.000000   0.000000   0.000000   0.000000   4.140988
    13  C    0.000000   0.000000   0.000000   0.000000   0.000000   0.000000
    14  C    0.000000   0.000000   0.000000   0.000000   0.000000   0.000000
    15  H    0.000000   0.000000   0.000000   0.000000   0.000000   0.000000
    16  H    0.000000   0.000000   0.000000   0.000000   0.000000   0.000000
    17  H    0.000000   0.000000   0.000000   0.000000   0.000000   0.000000
    18  H    0.000000   0.000000   0.000000   0.000000   0.000000   0.000000
    19  H    0.000000   0.000000   0.000000   0.000000   0.000000   0.000000
    20  H    0.000000   0.000000   0.000000   0.000000   0.000000   0.000000
    21  H    0.000000   0.000000   0.000000   0.000000   0.000000   0.000000
    22  H    0.000000   0.000000   0.000000   0.000000   0.000000   0.000000
    23  H    0.000000   0.000000   0.000000   0.000000   0.000000   0.000000
    24  H    0.000000   0.000000   0.000000   0.000000   0.000000   0.000000
              13         14         15         16         17         18
     1  C    0.000000   0.000000   0.000000   0.000000   0.000000   0.000000
     2  C    0.000000   0.000000   0.000000   0.000000   0.000000   0.000000
     3  C    0.000000   0.000000   0.000000   0.000000   0.000000   0.000000
     4  N    0.000000   0.000000   0.000000   0.000000   0.000000   0.000000
     5  C    0.000000   0.000000   0.000000   0.000000   0.000000   0.000000
     6  C    0.000000   0.000000   0.000000   0.000000   0.000000   0.000000
     7  C    0.000000   0.000000   0.000000   0.000000   0.000000   0.000000
     8  N    0.000000   0.000000   0.000000   0.000000   0.000000   0.000000
     9  C    0.000000   0.000000   0.000000   0.000000   0.000000   0.000000
    10  C    0.000000   0.000000   0.000000   0.000000   0.000000   0.000000
    11  C    0.000000   0.000000   0.000000   0.000000   0.000000   0.000000
    12  C    0.000000   0.000000   0.000000   0.000000   0.000000   0.000000
    13  C    4.084519   0.000000   0.000000   0.000000   0.000000   0.000000
    14  C    0.000000   4.103882   0.000000   0.000000   0.000000   0.000000
    15  H    0.000000   0.000000   0.859892   0.000000   0.000000   0.000000
    16  H    0.000000   0.000000   0.000000   0.850030   0.000000   0.000000
    17  H    0.000000   0.000000   0.000000   0.000000   0.863282   0.000000
    18  H    0.000000   0.000000   0.000000   0.000000   0.000000   0.864209
    19  H    0.000000   0.000000   0.000000   0.000000   0.000000   0.000000
    20  H    0.000000   0.000000   0.000000   0.000000   0.000000   0.000000
    21  H    0.000000   0.000000   0.000000   0.000000   0.000000   0.000000
    22  H    0.000000   0.000000   0.000000   0.000000   0.000000   0.000000
    23  H    0.000000   0.000000   0.000000   0.000000   0.000000   0.000000
    24  H    0.000000   0.000000   0.000000   0.000000   0.000000   0.000000
              19         20         21         22         23         24
     1  C    0.000000   0.000000   0.000000   0.000000   0.000000   0.000000
     2  C    0.000000   0.000000   0.000000   0.000000   0.000000   0.000000
     3  C    0.000000   0.000000   0.000000   0.000000   0.000000   0.000000
     4  N    0.000000   0.000000   0.000000   0.000000   0.000000   0.000000
     5  C    0.000000   0.000000   0.000000   0.000000   0.000000   0.000000
     6  C    0.000000   0.000000   0.000000   0.000000   0.000000   0.000000
     7  C    0.000000   0.000000   0.000000   0.000000   0.000000   0.000000
     8  N    0.000000   0.000000   0.000000   0.000000   0.000000   0.000000
     9  C    0.000000   0.000000   0.000000   0.000000   0.000000   0.000000
    10  C    0.000000   0.000000   0.000000   0.000000   0.000000   0.000000
    11  C    0.000000   0.000000   0.000000   0.000000   0.000000   0.000000
    12  C    0.000000   0.000000   0.000000   0.000000   0.000000   0.000000
    13  C    0.000000   0.000000   0.000000   0.000000   0.000000   0.000000
    14  C    0.000000   0.000000   0.000000   0.000000   0.000000   0.000000
    15  H    0.000000   0.000000   0.000000   0.000000   0.000000   0.000000
    16  H    0.000000   0.000000   0.000000   0.000000   0.000000   0.000000
    17  H    0.000000   0.000000   0.000000   0.000000   0.000000   0.000000
    18  H    0.000000   0.000000   0.000000   0.000000   0.000000   0.000000
    19  H    0.866361   0.000000   0.000000   0.000000   0.000000   0.000000
    20  H    0.000000   0.866329   0.000000   0.000000   0.000000   0.000000
    21  H    0.000000   0.000000   0.863247   0.000000   0.000000   0.000000
    22  H    0.000000   0.000000   0.000000   0.864187   0.000000   0.000000
    23  H    0.000000   0.000000   0.000000   0.000000   0.859834   0.000000
    24  H    0.000000   0.000000   0.000000   0.000000   0.000000   0.850063
 Mulliken charges:
               1
     1  C   -0.054139
     2  C   -0.084867
     3  C   -0.103551
     4  N   -0.070622
     5  C   -0.141849
     6  C   -0.141017
     7  C   -0.099791
     8  N   -0.072019
     9  C   -0.053763
    10  C   -0.099692
    11  C   -0.141864
    12  C   -0.140988
    13  C   -0.084519
    14  C   -0.103882
    15  H    0.140108
    16  H    0.149970
    17  H    0.136718
    18  H    0.135791
    19  H    0.133639
    20  H    0.133671
    21  H    0.136753
    22  H    0.135813
    23  H    0.140166
    24  H    0.149937
 Sum of Mulliken charges =  -0.00000
 Mulliken charges with hydrogens summed into heavy atoms:
               1
     1  C   -0.054139
     2  C    0.055240
     3  C    0.046419
     4  N   -0.070622
     5  C   -0.005130
     6  C   -0.005226
     7  C    0.033848
     8  N   -0.072019
     9  C   -0.053763
    10  C    0.033979
    11  C   -0.005111
    12  C   -0.005175
    13  C    0.055646
    14  C    0.046054
 Charge=              0.0000 electrons
 Dipole moment (field-independent basis, Debye):
    X=             -0.0090    Y=              0.0068    Z=              0.0000  Tot=              0.0113
 N-N= 4.090078058245D+02 E-N=-7.237848711795D+02  KE=-4.547893744872D+01
 Calling FoFJK, ICntrl=      2127 FMM=F ISym2X=0 I1Cent= 0 IOpClX= 0 NMat=1 NMatS=1 NMatT=0.
 ***** Axes restored to original set *****
 -------------------------------------------------------------------
 Center     Atomic                   Forces (Hartrees/Bohr)
 Number     Number              X              Y              Z
 -------------------------------------------------------------------
      1        6          -0.028036127   -0.022823257    0.000761571
      2        6           0.001615798   -0.029255900    0.001246520
      3        6          -0.025518246   -0.009646822    0.000219629
      4        7          -0.055261963    0.233152440   -0.010249907
      5        6           0.008330452    0.021812827   -0.000860823
      6        6           0.017291437    0.012581970   -0.000405276
      7        6           0.003335685    0.007245165   -0.000281105
      8        7           0.054714844   -0.232859966    0.010233321
      9        6           0.028467486    0.022397962   -0.000737567
     10        6          -0.003388590   -0.007221360    0.000278220
     11        6          -0.008199096   -0.021820406    0.000863929
     12        6          -0.017181044   -0.012627651    0.000409997
     13        6          -0.001757150    0.029265676   -0.001249938
     14        6           0.025633849    0.009767706   -0.000227835
     15        1           0.011763793   -0.006268325    0.000351175
     16        1          -0.010285421    0.007862875   -0.000407003
     17        1           0.004626290   -0.011282819    0.000510584
     18        1          -0.012283696    0.000568355   -0.000113660
     19        1          -0.007669509   -0.010475350    0.000386373
     20        1           0.007623280    0.010504654   -0.000387760
     21        1          -0.004665168    0.011252889   -0.000509319
     22        1           0.012299145   -0.000513092    0.000110649
     23        1          -0.011785673    0.006216202   -0.000347644
     24        1           0.010329624   -0.007833773    0.000405871
 -------------------------------------------------------------------
 Cartesian Forces:  Max     0.233152440 RMS     0.041572940

 GradGradGradGradGradGradGradGradGradGradGradGradGradGradGradGradGradGrad
 Berny optimization.
 FormGI is forming the generalized inverse of G from B-inverse, IUseBI=4.
 GSVD:  received Info=                   1 from GESDD.
 Internal  Forces:  Max     0.214345266 RMS     0.022425929
 Search for a local minimum.
 Step number   1 out of a maximum of  126
 All quantities printed in internal units (Hartrees-Bohrs-Radians)
 Mixed Optimization -- RFO/linear search
 Second derivative matrix not updated -- first step.
 ITU=  0
     Eigenvalues ---    0.00301   0.02046   0.02047   0.02058   0.02059
     Eigenvalues ---    0.02062   0.02062   0.02087   0.02089   0.02094
     Eigenvalues ---    0.02094   0.02136   0.02136   0.02148   0.02148
     Eigenvalues ---    0.02178   0.02178   0.02205   0.02206   0.02265
     Eigenvalues ---    0.02271   0.16000   0.16000   0.16000   0.16000
     Eigenvalues ---    0.16000   0.16000   0.16000   0.16000   0.16000
     Eigenvalues ---    0.16000   0.22000   0.22000   0.22000   0.22000
     Eigenvalues ---    0.23458   0.23458   0.25000   0.25000   0.25000
     Eigenvalues ---    0.25000   0.35097   0.35098   0.35132   0.35170
     Eigenvalues ---    0.35172   0.35699   0.35700   0.35715   0.35717
     Eigenvalues ---    0.35770   0.35771   0.41238   0.41244   0.41965
     Eigenvalues ---    0.41972   0.45126   0.45139   0.45466   0.45471
     Eigenvalues ---    0.46278   0.46280   0.46888   0.46892   0.53624
     Eigenvalues ---    0.53718
 RFO step:  Lambda=-1.19710840D-01 EMin= 3.00882483D-03
 Linear search not attempted -- first point.
 Maximum step size (   0.300) exceeded in Quadratic search.
    -- Step size scaled by   0.601
 Iteration  1 RMS(Cart)=  0.03829860 RMS(Int)=  0.00688979
 Iteration  2 RMS(Cart)=  0.01325590 RMS(Int)=  0.00001845
 Iteration  3 RMS(Cart)=  0.00004414 RMS(Int)=  0.00000794
 Iteration  4 RMS(Cart)=  0.00000000 RMS(Int)=  0.00000794
 Variable       Old X    -DE/DX   Delta X   Delta X   Delta X     New X
                                 (Linear)    (Quad)   (Total)
    R1        2.65230   0.02813   0.00000   0.03048   0.03047   2.68277
    R2        2.65261   0.02781   0.00000   0.03018   0.03017   2.68277
    R3        2.56375   0.05412   0.00000   0.04962   0.04962   2.61338
    R4        2.64712  -0.01324   0.00000  -0.01387  -0.01387   2.63326
    R5        2.05400   0.01240   0.00000   0.01581   0.01581   2.06981
    R6        2.64765  -0.01135   0.00000  -0.01186  -0.01186   2.63579
    R7        2.05516   0.01128   0.00000   0.01441   0.01441   2.06957
    R8        2.78761  -0.21435   0.00000  -0.27368  -0.27368   2.51392
    R9        2.62869   0.00793   0.00000   0.00726   0.00727   2.63596
   R10        2.04526   0.01220   0.00000   0.01538   0.01538   2.06064
   R11        2.62908   0.00620   0.00000   0.00553   0.00554   2.63462
   R12        2.04555   0.01224   0.00000   0.01544   0.01544   2.06099
   R13        2.04442   0.01299   0.00000   0.01636   0.01636   2.06078
   R14        2.56290   0.05425   0.00000   0.04967   0.04967   2.61256
   R15        2.65206   0.02816   0.00000   0.03050   0.03049   2.68254
   R16        2.65250   0.02803   0.00000   0.03041   0.03040   2.68290
   R17        2.62882   0.00786   0.00000   0.00719   0.00720   2.63602
   R18        2.62906   0.00625   0.00000   0.00557   0.00559   2.63465
   R19        2.04443   0.01298   0.00000   0.01636   0.01636   2.06079
   R20        2.64718  -0.01323   0.00000  -0.01387  -0.01387   2.63330
   R21        2.04529   0.01218   0.00000   0.01537   0.01537   2.06066
   R22        2.64749  -0.01126   0.00000  -0.01176  -0.01176   2.63572
   R23        2.04553   0.01225   0.00000   0.01545   0.01545   2.06098
   R24        2.05396   0.01239   0.00000   0.01581   0.01581   2.06978
   R25        2.05517   0.01129   0.00000   0.01443   0.01443   2.06960
    A1        2.02767   0.00120   0.00000   0.00469   0.00466   2.03233
    A2        2.05876  -0.00823   0.00000  -0.01475  -0.01474   2.04402
    A3        2.19675   0.00703   0.00000   0.01007   0.01008   2.20683
    A4        2.13520  -0.00631   0.00000  -0.00975  -0.00976   2.12544
    A5        2.05388   0.00820   0.00000   0.01573   0.01573   2.06961
    A6        2.09411  -0.00189   0.00000  -0.00598  -0.00598   2.08813
    A7        2.13238  -0.00607   0.00000  -0.00922  -0.00923   2.12316
    A8        2.06092   0.00958   0.00000   0.01867   0.01868   2.07960
    A9        2.08989  -0.00351   0.00000  -0.00946  -0.00945   2.08043
   A10        2.01702   0.01034   0.00000   0.01681   0.01681   2.03384
   A11        2.09406   0.00317   0.00000   0.00419   0.00420   2.09826
   A12        2.08005  -0.00113   0.00000  -0.00111  -0.00111   2.07894
   A13        2.10907  -0.00204   0.00000  -0.00308  -0.00309   2.10598
   A14        2.09647   0.00258   0.00000   0.00326   0.00327   2.09974
   A15        2.07403  -0.00006   0.00000   0.00102   0.00102   2.07505
   A16        2.11269  -0.00252   0.00000  -0.00428  -0.00429   2.10840
   A17        2.08059   0.00543   0.00000   0.00683   0.00685   2.08744
   A18        2.10273  -0.00289   0.00000  -0.00378  -0.00380   2.09893
   A19        2.09987  -0.00254   0.00000  -0.00304  -0.00306   2.09681
   A20        2.02210   0.00862   0.00000   0.01402   0.01402   2.03612
   A21        2.06020  -0.00846   0.00000  -0.01514  -0.01513   2.04506
   A22        2.19492   0.00733   0.00000   0.01055   0.01056   2.20548
   A23        2.02807   0.00113   0.00000   0.00460   0.00457   2.03264
   A24        2.08065   0.00546   0.00000   0.00685   0.00688   2.08753
   A25        2.10275  -0.00291   0.00000  -0.00382  -0.00383   2.09892
   A26        2.09978  -0.00255   0.00000  -0.00303  -0.00304   2.09674
   A27        2.09416   0.00319   0.00000   0.00421   0.00422   2.09838
   A28        2.10894  -0.00205   0.00000  -0.00307  -0.00308   2.10586
   A29        2.08009  -0.00115   0.00000  -0.00113  -0.00114   2.07895
   A30        2.09634   0.00257   0.00000   0.00325   0.00326   2.09960
   A31        2.11282  -0.00254   0.00000  -0.00431  -0.00432   2.10850
   A32        2.07403  -0.00003   0.00000   0.00106   0.00106   2.07509
   A33        2.13482  -0.00626   0.00000  -0.00967  -0.00968   2.12514
   A34        2.05406   0.00817   0.00000   0.01566   0.01567   2.06973
   A35        2.09430  -0.00191   0.00000  -0.00599  -0.00599   2.08832
   A36        2.13233  -0.00609   0.00000  -0.00923  -0.00925   2.12309
   A37        2.06063   0.00961   0.00000   0.01873   0.01873   2.07936
   A38        2.09022  -0.00351   0.00000  -0.00949  -0.00948   2.08074
    D1        0.00001  -0.00000   0.00000  -0.00000  -0.00000   0.00001
    D2        3.14159  -0.00000   0.00000  -0.00000  -0.00000   3.14159
    D3       -3.14159   0.00000   0.00000   0.00000   0.00000  -3.14159
    D4       -0.00001   0.00000   0.00000   0.00000   0.00000  -0.00001
    D5       -0.00001   0.00000   0.00000   0.00000   0.00000  -0.00001
    D6       -3.14159   0.00000   0.00000   0.00000   0.00000  -3.14159
    D7        3.14159  -0.00000   0.00000  -0.00000  -0.00000   3.14159
    D8        0.00001  -0.00000   0.00000  -0.00000  -0.00000   0.00001
    D9       -3.14156  -0.00000   0.00000  -0.00000  -0.00000  -3.14156
   D10        0.00002   0.00000   0.00000   0.00000   0.00000   0.00002
   D11       -0.00000   0.00000   0.00000   0.00000   0.00000  -0.00000
   D12        3.14159   0.00000   0.00000   0.00000   0.00000   3.14159
   D13       -3.14158  -0.00000   0.00000  -0.00000  -0.00000  -3.14158
   D14        0.00001  -0.00000   0.00000  -0.00000  -0.00000   0.00001
   D15        0.00001  -0.00000   0.00000  -0.00000  -0.00000   0.00001
   D16       -3.14158  -0.00000   0.00000  -0.00000  -0.00000  -3.14158
   D17        3.14158   0.00000   0.00000   0.00000   0.00000   3.14158
   D18       -0.00001   0.00000   0.00000   0.00000   0.00000  -0.00001
   D19       -3.14158  -0.00000   0.00000  -0.00000  -0.00000  -3.14158
   D20       -0.00000   0.00000   0.00000   0.00000   0.00000  -0.00000
   D21       -3.14159  -0.00000   0.00000   0.00000   0.00000  -3.14159
   D22        3.14159   0.00000   0.00000   0.00000   0.00000   3.14159
   D23        0.00000  -0.00000   0.00000  -0.00000  -0.00000   0.00000
   D24        0.00000  -0.00000   0.00000  -0.00000  -0.00000   0.00000
   D25        3.14159   0.00000   0.00000   0.00000   0.00000   3.14159
   D26        3.14159  -0.00000   0.00000  -0.00000  -0.00000   3.14159
   D27       -0.00000   0.00000   0.00000   0.00000   0.00000  -0.00000
   D28       -3.14156  -0.00000   0.00000  -0.00000  -0.00000  -3.14156
   D29        0.00003   0.00000   0.00000   0.00000   0.00000   0.00003
   D30       -3.14158  -0.00000   0.00000  -0.00000  -0.00000  -3.14158
   D31       -0.00000   0.00000   0.00000   0.00000   0.00000  -0.00000
   D32        0.00001  -0.00000   0.00000  -0.00000  -0.00000   0.00001
   D33       -3.14159  -0.00000   0.00000  -0.00000  -0.00000  -3.14159
   D34        3.14159   0.00000   0.00000   0.00000   0.00000   3.14159
   D35        0.00001  -0.00000   0.00000  -0.00000  -0.00000   0.00001
   D36       -0.00001   0.00000   0.00000   0.00000   0.00000  -0.00001
   D37       -3.14159   0.00000   0.00000  -0.00000  -0.00000  -3.14159
   D38        0.00002  -0.00000   0.00000  -0.00000  -0.00000   0.00001
   D39        3.14159   0.00000   0.00000   0.00000   0.00000   3.14159
   D40        3.14159   0.00000   0.00000   0.00000   0.00000   3.14159
   D41       -0.00002   0.00000   0.00000   0.00000   0.00000  -0.00002
   D42       -0.00001   0.00000   0.00000   0.00000   0.00000  -0.00001
   D43        3.14159   0.00000   0.00000   0.00000   0.00000   3.14159
   D44       -3.14159  -0.00000   0.00000  -0.00000  -0.00000  -3.14159
   D45        0.00002  -0.00000   0.00000  -0.00000  -0.00000   0.00001
   D46       -0.00002   0.00000   0.00000   0.00000   0.00000  -0.00001
   D47        3.14159   0.00000   0.00000   0.00000   0.00000   3.14159
   D48       -3.14159   0.00000   0.00000   0.00000   0.00000  -3.14159
   D49        0.00002  -0.00000   0.00000  -0.00000  -0.00000   0.00001
   D50        0.00001  -0.00000   0.00000  -0.00000  -0.00000   0.00001
   D51        3.14159  -0.00000   0.00000  -0.00000  -0.00000   3.14159
   D52       -3.14159  -0.00000   0.00000  -0.00000  -0.00000   3.14159
   D53       -0.00001   0.00000   0.00000   0.00000   0.00000  -0.00001
         Item               Value     Threshold  Converged?
 Maximum Force            0.214345     0.000450     NO 
 RMS     Force            0.022426     0.000300     NO 
 Maximum Displacement     0.194422     0.001800     NO 
 RMS     Displacement     0.044436     0.001200     NO 
 Predicted change in Energy=-5.573435D-02
 GradGradGradGradGradGradGradGradGradGradGradGradGradGradGradGradGradGrad

                          Input orientation:                          
 ---------------------------------------------------------------------
 Center     Atomic      Atomic             Coordinates (Angstroms)
 Number     Number       Type             X           Y           Z
 ---------------------------------------------------------------------
      1          6           0        6.144524    1.693886   -0.421474
      2          6           0        6.689807    0.384463   -0.362162
      3          6           0        4.728112    1.788827   -0.435828
      4          7           0        7.038933    2.747978   -0.459473
      5          6           0        5.878015   -0.747335   -0.320276
      6          6           0        3.918100    0.654112   -0.393808
      7          6           0        4.489380   -0.616336   -0.335960
      8          7           0        6.515484    3.969721   -0.514885
      9          6           0        7.407204    5.025520   -0.552988
     10          6           0        9.059885    7.337199   -0.638591
     11          6           0        7.671077    7.466735   -0.654139
     12          6           0        9.632623    6.067391   -0.580833
     13          6           0        6.860337    6.334156   -0.612198
     14          6           0        8.823769    4.931893   -0.538758
     15          1           0        7.779092    0.270567   -0.349396
     16          1           0        4.260156    2.777954   -0.481043
     17          1           0        6.343200   -1.732549   -0.275253
     18          1           0        2.834755    0.779250   -0.407014
     19          1           0        3.853481   -1.501655   -0.303203
     20          1           0        9.694837    8.223200   -0.671398
     21          1           0        7.204968    8.451526   -0.699088
     22          1           0       10.716097    5.943382   -0.567736
     23          1           0        5.770942    6.446825   -0.624858
     24          1           0        9.292419    3.943078   -0.493619
 ---------------------------------------------------------------------
                    Distance matrix (angstroms):
                    1          2          3          4          5
     1  C    0.000000
     2  C    1.419662   0.000000
     3  C    1.419663   2.413693   0.000000
     4  N    1.382939   2.391143   2.502084   0.000000
     5  C    2.457809   1.393459   2.787068   3.685691   0.000000
     6  C    2.457409   2.784973   1.394799   3.758748   2.410545
     7  C    2.843228   2.417471   2.419045   4.223043   1.394888
     8  N    2.307761   3.592741   2.820859   1.330310   4.763911
     9  C    3.565311   4.700052   4.203265   2.309018   5.976489
    10  C    6.355584   7.350798   7.042003   5.017697   8.693981
    11  C    5.975808   7.155887   6.399011   4.764889   8.414124
    12  C    5.596407   6.403409   6.510097   4.214316   7.784951
    13  C    4.699029   5.957386   5.023694   3.593869   7.155256
    14  C    4.204378   5.026341   5.163706   2.821597   6.401471
    15  H    2.168604   1.095297   3.408968   2.587956   2.156633
    16  H    2.174763   3.412644   1.095171   2.779022   3.882135
    17  H    3.435303   2.146958   3.877420   4.537962   1.090445
    18  H    3.433852   3.875474   2.145898   4.642602   3.405791
    19  H    3.933745   3.406708   3.407322   5.313276   2.160561
    20  H    7.436338   8.400692   8.131728   6.089072   9.755097
    21  H    6.845971   8.090514   7.113064   5.710993   9.301793
    22  H    6.243307   6.866938   7.289285   4.872767   8.260385
    23  H    4.771935   6.137228   4.777046   3.913646   7.201401
    24  H    3.869536   4.410738   5.047478   2.551005   5.804151
                    6          7          8          9         10
     6  C    0.000000
     7  C    1.394183   0.000000
     8  N    4.213588   5.016875   0.000000
     9  C    5.595390   6.355419   1.382508   0.000000
    10  C    8.435729   9.178226   4.222463   2.842982   0.000000
    11  C    7.782316   8.692553   3.685634   2.457517   1.394923
    12  C    7.873648   8.437128   3.757809   2.457389   1.394194
    13  C    6.400574   7.348952   2.391432   1.419541   2.417603
    14  C    6.510454   7.043501   2.500905   1.419727   2.418929
    15  H    3.880250   3.407196   3.912522   4.773817   7.187583
    16  H    2.152979   3.405114   2.551069   3.867898   6.621853
    17  H    3.404602   2.164778   5.709902   6.846951   9.474847
    18  H    1.090628   2.165755   4.872217   6.241747   9.045030
    19  H    2.158638   1.090517   6.088269   7.436084  10.263745
    20  H    9.525694  10.263855   5.312708   3.933503   1.090522
    21  H    8.467371   9.472720   4.538271   3.435078   2.164741
    22  H    8.615067   9.047410   4.641474   3.433869   2.165822
    23  H    6.086209   7.184297   2.588915   2.168554   3.407360
    24  H    6.301632   6.624372   2.777145   2.174682   3.405165
                   11         12         13         14         15
    11  C    0.000000
    12  C    2.410643   0.000000
    13  C    1.393483   2.785268   0.000000
    14  C    2.787012   1.394765   2.413877   0.000000
    15  H    7.203427   6.090345   6.138427   4.780708   0.000000
    16  H    5.800776   6.300297   4.407347   5.046716   4.322873
    17  H    9.302345   8.470699   8.090283   7.115999   2.465716
    18  H    8.256726   8.614270   6.863263   7.289039   4.970769
    19  H    9.753420   9.527120   8.398606   8.133252   4.307357
    20  H    2.160589   2.158607   3.406814   3.407206   8.186460
    21  H    1.090455   3.404643   2.146993   3.877375   8.208532
    22  H    3.405909   1.090626   3.875766   2.145892   6.391752
    23  H    2.156753   3.880527   1.095279   3.409133   6.500362
    24  H    3.882097   2.153149   3.412673   1.095183   3.974707
                   16         17         18         19         20
    16  H    0.000000
    17  H    4.972530   0.000000
    18  H    2.456027   4.316907   0.000000
    19  H    4.302565   2.500558   2.500222   0.000000
    20  H    7.695628  10.512247  10.126352  11.350322   0.000000
    21  H    6.396005  10.229255   8.834471  10.509758   2.500470
    22  H    7.190731   8.838986   9.423886  10.128871   2.500258
    23  H    3.970362   8.206818   6.386709   8.182815   4.307508
    24  H    5.165398   6.399868   7.191573   7.698274   4.302673
                   21         22         23         24
    21  H    0.000000
    22  H    4.316951   0.000000
    23  H    2.465921   4.971043   0.000000
    24  H    4.972502   2.456332   4.322820   0.000000
 Stoichiometry    C12H10N2
 Framework group  C1[X(C12H10N2)]
 Deg. of freedom    66
 Full point group                 C1      NOp   1
 Largest Abelian subgroup         C1      NOp   1
 Largest concise Abelian subgroup C1      NOp   1
                         Standard orientation:                         
 ---------------------------------------------------------------------
 Center     Atomic      Atomic             Coordinates (Angstroms)
 Number     Number       Type             X           Y           Z
 ---------------------------------------------------------------------
      1          6           0        1.771308   -0.201151   -0.000000
      2          6           0        2.687710   -1.285424   -0.000040
      3          6           0        2.334043    1.102218    0.000033
      4          7           0        0.424302   -0.514355   -0.000008
      5          6           0        4.066132   -1.081269   -0.000035
      6          6           0        3.714249    1.303454    0.000040
      7          6           0        4.584079    0.213894    0.000007
      8          7           0       -0.424028    0.510370   -0.000005
      9          6           0       -1.771325    0.200338   -0.000001
     10          6           0       -4.584268   -0.211848    0.000002
     11          6           0       -4.064938    1.082797   -0.000032
     12          6           0       -3.715677   -1.302411    0.000042
     13          6           0       -2.686300    1.285658   -0.000041
     14          6           0       -2.335303   -1.102564    0.000035
     15          1           0        2.291331   -2.306482   -0.000066
     16          1           0        1.667415    1.971129    0.000067
     17          1           0        4.730543   -1.945924   -0.000063
     18          1           0        4.097906    2.324374    0.000074
     19          1           0        5.662722    0.374385    0.000011
     20          1           0       -5.663086   -0.371185    0.000012
     21          1           0       -4.728548    1.948079   -0.000066
     22          1           0       -4.100400   -2.322927    0.000070
     23          1           0       -2.288778    2.306251   -0.000070
     24          1           0       -1.669272   -1.971948    0.000069
 ---------------------------------------------------------------------
 Rotational constants (GHZ):      2.7400903      0.2844844      0.2577264
 Standard basis: VSTO-6G (5D, 7F)
 There are    66 symmetry adapted cartesian basis functions of A   symmetry.
 There are    66 symmetry adapted basis functions of A   symmetry.
    66 basis functions,   396 primitive gaussians,    66 cartesian basis functions
    34 alpha electrons       34 beta electrons
       nuclear repulsion energy       409.1785237418 Hartrees.
 Integral buffers will be    131072 words long.
 Regular integral format.
 Two-electron integral symmetry is turned off.
 Do NDO integrals.
 One-electron integrals computed using PRISM.
 NBasis=    66 RedAO= F EigKep=  0.00D+00  NBF=    66
 NBsUse=    66 1.00D-04 EigRej=  0.00D+00 NBFU=    66
 Initial guess from the checkpoint file:  "trans.chk"
 B after Tr=    -0.000000    0.000000   -0.000000
         Rot=    0.999995   -0.000000   -0.000000    0.003028 Ang=  -0.35 deg.
 Overlap will be assumed to be unity.
 Keep J ints in memory in canonical form, NReq=919528.
 Requested convergence on RMS density matrix=1.00D-08 within 128 cycles.
 Requested convergence on MAX density matrix=1.00D-06.
 Requested convergence on             energy=1.00D-06.
 No special actions if energy rises.
 SCF Done:  E(RAM1) =  0.178850649534     A.U. after   13 cycles
            NFock= 12  Conv=0.75D-08     -V/T= 1.0039
 Calling FoFJK, ICntrl=      2127 FMM=F ISym2X=0 I1Cent= 0 IOpClX= 0 NMat=1 NMatS=1 NMatT=0.
 ***** Axes restored to original set *****
 -------------------------------------------------------------------
 Center     Atomic                   Forces (Hartrees/Bohr)
 Number     Number              X              Y              Z
 -------------------------------------------------------------------
      1        6          -0.030147055   -0.038715972    0.001417395
      2        6          -0.000305579   -0.001578794    0.000063277
      3        6           0.001603195   -0.002805913    0.000128911
      4        7          -0.040493886    0.146383841   -0.006477895
      5        6          -0.000250637    0.012237975   -0.000518974
      6        6           0.011307869    0.004182152   -0.000094151
      7        6           0.002753188    0.004610193   -0.000174133
      8        7           0.040009249   -0.146395029    0.006474190
      9        6           0.030551447    0.038561875   -0.001405055
     10        6          -0.002789102   -0.004601826    0.000172182
     11        6           0.000296753   -0.012214172    0.000519743
     12        6          -0.011299771   -0.004208663    0.000097012
     13        6           0.000303808    0.001602416   -0.000066889
     14        6          -0.001546179    0.002909551   -0.000135315
     15        1           0.005168658   -0.002626439    0.000149083
     16        1          -0.004329631    0.003494590   -0.000178924
     17        1           0.001967957   -0.006317718    0.000281362
     18        1          -0.006631429   -0.000570575   -0.000024235
     19        1          -0.003700626   -0.005427841    0.000202151
     20        1           0.003689274    0.005434220   -0.000202234
     21        1          -0.001978046    0.006308873   -0.000281100
     22        1           0.006632005    0.000586115    0.000023156
     23        1          -0.005174877    0.002619442   -0.000147889
     24        1           0.004363417   -0.003468301    0.000178331
 -------------------------------------------------------------------
 Cartesian Forces:  Max     0.146395029 RMS     0.026895679

 GradGradGradGradGradGradGradGradGradGradGradGradGradGradGradGradGradGrad
 Berny optimization.
 Using GEDIIS/GDIIS optimizer.
 FormGI is forming the generalized inverse of G from B-inverse, IUseBI=4.
 GSVD:  received Info=                   1 from GESDD.
 Internal  Forces:  Max     0.128684165 RMS     0.013487293
 Search for a local minimum.
 Step number   2 out of a maximum of  126
 All quantities printed in internal units (Hartrees-Bohrs-Radians)
 Mixed Optimization -- RFO/linear search
 Update second derivatives using D2CorX and points    1    2
 DE= -5.95D-02 DEPred=-5.57D-02 R= 1.07D+00
 TightC=F SS=  1.41D+00  RLast= 3.00D-01 DXNew= 5.0454D-01 9.0000D-01
 Trust test= 1.07D+00 RLast= 3.00D-01 DXMaxT set to 5.05D-01
 ITU=  1  0
 Use linear search instead of GDIIS.
     Eigenvalues ---    0.00301   0.02046   0.02047   0.02058   0.02059
     Eigenvalues ---    0.02061   0.02062   0.02087   0.02089   0.02094
     Eigenvalues ---    0.02095   0.02136   0.02136   0.02148   0.02148
     Eigenvalues ---    0.02178   0.02178   0.02205   0.02206   0.02265
     Eigenvalues ---    0.02271   0.15974   0.16000   0.16000   0.16000
     Eigenvalues ---    0.16000   0.16000   0.16000   0.16000   0.16000
     Eigenvalues ---    0.16111   0.21391   0.22000   0.22000   0.22000
     Eigenvalues ---    0.22156   0.23451   0.23623   0.25000   0.25000
     Eigenvalues ---    0.25064   0.29862   0.35098   0.35117   0.35171
     Eigenvalues ---    0.35234   0.35700   0.35704   0.35716   0.35721
     Eigenvalues ---    0.35770   0.35790   0.41309   0.41316   0.41945
     Eigenvalues ---    0.43776   0.45127   0.45140   0.45459   0.45469
     Eigenvalues ---    0.46277   0.46890   0.46894   0.51625   0.53671
     Eigenvalues ---    0.57578
 RFO step:  Lambda=-1.12148548D-02 EMin= 3.00882483D-03
 Quartic linear search produced a step of  0.66730.
 Iteration  1 RMS(Cart)=  0.04423268 RMS(Int)=  0.00597965
 Iteration  2 RMS(Cart)=  0.01311626 RMS(Int)=  0.00003080
 Iteration  3 RMS(Cart)=  0.00007847 RMS(Int)=  0.00001092
 Iteration  4 RMS(Cart)=  0.00000001 RMS(Int)=  0.00001092
 Variable       Old X    -DE/DX   Delta X   Delta X   Delta X     New X
                                 (Linear)    (Quad)   (Total)
    R1        2.68277   0.00159   0.02033  -0.04541  -0.02506   2.65771
    R2        2.68277  -0.00070   0.02013  -0.05332  -0.03317   2.64960
    R3        2.61338   0.04018   0.03311   0.04537   0.07848   2.69186
    R4        2.63326  -0.00526  -0.00925   0.00437  -0.00489   2.62837
    R5        2.06981   0.00542   0.01055  -0.00489   0.00567   2.07548
    R6        2.63579  -0.00499  -0.00792   0.00171  -0.00621   2.62958
    R7        2.06957   0.00501   0.00962  -0.00408   0.00554   2.07511
    R8        2.51392  -0.12868  -0.18263  -0.07573  -0.25836   2.25556
    R9        2.63596  -0.00008   0.00485  -0.01154  -0.00671   2.62925
   R10        2.06064   0.00656   0.01026   0.00094   0.01120   2.07185
   R11        2.63462  -0.00028   0.00370  -0.00955  -0.00587   2.62875
   R12        2.06099   0.00652   0.01030   0.00067   0.01097   2.07196
   R13        2.06078   0.00657   0.01092  -0.00085   0.01007   2.07084
   R14        2.61256   0.04051   0.03314   0.04616   0.07930   2.69186
   R15        2.68254   0.00164   0.02034  -0.04525  -0.02488   2.65766
   R16        2.68290  -0.00060   0.02028  -0.05333  -0.03303   2.64987
   R17        2.63602  -0.00014   0.00480  -0.01165  -0.00686   2.62916
   R18        2.63465  -0.00028   0.00373  -0.00961  -0.00590   2.62875
   R19        2.06079   0.00657   0.01091  -0.00085   0.01007   2.07085
   R20        2.63330  -0.00527  -0.00926   0.00436  -0.00490   2.62841
   R21        2.06066   0.00655   0.01025   0.00095   0.01120   2.07186
   R22        2.63572  -0.00498  -0.00785   0.00161  -0.00624   2.62948
   R23        2.06098   0.00652   0.01031   0.00064   0.01096   2.07194
   R24        2.06978   0.00542   0.01055  -0.00487   0.00568   2.07546
   R25        2.06960   0.00501   0.00963  -0.00414   0.00549   2.07508
    A1        2.03233   0.00449   0.00311   0.01641   0.01956   2.05188
    A2        2.04402  -0.00504  -0.00983   0.00209  -0.00777   2.03626
    A3        2.20683   0.00055   0.00673  -0.01850  -0.01179   2.19504
    A4        2.12544  -0.00381  -0.00651  -0.00374  -0.01022   2.11522
    A5        2.06961   0.00406   0.01050  -0.00971   0.00078   2.07038
    A6        2.08813  -0.00024  -0.00399   0.01345   0.00945   2.09758
    A7        2.12316  -0.00328  -0.00616  -0.00208  -0.00822   2.11493
    A8        2.07960   0.00414   0.01247  -0.01670  -0.00424   2.07536
    A9        2.08043  -0.00086  -0.00631   0.01878   0.01246   2.09289
   A10        2.03384   0.01731   0.01122   0.07199   0.08321   2.11704
   A11        2.09826   0.00112   0.00281  -0.00023   0.00256   2.10082
   A12        2.07894   0.00038  -0.00074   0.00634   0.00560   2.08454
   A13        2.10598  -0.00151  -0.00206  -0.00610  -0.00816   2.09782
   A14        2.09974   0.00105   0.00218   0.00064   0.00280   2.10254
   A15        2.07505   0.00085   0.00068   0.00504   0.00573   2.08077
   A16        2.10840  -0.00189  -0.00286  -0.00568  -0.00853   2.09987
   A17        2.08744   0.00043   0.00457  -0.01101  -0.00647   2.08097
   A18        2.09893  -0.00038  -0.00253   0.00500   0.00249   2.10142
   A19        2.09681  -0.00005  -0.00204   0.00601   0.00398   2.10080
   A20        2.03612   0.01666   0.00935   0.07420   0.08356   2.11968
   A21        2.04506  -0.00527  -0.01010   0.00152  -0.00860   2.03647
   A22        2.20548   0.00087   0.00705  -0.01758  -0.01055   2.19493
   A23        2.03264   0.00440   0.00305   0.01606   0.01915   2.05179
   A24        2.08753   0.00043   0.00459  -0.01111  -0.00656   2.08097
   A25        2.09892  -0.00039  -0.00256   0.00507   0.00253   2.10145
   A26        2.09674  -0.00004  -0.00203   0.00604   0.00403   2.10077
   A27        2.09838   0.00112   0.00282  -0.00032   0.00249   2.10087
   A28        2.10586  -0.00150  -0.00205  -0.00605  -0.00810   2.09776
   A29        2.07895   0.00038  -0.00076   0.00637   0.00561   2.08456
   A30        2.09960   0.00107   0.00218   0.00080   0.00295   2.10255
   A31        2.10850  -0.00191  -0.00288  -0.00573  -0.00860   2.09990
   A32        2.07509   0.00084   0.00071   0.00494   0.00566   2.08074
   A33        2.12514  -0.00375  -0.00646  -0.00346  -0.00990   2.11524
   A34        2.06973   0.00402   0.01046  -0.00979   0.00066   2.07038
   A35        2.08832  -0.00027  -0.00400   0.01325   0.00925   2.09756
   A36        2.12309  -0.00327  -0.00617  -0.00197  -0.00813   2.11496
   A37        2.07936   0.00418   0.01250  -0.01649  -0.00400   2.07536
   A38        2.08074  -0.00091  -0.00633   0.01846   0.01212   2.09286
    D1        0.00001  -0.00000  -0.00000   0.00000   0.00000   0.00001
    D2        3.14159  -0.00000  -0.00000   0.00000   0.00000  -3.14159
    D3       -3.14159   0.00000   0.00000  -0.00000  -0.00000  -3.14159
    D4       -0.00001   0.00000   0.00000  -0.00000  -0.00000  -0.00001
    D5       -0.00001   0.00000   0.00000  -0.00001  -0.00000  -0.00002
    D6       -3.14159   0.00000   0.00000  -0.00000  -0.00000  -3.14159
    D7        3.14159  -0.00000  -0.00000   0.00000  -0.00000   3.14159
    D8        0.00001  -0.00000  -0.00000   0.00000   0.00000   0.00001
    D9       -3.14156  -0.00000  -0.00000   0.00000   0.00000  -3.14156
   D10        0.00002   0.00000   0.00000  -0.00000   0.00000   0.00002
   D11       -0.00000   0.00000   0.00000  -0.00000  -0.00000  -0.00000
   D12        3.14159   0.00000   0.00000  -0.00000  -0.00000   3.14159
   D13       -3.14158  -0.00000  -0.00000   0.00000   0.00000  -3.14158
   D14        0.00001  -0.00000  -0.00000   0.00000   0.00000   0.00001
   D15        0.00001  -0.00000  -0.00000   0.00000   0.00000   0.00001
   D16       -3.14158  -0.00000  -0.00000   0.00000   0.00000  -3.14158
   D17        3.14158   0.00000   0.00000  -0.00000  -0.00000   3.14158
   D18       -0.00001   0.00000   0.00000  -0.00000  -0.00000  -0.00001
   D19       -3.14158  -0.00000  -0.00000   0.00000  -0.00000  -3.14158
   D20       -0.00000   0.00000   0.00000  -0.00000  -0.00000  -0.00000
   D21       -3.14159  -0.00000   0.00000  -0.00000  -0.00000  -3.14159
   D22        3.14159   0.00000   0.00000  -0.00000  -0.00000   3.14159
   D23        0.00000  -0.00000  -0.00000   0.00000   0.00000   0.00000
   D24        0.00000  -0.00000  -0.00000   0.00000   0.00000   0.00000
   D25        3.14159   0.00000   0.00000  -0.00000  -0.00000   3.14159
   D26        3.14159  -0.00000  -0.00000   0.00000   0.00000  -3.14159
   D27       -0.00000   0.00000   0.00000  -0.00000  -0.00000  -0.00000
   D28       -3.14156  -0.00000  -0.00000   0.00000   0.00000  -3.14156
   D29        0.00003   0.00000   0.00000  -0.00000  -0.00000   0.00003
   D30       -3.14158  -0.00000  -0.00000   0.00000   0.00000  -3.14158
   D31       -0.00000   0.00000   0.00000  -0.00000  -0.00000  -0.00000
   D32        0.00001  -0.00000  -0.00000   0.00000   0.00000   0.00001
   D33       -3.14159   0.00000  -0.00000   0.00000   0.00000  -3.14159
   D34        3.14159   0.00000   0.00000   0.00000   0.00000   3.14159
   D35        0.00001  -0.00000  -0.00000   0.00000   0.00000   0.00001
   D36       -0.00001   0.00000   0.00000  -0.00000  -0.00000  -0.00001
   D37       -3.14159  -0.00000  -0.00000  -0.00000  -0.00000  -3.14159
   D38        0.00001  -0.00000  -0.00000   0.00000   0.00000   0.00002
   D39        3.14159   0.00000   0.00000   0.00000   0.00000   3.14159
   D40        3.14159   0.00000   0.00000  -0.00000  -0.00000   3.14159
   D41       -0.00002   0.00000   0.00000  -0.00000  -0.00000  -0.00002
   D42       -0.00001   0.00000   0.00000  -0.00000  -0.00000  -0.00001
   D43        3.14159   0.00000   0.00000  -0.00000  -0.00000   3.14159
   D44       -3.14159  -0.00000  -0.00000   0.00000   0.00000  -3.14159
   D45        0.00001  -0.00000  -0.00000   0.00000   0.00000   0.00002
   D46       -0.00001   0.00000   0.00000  -0.00000  -0.00000  -0.00002
   D47        3.14159   0.00000   0.00000  -0.00000  -0.00000   3.14159
   D48       -3.14159  -0.00000   0.00000  -0.00000  -0.00000  -3.14159
   D49        0.00001  -0.00000  -0.00000   0.00000   0.00000   0.00002
   D50        0.00001  -0.00000  -0.00000   0.00000   0.00000   0.00001
   D51        3.14159  -0.00000  -0.00000   0.00000   0.00000   3.14159
   D52        3.14159  -0.00000  -0.00000   0.00000   0.00000  -3.14159
   D53       -0.00001   0.00000   0.00000  -0.00000  -0.00000  -0.00001
         Item               Value     Threshold  Converged?
 Maximum Force            0.128684     0.000450     NO 
 RMS     Force            0.013487     0.000300     NO 
 Maximum Displacement     0.124049     0.001800     NO 
 RMS     Displacement     0.042983     0.001200     NO 
 Predicted change in Energy=-3.143938D-02
 GradGradGradGradGradGradGradGradGradGradGradGradGradGradGradGradGradGrad

                          Input orientation:                          
 ---------------------------------------------------------------------
 Center     Atomic      Atomic             Coordinates (Angstroms)
 Number     Number       Type             X           Y           Z
 ---------------------------------------------------------------------
      1          6           0        6.080496    1.691237   -0.421830
      2          6           0        6.658082    0.410240   -0.363479
      3          6           0        4.680772    1.771832   -0.435457
      4          7           0        6.978514    2.796259   -0.461954
      5          6           0        5.869137   -0.734435   -0.320883
      6          6           0        3.892780    0.625726   -0.392795
      7          6           0        4.481556   -0.633292   -0.335301
      8          7           0        6.577743    3.919427   -0.512310
      9          6           0        7.472848    5.026805   -0.552566
     10          6           0        9.066104    7.355302   -0.639309
     11          6           0        7.678317    7.452990   -0.653503
     12          6           0        9.658013    6.097752   -0.581932
     13          6           0        6.892164    6.306376   -0.610791
     14          6           0        8.872914    4.949730   -0.539155
     15          1           0        7.753147    0.326854   -0.351959
     16          1           0        4.206424    2.761161   -0.480729
     17          1           0        6.349852   -1.718769   -0.275781
     18          1           0        2.801014    0.726066   -0.405016
     19          1           0        3.859423   -1.534790   -0.301759
     20          1           0        9.686015    8.258331   -0.672945
     21          1           0        7.195209    8.436166   -0.698506
     22          1           0       10.750013    6.000101   -0.569887
     23          1           0        5.796908    6.387108   -0.622145
     24          1           0        9.349755    3.961611   -0.493988
 ---------------------------------------------------------------------
                    Distance matrix (angstroms):
                    1          2          3          4          5
     1  C    0.000000
     2  C    1.406402   0.000000
     3  C    1.402109   2.401847   0.000000
     4  N    1.424471   2.409453   2.515904   0.000000
     5  C    2.436955   1.390873   2.776096   3.703568   0.000000
     6  C    2.433569   2.773840   1.391513   3.773294   2.400249
     7  C    2.822682   2.413922   2.415437   4.244132   1.391337
     8  N    2.284791   3.513261   2.866457   1.193591   4.711390
     9  C    3.616869   4.691724   4.290018   2.286463   5.984768
    10  C    6.406464   7.355851   7.102664   5.017406   8.704357
    11  C    5.983685   7.122171   6.427159   4.712914   8.391524
    12  C    5.678171   6.433903   6.596057   4.253700   7.816809
    13  C    4.689778   5.905962   5.048078   3.514333   7.120650
    14  C    4.292916   5.054039   5.261544   2.869172   6.432732
    15  H    2.159673   1.098296   3.396237   2.590389   2.162590
    16  H    2.158785   3.398707   1.098102   2.772376   3.874191
    17  H    3.423745   2.152992   3.872418   4.562385   1.096374
    18  H    3.418602   3.870199   2.151288   4.662665   3.399046
    19  H    3.918525   3.408730   3.409727   5.339698   2.163304
    20  H    7.495969   8.417642   8.196557   6.099944   9.775600
    21  H    6.842016   8.050853   7.127758   5.649023   9.273671
    22  H    6.355518   6.930588   7.398109   4.949794   8.320993
    23  H    4.708689   6.044128   4.751988   3.783656   7.128278
    24  H    3.980936   4.458068   5.157321   2.642320   5.847864
                    6          7          8          9         10
     6  C    0.000000
     7  C    1.391075   0.000000
     8  N    4.251091   5.015235   0.000000
     9  C    5.675553   6.405601   1.424471   0.000000
    10  C    8.491834   9.215646   4.244208   2.822745   0.000000
    11  C    7.810876   8.701062   3.703682   2.436961   1.391293
    12  C    7.950896   8.494909   3.773328   2.433667   1.391072
    13  C    6.427567   7.351593   2.409582   1.406373   2.413933
    14  C    6.596981   7.106033   2.515959   1.402250   2.415395
    15  H    3.872135   3.409614   3.783368   4.712574   7.155803
    16  H    2.160136   3.408688   2.639267   3.975906   6.689377
    17  H    3.398169   2.161558   5.647755   6.844012   9.478869
    18  H    1.096435   2.162622   4.946994   6.351705   9.124309
    19  H    2.162691   1.095844   6.097712   7.494950  10.308114
    20  H    9.586278  10.308315   5.339780   3.918592   1.095848
    21  H    8.485426   9.473694   4.562549   3.423758   2.161485
    22  H    8.714178   9.129649   4.662655   3.418686   2.162623
    23  H    6.072218   7.148318   2.590601   2.159638   3.409594
    24  H    6.396635   6.696094   2.772393   2.158900   3.408624
                   11         12         13         14         15
    11  C    0.000000
    12  C    2.400206   0.000000
    13  C    1.390892   2.773855   0.000000
    14  C    2.776049   1.391462   2.401872   0.000000
    15  H    7.132905   6.081502   6.046733   4.760242   0.000000
    16  H    5.839276   6.392409   4.449569   5.154549   4.303682
    17  H    9.275163   8.493272   8.050422   7.134710   2.481857
    18  H    8.312720   8.712332   6.922407   7.397654   4.968481
    19  H    9.771789   9.589465   8.412902   8.200027   4.316170
    20  H    2.163286   2.162677   3.408753   3.409674   8.169905
    21  H    1.096382   3.398113   2.153028   3.872379   8.135867
    22  H    3.398999   1.096424   3.870203   2.151215   6.419847
    23  H    2.162587   3.872140   1.098286   3.396285   6.373896
    24  H    3.874129   2.160059   3.398723   1.098088   3.972504
                   16         17         18         19         20
    16  H    0.000000
    17  H    4.970519   0.000000
    18  H    2.474373   4.311400   0.000000
    19  H    4.313657   2.497350   2.498472   0.000000
    20  H    7.764132  10.527595  10.208332  11.401412   0.000000
    21  H    6.417627  10.198825   8.879229  10.521637   2.497278
    22  H    7.301865   8.889819   9.540922  10.214045   2.498462
    23  H    3.961960   8.132094   6.408582   8.161677   4.316157
    24  H    5.281582   6.427578   7.304976   7.771173   4.313572
                   21         22         23         24
    21  H    0.000000
    22  H    4.311332   0.000000
    23  H    2.481876   4.968475   0.000000
    24  H    4.970466   2.474252   4.303740   0.000000
 Stoichiometry    C12H10N2
 Framework group  C1[X(C12H10N2)]
 Deg. of freedom    66
 Full point group                 C1      NOp   1
 Largest Abelian subgroup         C1      NOp   1
 Largest concise Abelian subgroup C1      NOp   1
                         Standard orientation:                         
[...]
     14          6           0        8.874526    4.942686   -0.538856
     15          1           0        7.770905    0.290651   -0.350340
     16          1           0        4.184498    2.762009   -0.480885
     17          1           0        6.345333   -1.735437   -0.275165
     18          1           0        2.793754    0.718854   -0.404737
     19          1           0        3.858432   -1.536068   -0.301729
     20          1           0        9.692354    8.255922   -0.672792
     21          1           0        7.205451    8.455515   -0.699213
     22          1           0       10.756825    6.000900   -0.569902
     23          1           0        5.779717    6.429549   -0.624016
     24          1           0        9.365870    3.957863   -0.493730
 ---------------------------------------------------------------------
                    Distance matrix (angstroms):
                    1          2          3          4          5
     1  C    0.000000
     2  C    1.413003   0.000000
     3  C    1.409280   2.430671   0.000000
     4  N    1.436325   2.413234   2.527853   0.000000
     5  C    2.429857   1.391485   2.792107   3.703671   0.000000
     6  C    2.429480   2.793917   1.392734   3.780394   2.412069
     7  C    2.808913   2.419620   2.418804   4.241951   1.394739
     8  N    2.309200   3.544443   2.863092   1.230859   4.730299
     9  C    3.643563   4.719118   4.299015   2.309145   6.005707
    10  C    6.415993   7.361447   7.099082   5.018010   8.706676
    11  C    6.005735   7.143362   6.431937   4.730243   8.406556
    12  C    5.685528   6.435225   6.593953   4.249256   7.817015
    13  C    4.719174   5.937866   5.054835   3.544409   7.143413
    14  C    4.298901   5.054628   5.259147   2.862961   6.431741
    15  H    2.186367   1.101644   3.434523   2.615288   2.159971
    16  H    2.186366   3.437123   1.101514   2.809603   3.893479
    17  H    3.425510   2.157911   3.892496   4.570912   1.100390
    18  H    3.424569   3.894251   2.159593   4.681379   3.410251
    19  H    3.908841   3.415222   3.415310   5.341524   2.166450
    20  H    7.509070   8.425656   8.197176   6.103514   9.780999
    21  H    6.876891   8.084551   7.146121   5.679051   9.301195
    22  H    6.370092   6.937636   7.405013   4.950820   8.328966
    23  H    4.766663   6.105650   4.785151   3.844564   7.178694
    24  H    3.999398   4.466806   5.172401   2.646093   5.857679
                    6          7          8          9         10
     6  C    0.000000
     7  C    1.393883   0.000000
     8  N    4.249389   5.018105   0.000000
     9  C    5.685641   6.416035   1.436306   0.000000
    10  C    8.489164   9.210583   4.241921   2.808900   0.000000
    11  C    7.817234   8.706792   3.703658   2.429848   1.394737
    12  C    7.948638   8.489048   3.780343   2.429460   1.393889
    13  C    6.435456   7.361595   2.413227   1.412993   2.419618
    14  C    6.593927   7.098963   2.527798   1.409264   2.418803
    15  H    3.895505   3.414150   3.844556   4.766539   7.184848
    16  H    2.155911   3.410108   2.646286   3.999620   6.702893
    17  H    3.409896   2.164947   5.679096   6.876837   9.492961
    18  H    1.100335   2.164556   4.950968   6.370247   9.132513
    19  H    2.166304   1.099928   6.103615   7.509118  10.307054
    20  H    9.587827  10.307046   5.341495   3.908828   1.099928
    21  H    8.506052   9.493136   4.570902   3.425498   2.164953
    22  H    8.720552   9.132317   4.681324   3.424551   2.164559
    23  H    6.105770   7.185107   2.615300   2.186362   3.414148
    24  H    6.409349   6.702624   2.809511   2.186335   3.410118
                   11         12         13         14         15
    11  C    0.000000
    12  C    2.412070   0.000000
    13  C    1.391487   2.793908   0.000000
    14  C    2.792102   1.392726   2.430658   0.000000
    15  H    7.178536   6.105437   6.105559   4.784867   0.000000
    16  H    5.858012   6.409524   4.467135   5.172531   4.357404
    17  H    9.301148   8.505775   8.084569   7.145885   2.478495
    18  H    8.329266   8.720616   6.937933   7.405034   4.995832
    19  H    9.781136   9.587705   8.425824   8.197053   4.318183
    20  H    2.166455   2.166306   3.415224   3.415306   8.200091
    21  H    1.100390   3.409903   2.157909   3.892492   8.191853
    22  H    3.410251   1.100336   3.894244   2.159590   6.447548
    23  H    2.159972   3.895497   1.101645   3.434510   6.459551
    24  H    3.893474   2.155920   3.437097   1.101513   4.001615
                   16         17         18         19         20
    16  H    0.000000
    17  H    4.993851   0.000000
    18  H    2.472741   4.319033   0.000000
    19  H    4.314149   2.495021   2.495761   0.000000
    20  H    7.781799  10.544569  10.221054  11.404184   0.000000
    21  H    6.449018  10.235972   8.910988  10.544774   2.495040
    22  H    7.327607   8.910614   9.557081  10.220843   2.495758
    23  H    4.002007   8.191985   6.447953   8.200382   4.318188
    24  H    5.317598   6.448649   7.327469   7.781517   4.314159
                   21         22         23         24
    21  H    0.000000
    22  H    4.319041   0.000000
    23  H    2.478489   4.995826   0.000000
    24  H    4.993847   2.472764   4.357373   0.000000
 Stoichiometry    C12H10N2
 Framework group  C1[X(C12H10N2)]
 Deg. of freedom    66
 Full point group                 C1      NOp   1
 Largest Abelian subgroup         C1      NOp   1
 Largest concise Abelian subgroup C1      NOp   1
                         Standard orientation:                         
 ---------------------------------------------------------------------
 Center     Atomic      Atomic             Coordinates (Angstroms)
 Number     Number       Type             X           Y           Z
 ---------------------------------------------------------------------
      1          6           0        1.814259   -0.165231   -0.000006
      2          6           0        2.676579   -1.284597   -0.000040
      3          6           0        2.375707    1.127381    0.000035
      4          7           0        0.408540   -0.460161   -0.000013
      5          6           0        4.056092   -1.102455   -0.000032
      6          6           0        3.758770    1.291219    0.000044
      7          6           0        4.601737    0.181121    0.000010
      8          7           0       -0.408595    0.460331   -0.000010
      9          6           0       -1.814279    0.165324   -0.000005
     10          6           0       -4.601714   -0.181265    0.000010
     11          6           0       -4.056181    1.102358   -0.000033
     12          6           0       -3.758642   -1.291290    0.000044
     13          6           0       -2.676682    1.284614   -0.000040
     14          6           0       -2.375601   -1.127325    0.000035
     15          1           0        2.262008   -2.305259   -0.000074
     16          1           0        1.729591    2.019495    0.000061
     17          1           0        4.719153   -1.980639   -0.000059
     18          1           0        4.185756    2.305330    0.000077
     19          1           0        5.693321    0.316343    0.000017
     20          1           0       -5.693286   -0.316591    0.000016
     21          1           0       -4.719309    1.980492   -0.000060
     22          1           0       -4.185540   -2.305439    0.000076
     23          1           0       -2.262197    2.305312   -0.000074
     24          1           0       -1.729380   -2.019362    0.000062
 ---------------------------------------------------------------------
 Rotational constants (GHZ):      2.7403786      0.2815336      0.2553048

 **********************************************************************

            Population analysis using the SCF density.

 **********************************************************************

 Orbital symmetries:
       Occupied  (A) (A) (A) (A) (A) (A) (A) (A) (A) (A) (A) (A)
                 (A) (A) (A) (A) (A) (A) (A) (A) (A) (A) (A) (A)
                 (A) (A) (A) (A) (A) (A) (A) (A) (A) (A)
       Virtual   (A) (A) (A) (A) (A) (A) (A) (A) (A) (A) (A) (A)
                 (A) (A) (A) (A) (A) (A) (A) (A) (A) (A) (A) (A)
                 (A) (A) (A) (A) (A) (A) (A) (A)
 The electronic state is 1-A.
 Alpha  occ. eigenvalues --   -1.47795  -1.44531  -1.39244  -1.20063  -1.16193
 Alpha  occ. eigenvalues --   -1.16183  -1.12178  -0.96566  -0.86636  -0.85849
 Alpha  occ. eigenvalues --   -0.83975  -0.77258  -0.67584  -0.64576  -0.62116
 Alpha  occ. eigenvalues --   -0.60782  -0.57775  -0.56468  -0.56110  -0.54298
 Alpha  occ. eigenvalues --   -0.53922  -0.52569  -0.52456  -0.50214  -0.47100
 Alpha  occ. eigenvalues --   -0.46475  -0.46163  -0.44172  -0.44130  -0.37371
 Alpha  occ. eigenvalues --   -0.36202  -0.36185  -0.35981  -0.33473
 Alpha virt. eigenvalues --   -0.02838   0.01503   0.01504   0.01529   0.06131
 Alpha virt. eigenvalues --    0.08593   0.10232   0.11191   0.14026   0.14027
 Alpha virt. eigenvalues --    0.14251   0.14287   0.14495   0.14641   0.15573
 Alpha virt. eigenvalues --    0.15818   0.15880   0.15965   0.16356   0.17568
 Alpha virt. eigenvalues --    0.18151   0.18214   0.18922   0.19399   0.19621
 Alpha virt. eigenvalues --    0.19763   0.20202   0.20219   0.20379   0.21559
 Alpha virt. eigenvalues --    0.22232   0.26901
          Condensed to atoms (all electrons):
               1          2          3          4          5          6
     1  C    4.048974   0.000000   0.000000   0.000000   0.000000   0.000000
     2  C    0.000000   4.082095   0.000000   0.000000   0.000000   0.000000
     3  C    0.000000   0.000000   4.106342   0.000000   0.000000   0.000000
     4  N    0.000000   0.000000   0.000000   5.070320   0.000000   0.000000
     5  C    0.000000   0.000000   0.000000   0.000000   4.142966   0.000000
     6  C    0.000000   0.000000   0.000000   0.000000   0.000000   4.139666
     7  C    0.000000   0.000000   0.000000   0.000000   0.000000   0.000000
     8  N    0.000000   0.000000   0.000000   0.000000   0.000000   0.000000
     9  C    0.000000   0.000000   0.000000   0.000000   0.000000   0.000000
    10  C    0.000000   0.000000   0.000000   0.000000   0.000000   0.000000
    11  C    0.000000   0.000000   0.000000   0.000000   0.000000   0.000000
    12  C    0.000000   0.000000   0.000000   0.000000   0.000000   0.000000
    13  C    0.000000   0.000000   0.000000   0.000000   0.000000   0.000000
    14  C    0.000000   0.000000   0.000000   0.000000   0.000000   0.000000
    15  H    0.000000   0.000000   0.000000   0.000000   0.000000   0.000000
    16  H    0.000000   0.000000   0.000000   0.000000   0.000000   0.000000
    17  H    0.000000   0.000000   0.000000   0.000000   0.000000   0.000000
    18  H    0.000000   0.000000   0.000000   0.000000   0.000000   0.000000
    19  H    0.000000   0.000000   0.000000   0.000000   0.000000   0.000000
    20  H    0.000000   0.000000   0.000000   0.000000   0.000000   0.000000
    21  H    0.000000   0.000000   0.000000   0.000000   0.000000   0.000000
    22  H    0.000000   0.000000   0.000000   0.000000   0.000000   0.000000
    23  H    0.000000   0.000000   0.000000   0.000000   0.000000   0.000000
    24  H    0.000000   0.000000   0.000000   0.000000   0.000000   0.000000
               7          8          9         10         11         12
     1  C    0.000000   0.000000   0.000000   0.000000   0.000000   0.000000
     2  C    0.000000   0.000000   0.000000   0.000000   0.000000   0.000000
     3  C    0.000000   0.000000   0.000000   0.000000   0.000000   0.000000
     4  N    0.000000   0.000000   0.000000   0.000000   0.000000   0.000000
     5  C    0.000000   0.000000   0.000000   0.000000   0.000000   0.000000
     6  C    0.000000   0.000000   0.000000   0.000000   0.000000   0.000000
     7  C    4.111039   0.000000   0.000000   0.000000   0.000000   0.000000
     8  N    0.000000   5.070305   0.000000   0.000000   0.000000   0.000000
     9  C    0.000000   0.000000   4.048980   0.000000   0.000000   0.000000
    10  C    0.000000   0.000000   0.000000   4.111038   0.000000   0.000000
    11  C    0.000000   0.000000   0.000000   0.000000   4.142966   0.000000
    12  C    0.000000   0.000000   0.000000   0.000000   0.000000   4.139666
    13  C    0.000000   0.000000   0.000000   0.000000   0.000000   0.000000
    14  C    0.000000   0.000000   0.000000   0.000000   0.000000   0.000000
    15  H    0.000000   0.000000   0.000000   0.000000   0.000000   0.000000
    16  H    0.000000   0.000000   0.000000   0.000000   0.000000   0.000000
    17  H    0.000000   0.000000   0.000000   0.000000   0.000000   0.000000
    18  H    0.000000   0.000000   0.000000   0.000000   0.000000   0.000000
    19  H    0.000000   0.000000   0.000000   0.000000   0.000000   0.000000
    20  H    0.000000   0.000000   0.000000   0.000000   0.000000   0.000000
    21  H    0.000000   0.000000   0.000000   0.000000   0.000000   0.000000
    22  H    0.000000   0.000000   0.000000   0.000000   0.000000   0.000000
    23  H    0.000000   0.000000   0.000000   0.000000   0.000000   0.000000
    24  H    0.000000   0.000000   0.000000   0.000000   0.000000   0.000000
              13         14         15         16         17         18
     1  C    0.000000   0.000000   0.000000   0.000000   0.000000   0.000000
     2  C    0.000000   0.000000   0.000000   0.000000   0.000000   0.000000
     3  C    0.000000   0.000000   0.000000   0.000000   0.000000   0.000000
     4  N    0.000000   0.000000   0.000000   0.000000   0.000000   0.000000
     5  C    0.000000   0.000000   0.000000   0.000000   0.000000   0.000000
     6  C    0.000000   0.000000   0.000000   0.000000   0.000000   0.000000
     7  C    0.000000   0.000000   0.000000   0.000000   0.000000   0.000000
     8  N    0.000000   0.000000   0.000000   0.000000   0.000000   0.000000
     9  C    0.000000   0.000000   0.000000   0.000000   0.000000   0.000000
    10  C    0.000000   0.000000   0.000000   0.000000   0.000000   0.000000
    11  C    0.000000   0.000000   0.000000   0.000000   0.000000   0.000000
    12  C    0.000000   0.000000   0.000000   0.000000   0.000000   0.000000
    13  C    4.082094   0.000000   0.000000   0.000000   0.000000   0.000000
    14  C    0.000000   4.106343   0.000000   0.000000   0.000000   0.000000
    15  H    0.000000   0.000000   0.853731   0.000000   0.000000   0.000000
    16  H    0.000000   0.000000   0.000000   0.849994   0.000000   0.000000
    17  H    0.000000   0.000000   0.000000   0.000000   0.864299   0.000000
    18  H    0.000000   0.000000   0.000000   0.000000   0.000000   0.864706
    19  H    0.000000   0.000000   0.000000   0.000000   0.000000   0.000000
    20  H    0.000000   0.000000   0.000000   0.000000   0.000000   0.000000
    21  H    0.000000   0.000000   0.000000   0.000000   0.000000   0.000000
    22  H    0.000000   0.000000   0.000000   0.000000   0.000000   0.000000
    23  H    0.000000   0.000000   0.000000   0.000000   0.000000   0.000000
    24  H    0.000000   0.000000   0.000000   0.000000   0.000000   0.000000
              19         20         21         22         23         24
     1  C    0.000000   0.000000   0.000000   0.000000   0.000000   0.000000
     2  C    0.000000   0.000000   0.000000   0.000000   0.000000   0.000000
     3  C    0.000000   0.000000   0.000000   0.000000   0.000000   0.000000
     4  N    0.000000   0.000000   0.000000   0.000000   0.000000   0.000000
     5  C    0.000000   0.000000   0.000000   0.000000   0.000000   0.000000
     6  C    0.000000   0.000000   0.000000   0.000000   0.000000   0.000000
     7  C    0.000000   0.000000   0.000000   0.000000   0.000000   0.000000
     8  N    0.000000   0.000000   0.000000   0.000000   0.000000   0.000000
     9  C    0.000000   0.000000   0.000000   0.000000   0.000000   0.000000
    10  C    0.000000   0.000000   0.000000   0.000000   0.000000   0.000000
    11  C    0.000000   0.000000   0.000000   0.000000   0.000000   0.000000
    12  C    0.000000   0.000000   0.000000   0.000000   0.000000   0.000000
    13  C    0.000000   0.000000   0.000000   0.000000   0.000000   0.000000
    14  C    0.000000   0.000000   0.000000   0.000000   0.000000   0.000000
    15  H    0.000000   0.000000   0.000000   0.000000   0.000000   0.000000
    16  H    0.000000   0.000000   0.000000   0.000000   0.000000   0.000000
    17  H    0.000000   0.000000   0.000000   0.000000   0.000000   0.000000
    18  H    0.000000   0.000000   0.000000   0.000000   0.000000   0.000000
    19  H    0.865874   0.000000   0.000000   0.000000   0.000000   0.000000
    20  H    0.000000   0.865873   0.000000   0.000000   0.000000   0.000000
    21  H    0.000000   0.000000   0.864299   0.000000   0.000000   0.000000
    22  H    0.000000   0.000000   0.000000   0.864707   0.000000   0.000000
    23  H    0.000000   0.000000   0.000000   0.000000   0.853731   0.000000
    24  H    0.000000   0.000000   0.000000   0.000000   0.000000   0.849992
 Mulliken charges:
               1
     1  C   -0.048974
     2  C   -0.082095
     3  C   -0.106342
     4  N   -0.070320
     5  C   -0.142966
     6  C   -0.139666
     7  C   -0.111039
     8  N   -0.070305
     9  C   -0.048980
    10  C   -0.111038
    11  C   -0.142966
    12  C   -0.139666
    13  C   -0.082094
    14  C   -0.106343
    15  H    0.146269
    16  H    0.150006
    17  H    0.135701
    18  H    0.135294
    19  H    0.134126
    20  H    0.134127
    21  H    0.135701
    22  H    0.135293
    23  H    0.146269
    24  H    0.150008
 Sum of Mulliken charges =   0.00000
 Mulliken charges with hydrogens summed into heavy atoms:
               1
     1  C   -0.048974
     2  C    0.064174
     3  C    0.043664
     4  N   -0.070320
     5  C   -0.007265
     6  C   -0.004373
     7  C    0.023087
     8  N   -0.070305
     9  C   -0.048980
    10  C    0.023088
    11  C   -0.007264
    12  C   -0.004373
    13  C    0.064175
    14  C    0.043666
 Charge=              0.0000 electrons
 Dipole moment (field-independent basis, Debye):
    X=              0.0000    Y=             -0.0001    Z=              0.0000  Tot=              0.0001
 N-N= 4.084883703090D+02 E-N=-7.226410791258D+02  KE=-4.556551114242D+01
 1\1\GINC-GTX1080DELTA\FOpt\RAM1\ZDO\C12H10N2\MVEROT\12-Apr-2022\0\\#n 
 AM1 Opt\\Geometry optimization\\0,1\C,6.0815773558,1.6767789192,-0.421
 2107085\C,6.6743267204,0.3954473799,-0.3627667948\C,4.6759579106,1.777
 2451016,-0.4357073435\N,6.9939363329,2.7853896243,-0.4613838673\C,5.87
 4065852,-0.7421078555,-0.3205581365\C,3.8902751973,0.6280813335,-0.392
 9034882\C,4.4837726537,-0.6318230853,-0.3353597152\N,6.5565212018,3.93
 4740685,-0.5130954726\C,7.4689313526,5.0432840865,-0.5532768398\C,9.06
 69262869,7.3517379615,-0.63915182\C,7.6766436343,7.4621466887,-0.65387
 34539\C,9.6603112422,6.0917703788,-0.5816736154\C,6.8762877104,6.32465
 67046,-0.6116526886\C,8.8745261324,4.9426859644,-0.5388564666\H,7.7709
 047313,0.2906506794,-0.3503401727\H,4.1844980104,2.7620086374,-0.48088
 52512\H,6.3453334396,-1.7354372948,-0.2751649368\H,2.7937544375,0.7188
 537879,-0.4047369604\H,3.8584324242,-1.5360684407,-0.3017294541\H,9.69
 23542879,8.2559224749,-0.6727916155\H,7.2054507675,8.4555145114,-0.699
 2133885\H,10.7568252078,6.0009001359,-0.5699016887\H,5.7797170962,6.42
 95488273,-0.6240159821\H,9.3658700143,3.9578627943,-0.4937301389\\Vers
 ion=AM64L-G09RevD.01\State=1-A\HF=0.1591475\RMSD=4.608e-09\RMSF=5.273e
 -05\Dipole=0.0000267,-0.0000293,-0.0000043\PG=C01 [X(C12H10N2)]\\@


 EXPERIENCE IS THE FRUIT OF THE TREE OF ERRORS.
 Job cpu time:       0 days  0 hours  0 minutes  9.8 seconds.
 File lengths (MBytes):  RWF=    132 Int=      0 D2E=      0 Chk=      3 Scr=      2
 Normal termination of Gaussian 09 at Tue Apr 12 01:31:18 2022.
