 Entering Gaussian System, Link 0=g09
 Input=/scratch/mverot/1-4-butanediol-redundant-opt/1-4-butanediol-redundant-opt.com
 Output=/scratch/mverot/1-4-butanediol-redundant-opt/1-4-butanediol-redundant-opt.log
 Initial command:
 /opt/g09/l1.exe "/scratch/mverot/1-4-butanediol-redundant-opt/Gau-1490143.inp" -scrdir="/scratch/mverot/1-4-butanediol-redundant-opt/"
 Entering Link 1 = /opt/g09/l1.exe PID=   1490145.
  
 Copyright (c) 1988,1990,1992,1993,1995,1998,2003,2009,2013,
            Gaussian, Inc.  All Rights Reserved.
  
 This is part of the Gaussian(R) 09 program.  It is based on
 the Gaussian(R) 03 system (copyright 2003, Gaussian, Inc.),
 the Gaussian(R) 98 system (copyright 1998, Gaussian, Inc.),
 the Gaussian(R) 94 system (copyright 1995, Gaussian, Inc.),
 the Gaussian 92(TM) system (copyright 1992, Gaussian, Inc.),
 the Gaussian 90(TM) system (copyright 1990, Gaussian, Inc.),
 the Gaussian 88(TM) system (copyright 1988, Gaussian, Inc.),
 the Gaussian 86(TM) system (copyright 1986, Carnegie Mellon
 University), and the Gaussian 82(TM) system (copyright 1983,
 Carnegie Mellon University). Gaussian is a federally registered
 trademark of Gaussian, Inc.
  
 This software contains proprietary and confidential information,
 including trade secrets, belonging to Gaussian, Inc.
  
 This software is provided under written license and may be
 used, copied, transmitted, or stored only in accord with that
 written license.
  
 The following legend is applicable only to US Government
 contracts under FAR:
  
                    RESTRICTED RIGHTS LEGEND
  
 Use, reproduction and disclosure by the US Government is
 subject to restrictions as set forth in subparagraphs (a)
 and (c) of the Commercial Computer Software - Restricted
 Rights clause in FAR 52.227-19.
  
 Gaussian, Inc.
 340 Quinnipiac St., Bldg. 40, Wallingford CT 06492
  
  
 ---------------------------------------------------------------
 Warning -- This program may not be used in any manner that
 competes with the business of Gaussian, Inc. or will provide
 assistance to any competitor of Gaussian, Inc.  The licensee
 of this program is prohibited from giving any competitor of
 Gaussian, Inc. access to this program.  By using this program,
 the user acknowledges that Gaussian, Inc. is engaged in the
 business of creating and licensing software in the field of
 computational chemistry and represents and warrants to the
 licensee that it is not a competitor of Gaussian, Inc. and that
 it will not use this program in any manner prohibited above.
 ---------------------------------------------------------------
  

 Cite this work as:
 Gaussian 09, Revision D.01,
 M. J. Frisch, G. W. Trucks, H. B. Schlegel, G. E. Scuseria, 
 M. A. Robb, J. R. Cheeseman, G. Scalmani, V. Barone, B. Mennucci, 
 G. A. Petersson, H. Nakatsuji, M. Caricato, X. Li, H. P. Hratchian, 
 A. F. Izmaylov, J. Bloino, G. Zheng, J. L. Sonnenberg, M. Hada, 
 M. Ehara, K. Toyota, R. Fukuda, J. Hasegawa, M. Ishida, T. Nakajima, 
 Y. Honda, O. Kitao, H. Nakai, T. Vreven, J. A. Montgomery, Jr., 
 J. E. Peralta, F. Ogliaro, M. Bearpark, J. J. Heyd, E. Brothers, 
 K. N. Kudin, V. N. Staroverov, T. Keith, R. Kobayashi, J. Normand, 
 K. Raghavachari, A. Rendell, J. C. Burant, S. S. Iyengar, J. Tomasi, 
 M. Cossi, N. Rega, J. M. Millam, M. Klene, J. E. Knox, J. B. Cross, 
 V. Bakken, C. Adamo, J. Jaramillo, R. Gomperts, R. E. Stratmann, 
 O. Yazyev, A. J. Austin, R. Cammi, C. Pomelli, J. W. Ochterski, 
 R. L. Martin, K. Morokuma, V. G. Zakrzewski, G. A. Voth, 
 P. Salvador, J. J. Dannenberg, S. Dapprich, A. D. Daniels, 
 O. Farkas, J. B. Foresman, J. V. Ortiz, J. Cioslowski, 
 and D. J. Fox, Gaussian, Inc., Wallingford CT, 2013.
 
 ******************************************
 Gaussian 09:  AM64L-G09RevD.01 24-Apr-2013
                18-Apr-2022 
 ******************************************
 %chk=1-4-butanediol-opt
 -----------------------
 #n PM6 Opt=modredundant
 -----------------------
 1/14=-1,18=120,19=15,26=1,38=1/1,3;
 2/9=110,12=2,17=6,18=5,40=1/2;
 3/5=2,16=1,25=1,41=3900000,71=1/1,2,3;
 4/35=1/1;
 5/5=2,35=1,38=5/2;
 6/7=2,8=2,9=2,10=2,28=1/1;
 7//1,2,3,16;
 1/14=-1,18=20,19=15,26=1/3(2);
 2/9=110/2;
 99//99;
 2/9=110/2;
 3/5=2,16=1,25=1,41=3900000,71=1,135=20/1,2,3;
 4/5=5,16=3,35=1/1;
 5/5=2,35=1,38=5/2;
 7//1,2,3,16;
 1/14=-1,18=20,19=15,26=1/3(-5);
 2/9=110/2;
 6/7=2,8=2,9=2,10=2,19=2,28=1/1;
 99/9=1/99;
 -------------------------
 Optimisation de geometrie
 -------------------------
 Symbolic Z-matrix:
 Charge =  0 Multiplicity = 1
 C                     1.6107    1.2545    1.9562 
 C                     1.1287    2.3802    1.0303 
 O                     1.4973    3.6767    1.461 
 C                     3.1202    0.9463    1.9456 
 C                     4.0514    2.0104    2.5215 
 O                     4.1945    3.0862    1.5783 
 H                     1.0825    0.3332    1.6712 
 H                     1.2915    1.4946    2.98 
 H                     0.0328    2.3688    1.0055 
 H                     1.4756    2.182     0.0004 
 H                     2.4724    3.7128    1.402 
 H                     3.4548    0.7229    0.923 
 H                     3.2871    0.0321    2.5311 
 H                     5.0392    1.5667    2.7112 
 H                     3.6576    2.3857    3.4778 
 H                     4.7634    3.7635    1.976 
 
 The following ModRedundant input section has been read:
 D       2       1       4       5 S  36 10.000                                
 

 GradGradGradGradGradGradGradGradGradGradGradGradGradGradGradGradGradGrad
 Berny optimization.
 Initialization pass.
                           ----------------------------
                           !    Initial Parameters    !
                           ! (Angstroms and Degrees)  !
 --------------------------                            --------------------------
 ! Name  Definition              Value          Derivative Info.                !
 --------------------------------------------------------------------------------
 ! R1    R(1,2)                  1.5352         estimate D2E/DX2                !
 ! R2    R(1,4)                  1.5407         estimate D2E/DX2                !
 ! R3    R(1,7)                  1.0996         estimate D2E/DX2                !
 ! R4    R(1,8)                  1.099          estimate D2E/DX2                !
 ! R5    R(2,3)                  1.415          estimate D2E/DX2                !
 ! R6    R(2,9)                  1.0962         estimate D2E/DX2                !
 ! R7    R(2,10)                 1.1047         estimate D2E/DX2                !
 ! R8    R(3,11)                 0.9776         estimate D2E/DX2                !
 ! R9    R(4,5)                  1.5268         estimate D2E/DX2                !
 ! R10   R(4,12)                 1.0989         estimate D2E/DX2                !
 ! R11   R(4,13)                 1.0984         estimate D2E/DX2                !
 ! R12   R(5,6)                  1.4379         estimate D2E/DX2                !
 ! R13   R(5,14)                 1.0994         estimate D2E/DX2                !
 ! R14   R(5,15)                 1.1002         estimate D2E/DX2                !
 ! R15   R(6,16)                 0.9698         estimate D2E/DX2                !
 ! A1    A(2,1,4)              116.7531         estimate D2E/DX2                !
 ! A2    A(2,1,7)              107.8932         estimate D2E/DX2                !
 ! A3    A(2,1,8)              108.0877         estimate D2E/DX2                !
 ! A4    A(4,1,7)              107.5333         estimate D2E/DX2                !
 ! A5    A(4,1,8)              109.554          estimate D2E/DX2                !
 ! A6    A(7,1,8)              106.559          estimate D2E/DX2                !
 ! A7    A(1,2,3)              113.9843         estimate D2E/DX2                !
 ! A8    A(1,2,9)              108.6562         estimate D2E/DX2                !
 ! A9    A(1,2,10)             109.3984         estimate D2E/DX2                !
 ! A10   A(3,2,9)              106.0708         estimate D2E/DX2                !
 ! A11   A(3,2,10)             111.4914         estimate D2E/DX2                !
 ! A12   A(9,2,10)             106.9162         estimate D2E/DX2                !
 ! A13   A(2,3,11)             105.9801         estimate D2E/DX2                !
 ! A14   A(1,4,5)              117.1002         estimate D2E/DX2                !
 ! A15   A(1,4,12)             110.2059         estimate D2E/DX2                !
 ! A16   A(1,4,13)             108.1622         estimate D2E/DX2                !
 ! A17   A(5,4,12)             107.8776         estimate D2E/DX2                !
 ! A18   A(5,4,13)             106.6391         estimate D2E/DX2                !
 ! A19   A(12,4,13)            106.2946         estimate D2E/DX2                !
 ! A20   A(4,5,6)              109.5557         estimate D2E/DX2                !
 ! A21   A(4,5,14)             109.3787         estimate D2E/DX2                !
 ! A22   A(4,5,15)             110.3221         estimate D2E/DX2                !
 ! A23   A(6,5,14)             109.0102         estimate D2E/DX2                !
 ! A24   A(6,5,15)             110.5225         estimate D2E/DX2                !
 ! A25   A(14,5,15)            108.0171         estimate D2E/DX2                !
 ! A26   A(5,6,16)             108.174          estimate D2E/DX2                !
 ! D1    D(4,1,2,3)            -71.948          estimate D2E/DX2                !
 ! D2    D(4,1,2,9)            170.0178         estimate D2E/DX2                !
 ! D3    D(4,1,2,10)            53.6277         estimate D2E/DX2                !
 ! D4    D(7,1,2,3)            166.9021         estimate D2E/DX2                !
 ! D5    D(7,1,2,9)             48.8678         estimate D2E/DX2                !
 ! D6    D(7,1,2,10)           -67.5223         estimate D2E/DX2                !
 ! D7    D(8,1,2,3)             52.0354         estimate D2E/DX2                !
 ! D8    D(8,1,2,9)            -65.9989         estimate D2E/DX2                !
 ! D9    D(8,1,2,10)           177.611          estimate D2E/DX2                !
 ! D10   D(2,1,4,5)             68.0507         Scan                            !
 ! D11   D(2,1,4,12)           -55.715          estimate D2E/DX2                !
 ! D12   D(2,1,4,13)          -171.5252         estimate D2E/DX2                !
 ! D13   D(7,1,4,5)           -170.6099         estimate D2E/DX2                !
 ! D14   D(7,1,4,12)            65.6244         estimate D2E/DX2                !
 ! D15   D(7,1,4,13)           -50.1858         estimate D2E/DX2                !
 ! D16   D(8,1,4,5)            -55.1806         estimate D2E/DX2                !
 ! D17   D(8,1,4,12)          -178.9464         estimate D2E/DX2                !
 ! D18   D(8,1,4,13)            65.2435         estimate D2E/DX2                !
 ! D19   D(1,2,3,11)            65.689          estimate D2E/DX2                !
 ! D20   D(9,2,3,11)          -174.8043         estimate D2E/DX2                !
 ! D21   D(10,2,3,11)          -58.7729         estimate D2E/DX2                !
 ! D22   D(1,4,5,6)            -76.1976         estimate D2E/DX2                !
 ! D23   D(1,4,5,14)           164.3712         estimate D2E/DX2                !
 ! D24   D(1,4,5,15)            45.6919         estimate D2E/DX2                !
 ! D25   D(12,4,5,6)            48.744          estimate D2E/DX2                !
 ! D26   D(12,4,5,14)          -70.6872         estimate D2E/DX2                !
 ! D27   D(12,4,5,15)          170.6335         estimate D2E/DX2                !
 ! D28   D(13,4,5,6)           162.5783         estimate D2E/DX2                !
 ! D29   D(13,4,5,14)           43.1471         estimate D2E/DX2                !
 ! D30   D(13,4,5,15)          -75.5322         estimate D2E/DX2                !
 ! D31   D(4,5,6,16)           178.0428         estimate D2E/DX2                !
 ! D32   D(14,5,6,16)          -62.2996         estimate D2E/DX2                !
 ! D33   D(15,5,6,16)           56.2735         estimate D2E/DX2                !
 --------------------------------------------------------------------------------
 Trust Radius=3.00D-01 FncErr=1.00D-07 GrdErr=1.00D-07
 Number of optimizations in scan=  37
 Number of steps in this run=     84 maximum allowed number of steps=    100.
 GradGradGradGradGradGradGradGradGradGradGradGradGradGradGradGradGradGrad

                          Input orientation:                          
 ---------------------------------------------------------------------
 Center     Atomic      Atomic             Coordinates (Angstroms)
 Number     Number       Type             X           Y           Z
 ---------------------------------------------------------------------
      1          6           0        1.610700    1.254500    1.956200
      2          6           0        1.128700    2.380200    1.030300
      3          8           0        1.497300    3.676700    1.461000
      4          6           0        3.120200    0.946300    1.945600
      5          6           0        4.051400    2.010400    2.521500
      6          8           0        4.194500    3.086200    1.578300
      7          1           0        1.082500    0.333200    1.671200
      8          1           0        1.291500    1.494600    2.980000
      9          1           0        0.032800    2.368800    1.005500
     10          1           0        1.475600    2.182000    0.000400
     11          1           0        2.472400    3.712800    1.402000
     12          1           0        3.454800    0.722900    0.923000
     13          1           0        3.287100    0.032100    2.531100
     14          1           0        5.039200    1.566700    2.711200
     15          1           0        3.657600    2.385700    3.477800
     16          1           0        4.763400    3.763500    1.976000
 ---------------------------------------------------------------------
                    Distance matrix (angstroms):
                    1          2          3          4          5
     1  C    0.000000
     2  C    1.535192   0.000000
     3  O    2.474901   1.415020   0.000000
     4  C    1.540678   2.619144   3.213056   0.000000
     5  C    2.616862   3.301909   3.228722   1.526795   0.000000
     6  O    3.189664   3.193410   2.763573   2.422437   1.437863
     7  H    1.099552   2.145483   3.375683   2.145555   3.514310
     8  H    1.098955   2.147585   2.666697   2.171350   2.844876
     9  H    2.152966   1.096240   2.015650   3.526944   4.309971
    10  H    2.168793   1.104680   2.089964   2.831160   3.608343
    11  H    2.663251   1.928604   0.977550   2.892865   2.577729
    12  H    2.179634   2.858128   3.584157   1.098897   2.137473
    13  H    2.152926   3.524864   4.199001   1.098375   2.120829
    14  H    3.524501   4.333499   4.308150   2.157221   1.099366
    15  H    2.790104   3.519321   3.225067   2.169864   1.100199
    16  H    4.029267   4.002363   3.307593   3.261540   1.969232
                    6          7          8          9         10
     6  O    0.000000
     7  H    4.155982   0.000000
     8  H    3.595186   1.762240   0.000000
     9  H    4.261750   2.385098   2.499440   0.000000
    10  H    3.271049   2.522729   3.063401   1.768274   0.000000
    11  H    1.841015   3.664149   2.967325   2.813396   2.302486
    12  H    2.561593   2.517832   3.083283   3.798141   2.626289
    13  H    3.325467   2.385446   2.514525   4.286968   3.782598
    14  H    2.075057   4.273008   3.758019   5.349469   4.519544
    15  H    2.094531   3.756022   2.576877   4.387679   4.110344
    16  H    0.969818   5.040723   4.267319   5.026493   4.148948
                   11         12         13         14         15
    11  H    0.000000
    12  H    3.183403   0.000000
    13  H    3.935245   1.758213   0.000000
    14  H    3.592800   2.533768   2.336084   0.000000
    15  H    2.734015   3.055002   2.563775   1.779678   0.000000
    16  H    2.362356   3.473686   4.051042   2.332920   2.318735
                   16
    16  H    0.000000
 Stoichiometry    C4H10O2
 Framework group  C1[X(C4H10O2)]
 Deg. of freedom    42
 Full point group                 C1      NOp   1
 Largest Abelian subgroup         C1      NOp   1
 Largest concise Abelian subgroup C1      NOp   1
                         Standard orientation:                         
 ---------------------------------------------------------------------
 Center     Atomic      Atomic             Coordinates (Angstroms)
 Number     Number       Type             X           Y           Z
 ---------------------------------------------------------------------
      1          6           0        0.830011    1.152271    0.212354
      2          6           0        1.646795   -0.045249   -0.293241
      3          8           0        1.303057   -1.274744    0.317060
      4          6           0       -0.644568    1.221794   -0.228637
      5          6           0       -1.588870    0.160941    0.331710
      6          8           0       -1.371828   -1.085645   -0.351200
      7          1           0        1.324059    2.070107   -0.137655
      8          1           0        0.886718    1.165023    1.309771
      9          1           0        2.703422    0.126014   -0.056702
     10          1           0        1.569165   -0.103974   -1.393623
     11          1           0        0.386969   -1.467934    0.035876
     12          1           0       -0.714763    1.190762   -1.324851
     13          1           0       -1.048228    2.196018    0.078564
     14          1           0       -2.629383    0.479027    0.174364
     15          1           0       -1.429669    0.040813    1.413682
     16          1           0       -1.958328   -1.751287    0.040574
 ---------------------------------------------------------------------
 Rotational constants (GHZ):      4.5593886      2.8857863      1.9677595
 Standard basis: VSTO-6G (5D, 7F)
 There are    34 symmetry adapted cartesian basis functions of A   symmetry.
 There are    34 symmetry adapted basis functions of A   symmetry.
    34 basis functions,   204 primitive gaussians,    34 cartesian basis functions
    19 alpha electrons       19 beta electrons
       nuclear repulsion energy       178.3715809216 Hartrees.
 Integral buffers will be    131072 words long.
 Regular integral format.
 Two-electron integral symmetry is turned off.
 Do NDO integrals.
 One-electron integrals computed using PRISM.
 NBasis=    34 RedAO= F EigKep=  0.00D+00  NBF=    34
 NBsUse=    34 1.00D-04 EigRej=  0.00D+00 NBFU=    34
 Simple Huckel Guess.
 Overlap will be assumed to be unity.
 Keep J ints in memory in canonical form, NReq=895124.
 Requested convergence on RMS density matrix=1.00D-08 within 128 cycles.
 Requested convergence on MAX density matrix=1.00D-06.
 Requested convergence on             energy=1.00D-06.
 No special actions if energy rises.
 SCF Done:  E(RPM6) = -0.166072106998     A.U. after   14 cycles
            NFock= 13  Conv=0.28D-08     -V/T= 0.9925

 **********************************************************************

            Population analysis using the SCF density.

 **********************************************************************

 Orbital symmetries:
       Occupied  (A) (A) (A) (A) (A) (A) (A) (A) (A) (A) (A) (A)
                 (A) (A) (A) (A) (A) (A) (A)
       Virtual   (A) (A) (A) (A) (A) (A) (A) (A) (A) (A) (A) (A)
                 (A) (A) (A)
 The electronic state is 1-A.
 Alpha  occ. eigenvalues --   -1.12270  -1.08328  -1.02586  -0.93610  -0.83153
 Alpha  occ. eigenvalues --   -0.74400  -0.68718  -0.64119  -0.60285  -0.56123
 Alpha  occ. eigenvalues --   -0.55822  -0.52720  -0.49519  -0.48672  -0.46059
 Alpha  occ. eigenvalues --   -0.44242  -0.42086  -0.39690  -0.36808
 Alpha virt. eigenvalues --    0.08479   0.12629   0.12963   0.14051   0.15015
 Alpha virt. eigenvalues --    0.18668   0.19195   0.19377   0.20182   0.20516
 Alpha virt. eigenvalues --    0.20680   0.22031   0.22627   0.23311   0.24543
          Condensed to atoms (all electrons):
               1          2          3          4          5          6
     1  C    4.324937   0.000000   0.000000   0.000000   0.000000   0.000000
     2  C    0.000000   3.977634   0.000000   0.000000   0.000000   0.000000
     3  O    0.000000   0.000000   6.554956   0.000000   0.000000   0.000000
     4  C    0.000000   0.000000   0.000000   4.276902   0.000000   0.000000
     5  C    0.000000   0.000000   0.000000   0.000000   4.002815   0.000000
     6  O    0.000000   0.000000   0.000000   0.000000   0.000000   6.547679
     7  H    0.000000   0.000000   0.000000   0.000000   0.000000   0.000000
     8  H    0.000000   0.000000   0.000000   0.000000   0.000000   0.000000
     9  H    0.000000   0.000000   0.000000   0.000000   0.000000   0.000000
    10  H    0.000000   0.000000   0.000000   0.000000   0.000000   0.000000
    11  H    0.000000   0.000000   0.000000   0.000000   0.000000   0.000000
    12  H    0.000000   0.000000   0.000000   0.000000   0.000000   0.000000
    13  H    0.000000   0.000000   0.000000   0.000000   0.000000   0.000000
    14  H    0.000000   0.000000   0.000000   0.000000   0.000000   0.000000
    15  H    0.000000   0.000000   0.000000   0.000000   0.000000   0.000000
    16  H    0.000000   0.000000   0.000000   0.000000   0.000000   0.000000
               7          8          9         10         11         12
     1  C    0.000000   0.000000   0.000000   0.000000   0.000000   0.000000
     2  C    0.000000   0.000000   0.000000   0.000000   0.000000   0.000000
     3  O    0.000000   0.000000   0.000000   0.000000   0.000000   0.000000
     4  C    0.000000   0.000000   0.000000   0.000000   0.000000   0.000000
     5  C    0.000000   0.000000   0.000000   0.000000   0.000000   0.000000
     6  O    0.000000   0.000000   0.000000   0.000000   0.000000   0.000000
     7  H    0.860597   0.000000   0.000000   0.000000   0.000000   0.000000
     8  H    0.000000   0.848330   0.000000   0.000000   0.000000   0.000000
     9  H    0.000000   0.000000   0.872631   0.000000   0.000000   0.000000
    10  H    0.000000   0.000000   0.000000   0.891869   0.000000   0.000000
    11  H    0.000000   0.000000   0.000000   0.000000   0.671640   0.000000
    12  H    0.000000   0.000000   0.000000   0.000000   0.000000   0.845058
    13  H    0.000000   0.000000   0.000000   0.000000   0.000000   0.000000
    14  H    0.000000   0.000000   0.000000   0.000000   0.000000   0.000000
    15  H    0.000000   0.000000   0.000000   0.000000   0.000000   0.000000
    16  H    0.000000   0.000000   0.000000   0.000000   0.000000   0.000000
              13         14         15         16
     1  C    0.000000   0.000000   0.000000   0.000000
     2  C    0.000000   0.000000   0.000000   0.000000
     3  O    0.000000   0.000000   0.000000   0.000000
     4  C    0.000000   0.000000   0.000000   0.000000
     5  C    0.000000   0.000000   0.000000   0.000000
     6  O    0.000000   0.000000   0.000000   0.000000
     7  H    0.000000   0.000000   0.000000   0.000000
     8  H    0.000000   0.000000   0.000000   0.000000
     9  H    0.000000   0.000000   0.000000   0.000000
    10  H    0.000000   0.000000   0.000000   0.000000
    11  H    0.000000   0.000000   0.000000   0.000000
    12  H    0.000000   0.000000   0.000000   0.000000
    13  H    0.861761   0.000000   0.000000   0.000000
    14  H    0.000000   0.890306   0.000000   0.000000
    15  H    0.000000   0.000000   0.881411   0.000000
    16  H    0.000000   0.000000   0.000000   0.691476
 Mulliken charges:
               1
     1  C   -0.324937
     2  C    0.022366
     3  O   -0.554956
     4  C   -0.276902
     5  C   -0.002815
     6  O   -0.547679
     7  H    0.139403
     8  H    0.151670
     9  H    0.127369
    10  H    0.108131
    11  H    0.328360
    12  H    0.154942
    13  H    0.138239
    14  H    0.109694
    15  H    0.118589
    16  H    0.308524
 Sum of Mulliken charges =   0.00000
 Mulliken charges with hydrogens summed into heavy atoms:
               1
     1  C   -0.033864
     2  C    0.257867
     3  O   -0.226596
     4  C    0.016280
     5  C    0.225469
     6  O   -0.239155
 Charge=              0.0000 electrons
 Dipole moment (field-independent basis, Debye):
    X=             -2.4321    Y=              2.2732    Z=              0.2742  Tot=              3.3403
 N-N= 1.783715809216D+02 E-N=-3.102375222447D+02  KE=-2.205359255064D+01
 Calling FoFJK, ICntrl=      2127 FMM=F ISym2X=0 I1Cent= 0 IOpClX= 0 NMat=1 NMatS=1 NMatT=0.
 ***** Axes restored to original set *****
 -------------------------------------------------------------------
 Center     Atomic                   Forces (Hartrees/Bohr)
 Number     Number              X              Y              Z
 -------------------------------------------------------------------
      1        6           0.009796435    0.003215091    0.004073442
      2        6          -0.003376037   -0.017471445   -0.007261912
      3        8          -0.006161462   -0.001971959    0.000064143
      4        6          -0.004959251    0.006860345   -0.005712729
      5        6          -0.005870496   -0.007850151    0.009766256
      6        8          -0.001462685   -0.002731805   -0.002445121
      7        1          -0.003067658   -0.004279788   -0.000241096
      8        1          -0.000694489    0.000920683    0.005240258
      9        1          -0.006365225    0.005482029    0.001287122
     10        1           0.003178122    0.004803619   -0.001925983
     11        1           0.012578810    0.008463690    0.001978608
     12        1          -0.000404723   -0.000862511   -0.006696698
     13        1          -0.000026427   -0.006744019    0.002238340
     14        1           0.005659256    0.000741602   -0.001139174
     15        1          -0.001419672    0.005754555    0.001499446
     16        1           0.002595503    0.005670062   -0.000724900
 -------------------------------------------------------------------
 Cartesian Forces:  Max     0.017471445 RMS     0.005499725

 GradGradGradGradGradGradGradGradGradGradGradGradGradGradGradGradGradGrad
 Berny optimization.
 FormGI is forming the generalized inverse of G from B-inverse, IUseBI=4.
 Internal  Forces:  Max     0.015614979 RMS     0.003962336
 Search for a local minimum.
 Step number   1 out of a maximum of   84 on scan point     1 out of    37
 All quantities printed in internal units (Hartrees-Bohrs-Radians)
 Mixed Optimization -- RFO/linear search
 Second derivative matrix not updated -- first step.
 ITU=  0
     Eigenvalues ---    0.00300   0.00412   0.01191   0.01282   0.01493
     Eigenvalues ---    0.03095   0.04594   0.04690   0.04708   0.05131
     Eigenvalues ---    0.05871   0.05894   0.08955   0.09054   0.11250
     Eigenvalues ---    0.11278   0.11807   0.12687   0.13729   0.14096
     Eigenvalues ---    0.16000   0.16000   0.21997   0.22001   0.22010
     Eigenvalues ---    0.22052   0.28459   0.28949   0.29721   0.33170
     Eigenvalues ---    0.33660   0.33732   0.33752   0.33798   0.33804
     Eigenvalues ---    0.33862   0.34101   0.39880   0.43219   0.51864
     Eigenvalues ---    0.534141000.000001000.000001000.000001000.00000
     Eigenvalues --- 1000.000001000.000001000.000001000.000001000.00000
     Eigenvalues --- 1000.000001000.000001000.000001000.000001000.00000
     Eigenvalues --- 1000.000001000.000001000.000001000.000001000.00000
     Eigenvalues --- 1000.000001000.000001000.000001000.000001000.00000
     Eigenvalues --- 1000.000001000.000001000.000001000.000001000.00000
     Eigenvalues --- 1000.000001000.000001000.000001000.00000
 RFO step:  Lambda=-6.12236252D-03 EMin= 3.00421198D-03
 Linear search not attempted -- first point.
 Iteration  1 RMS(Cart)=  0.06354366 RMS(Int)=  0.00237147
 Iteration  2 RMS(Cart)=  0.00272956 RMS(Int)=  0.00041135
 Iteration  3 RMS(Cart)=  0.00000763 RMS(Int)=  0.00041130
 Iteration  4 RMS(Cart)=  0.00000000 RMS(Int)=  0.00041130
 Iteration  1 RMS(Cart)=  0.00001522 RMS(Int)=  0.00000795
 Iteration  2 RMS(Cart)=  0.00001003 RMS(Int)=  0.00000880
 Iteration  3 RMS(Cart)=  0.00000660 RMS(Int)=  0.00001011
 Iteration  4 RMS(Cart)=  0.00000435 RMS(Int)=  0.00001120
 Iteration  5 RMS(Cart)=  0.00000286 RMS(Int)=  0.00001198
 Iteration  6 RMS(Cart)=  0.00000189 RMS(Int)=  0.00001252
 Iteration  7 RMS(Cart)=  0.00000124 RMS(Int)=  0.00001288
 Iteration  8 RMS(Cart)=  0.00000082 RMS(Int)=  0.00001313
 Variable       Old X    -DE/DX   Delta X   Delta X   Delta X     New X
                                 (Linear)    (Quad)   (Total)
    R1        2.90109   0.00307   0.00000   0.01038   0.01038   2.91148
    R2        2.91146  -0.00591   0.00000  -0.02035  -0.02035   2.89111
    R3        2.07785   0.00512   0.00000   0.01491   0.01491   2.09277
    R4        2.07672   0.00528   0.00000   0.01536   0.01536   2.09208
    R5        2.67400   0.00824   0.00000   0.01880   0.01880   2.69280
    R6        2.07159   0.00628   0.00000   0.01808   0.01808   2.08968
    R7        2.08754   0.00193   0.00000   0.00572   0.00572   2.09326
    R8        1.84730   0.01274   0.00000   0.02428   0.02428   1.87158
    R9        2.88522   0.00342   0.00000   0.01129   0.01129   2.89651
   R10        2.07662   0.00628   0.00000   0.01826   0.01826   2.09487
   R11        2.07563   0.00680   0.00000   0.01973   0.01973   2.09536
   R12        2.71717   0.00439   0.00000   0.01084   0.01084   2.72801
   R13        2.07750   0.00459   0.00000   0.01335   0.01335   2.09085
   R14        2.07908   0.00377   0.00000   0.01101   0.01101   2.09009
   R15        1.83269   0.00519   0.00000   0.00960   0.00960   1.84229
    A1        2.03773  -0.00518   0.00000  -0.02385  -0.02384   2.01389
    A2        1.88309   0.00136   0.00000   0.00874   0.00877   1.89186
    A3        1.88649   0.00239   0.00000   0.00984   0.00973   1.89621
    A4        1.87681   0.00160   0.00000   0.00695   0.00700   1.88381
    A5        1.91208   0.00107   0.00000   0.00097   0.00099   1.91306
    A6        1.85981  -0.00099   0.00000  -0.00093  -0.00100   1.85881
    A7        1.98940  -0.00275   0.00000  -0.02000  -0.01977   1.96963
    A8        1.89641   0.00415   0.00000   0.03173   0.03076   1.92717
    A9        1.90936   0.00421   0.00000   0.03512   0.03433   1.94370
   A10        1.85128  -0.00335   0.00000  -0.04208  -0.04188   1.80941
   A11        1.94589  -0.00243   0.00000  -0.02901  -0.02875   1.91715
   A12        1.86604   0.00030   0.00000   0.02672   0.02490   1.89094
   A13        1.84970   0.01561   0.00000   0.09400   0.09400   1.94370
   A14        2.04378  -0.00597   0.00000  -0.02811  -0.02810   2.01569
   A15        1.92346   0.00037   0.00000  -0.01016  -0.01012   1.91333
   A16        1.88779   0.00065   0.00000  -0.00113  -0.00089   1.88690
   A17        1.88282   0.00332   0.00000   0.01541   0.01499   1.89781
   A18        1.86120   0.00289   0.00000   0.02417   0.02409   1.88529
   A19        1.85519  -0.00082   0.00000   0.00345   0.00315   1.85835
   A20        1.91211  -0.00696   0.00000  -0.03836  -0.03822   1.87389
   A21        1.90902   0.00380   0.00000   0.02701   0.02607   1.93509
   A22        1.92548   0.00442   0.00000   0.03233   0.03152   1.95700
   A23        1.90259  -0.00051   0.00000  -0.02304  -0.02278   1.87981
   A24        1.92898  -0.00032   0.00000  -0.01909  -0.01870   1.91028
   A25        1.88525  -0.00031   0.00000   0.02194   0.02064   1.90589
   A26        1.88799   0.00648   0.00000   0.03900   0.03900   1.92699
    D1       -1.25573  -0.00079   0.00000  -0.04798  -0.04797  -1.30370
    D2        2.96737   0.00229   0.00000  -0.00437  -0.00379   2.96358
    D3        0.93598  -0.00272   0.00000  -0.07346  -0.07398   0.86200
    D4        2.91299  -0.00041   0.00000  -0.04768  -0.04767   2.86532
    D5        0.85290   0.00266   0.00000  -0.00407  -0.00349   0.84941
    D6       -1.17849  -0.00235   0.00000  -0.07316  -0.07368  -1.25216
    D7        0.90819  -0.00117   0.00000  -0.05603  -0.05609   0.85210
    D8       -1.15190   0.00191   0.00000  -0.01242  -0.01191  -1.16381
    D9        3.09990  -0.00310   0.00000  -0.08151  -0.08210   3.01780
   D10        1.18771   0.00052   0.00000   0.00000   0.00000   1.18771
   D11       -0.97241   0.00034   0.00000   0.00970   0.00957  -0.96284
   D12       -2.99368   0.00076   0.00000   0.01172   0.01175  -2.98192
   D13       -2.97770   0.00004   0.00000   0.00073   0.00075  -2.97696
   D14        1.14536  -0.00014   0.00000   0.01042   0.01031   1.15567
   D15       -0.87591   0.00028   0.00000   0.01245   0.01250  -0.86341
   D16       -0.96308   0.00030   0.00000   0.00391   0.00391  -0.95917
   D17       -3.12320   0.00012   0.00000   0.01361   0.01347  -3.10973
   D18        1.13871   0.00053   0.00000   0.01563   0.01566   1.15437
   D19        1.14649   0.00013   0.00000   0.00517   0.00503   1.15152
   D20       -3.05091   0.00142   0.00000   0.00448   0.00459  -3.04632
   D21       -1.02578  -0.00141   0.00000  -0.00294  -0.00291  -1.02869
   D22       -1.32990  -0.00055   0.00000  -0.04582  -0.04580  -1.37570
   D23        2.86882   0.00197   0.00000  -0.01089  -0.01042   2.85840
   D24        0.79747  -0.00265   0.00000  -0.07388  -0.07437   0.72310
   D25        0.85074  -0.00171   0.00000  -0.06757  -0.06771   0.78303
   D26       -1.23372   0.00081   0.00000  -0.03263  -0.03234  -1.26606
   D27        2.97812  -0.00381   0.00000  -0.09563  -0.09629   2.88183
   D28        2.83753   0.00029   0.00000  -0.04465  -0.04446   2.79307
   D29        0.75306   0.00281   0.00000  -0.00971  -0.00908   0.74398
   D30       -1.31829  -0.00181   0.00000  -0.07271  -0.07303  -1.39132
   D31        3.10743   0.00009   0.00000  -0.00320  -0.00325   3.10418
   D32       -1.08733   0.00025   0.00000  -0.00719  -0.00683  -1.09417
   D33        0.98216  -0.00063   0.00000  -0.00588  -0.00618   0.97597
         Item               Value     Threshold  Converged?
 Maximum Force            0.015615     0.000450     NO 
 RMS     Force            0.003988     0.000300     NO 
 Maximum Displacement     0.245571     0.001800     NO 
 RMS     Displacement     0.063640     0.001200     NO 
 Predicted change in Energy=-3.350949D-03
 GradGradGradGradGradGradGradGradGradGradGradGradGradGradGradGradGradGrad

                          Input orientation:                          
 ---------------------------------------------------------------------
 Center     Atomic      Atomic             Coordinates (Angstroms)
 Number     Number       Type             X           Y           Z
 ---------------------------------------------------------------------
      1          6           0        1.616533    1.228640    1.965355
      2          6           0        1.165365    2.365194    1.028120
      3          8           0        1.517217    3.657091    1.515707
      4          6           0        3.114431    0.917918    1.945749
      5          6           0        4.021852    2.007724    2.527377
      6          8           0        4.164367    3.032409    1.520553
      7          1           0        1.073148    0.306024    1.682609
      8          1           0        1.301681    1.475161    2.997696
      9          1           0        0.061764    2.400272    0.967724
     10          1           0        1.566284    2.227484    0.004737
     11          1           0        2.499650    3.781380    1.531950
     12          1           0        3.436597    0.703225    0.906990
     13          1           0        3.281062   -0.012558    2.525336
     14          1           0        5.029981    1.606844    2.744546
     15          1           0        3.601066    2.452435    3.448500
     16          1           0        4.708702    3.767358    1.858152
 ---------------------------------------------------------------------
                    Distance matrix (angstroms):
                    1          2          3          4          5
     1  C    0.000000
     2  C    1.540688   0.000000
     3  O    2.471724   1.424970   0.000000
     4  C    1.529912   2.595285   3.199858   0.000000
     5  C    2.590058   3.245777   3.164977   1.532769   0.000000
     6  O    3.153235   3.111539   2.719863   2.398797   1.443601
     7  H    1.107444   2.162647   3.384479   2.147206   3.507744
     8  H    1.107083   2.165634   2.646424   2.168681   2.811433
     9  H    2.187532   1.105809   1.999555   3.531668   4.274213
    10  H    2.200963   1.107706   2.080676   2.806999   3.527296
    11  H    2.735730   2.009912   0.990398   2.957803   2.540438
    12  H    2.169984   2.816967   3.574896   1.108559   2.160994
    13  H    2.150536   3.517319   4.194857   1.108816   2.151817
    14  H    3.521619   4.296099   4.248890   2.186784   1.106432
    15  H    2.763289   3.434893   3.086958   2.202230   1.106027
    16  H    4.002261   3.900033   3.211698   3.266295   2.003980
                    6          7          8          9         10
     6  O    0.000000
     7  H    4.124933   0.000000
     8  H    3.577980   1.774418   0.000000
     9  H    4.187668   2.433071   2.552255   0.000000
    10  H    3.113782   2.598162   3.097387   1.794653   0.000000
    11  H    1.825477   3.759748   2.983653   2.858163   2.370263
    12  H    2.516189   2.518977   3.086228   3.777982   2.575945
    13  H    3.325905   2.384652   2.520790   4.314137   3.783076
    14  H    2.068739   4.298414   3.739204   5.335710   4.459702
    15  H    2.090611   3.757103   2.538792   4.322456   4.006300
    16  H    0.974897   5.022838   4.261516   4.925019   3.959943
                   11         12         13         14         15
    11  H    0.000000
    12  H    3.277725   0.000000
    13  H    3.998923   1.776395   0.000000
    14  H    3.549869   2.594612   2.393582   0.000000
    15  H    2.579219   3.089670   2.651571   1.803434   0.000000
    16  H    2.233050   3.451358   4.095248   2.357273   2.342025
                   16
    16  H    0.000000
 Stoichiometry    C4H10O2
 Framework group  C1[X(C4H10O2)]
 Deg. of freedom    42
 Full point group                 C1      NOp   1
 Largest Abelian subgroup         C1      NOp   1
 Largest concise Abelian subgroup C1      NOp   1
                         Standard orientation:                         
 ---------------------------------------------------------------------
 Center     Atomic      Atomic             Coordinates (Angstroms)
 Number     Number       Type             X           Y           Z
 ---------------------------------------------------------------------
      1          6           0        0.814909    1.166732    0.207799
      2          6           0        1.608475   -0.041892   -0.324366
      3          8           0        1.282215   -1.256503    0.345570
      4          6           0       -0.652258    1.228538   -0.221422
      5          6           0       -1.557801    0.140270    0.365984
      6          8           0       -1.328725   -1.066542   -0.392376
      7          1           0        1.311842    2.092539   -0.142016
      8          1           0        0.879328    1.173590    1.312984
      9          1           0        2.688089    0.086202   -0.122277
     10          1           0        1.470570   -0.166032   -1.416420
     11          1           0        0.347183   -1.528375    0.164772
     12          1           0       -0.718695    1.188465   -1.327263
     13          1           0       -1.059093    2.214219    0.082537
     14          1           0       -2.624479    0.411487    0.252707
     15          1           0       -1.342172   -0.049415    1.434075
     16          1           0       -1.860453   -1.800207   -0.032619
 ---------------------------------------------------------------------
 Rotational constants (GHZ):      4.5149093      2.9737736      2.0228780
 Standard basis: VSTO-6G (5D, 7F)
 There are    34 symmetry adapted cartesian basis functions of A   symmetry.
 There are    34 symmetry adapted basis functions of A   symmetry.
    34 basis functions,   204 primitive gaussians,    34 cartesian basis functions
    19 alpha electrons       19 beta electrons
       nuclear repulsion energy       178.7310113092 Hartrees.
 Integral buffers will be    131072 words long.
 Regular integral format.
 Two-electron integral symmetry is turned off.
 Do NDO integrals.
 One-electron integrals computed using PRISM.
 NBasis=    34 RedAO= F EigKep=  0.00D+00  NBF=    34
 NBsUse=    34 1.00D-04 EigRej=  0.00D+00 NBFU=    34
 Initial guess from the checkpoint file:  "1-4-butanediol-opt.chk"
 B after Tr=     0.000000   -0.000000    0.000000
         Rot=    0.999993   -0.001386   -0.001964   -0.003010 Ang=  -0.44 deg.
 Overlap will be assumed to be unity.
 Keep J ints in memory in canonical form, NReq=895124.
 Requested convergence on RMS density matrix=1.00D-08 within 128 cycles.
 Requested convergence on MAX density matrix=1.00D-06.
 Requested convergence on             energy=1.00D-06.
 No special actions if energy rises.
 SCF Done:  E(RPM6) = -0.169047460454     A.U. after   12 cycles
            NFock= 11  Conv=0.43D-08     -V/T= 0.9923
 Calling FoFJK, ICntrl=      2127 FMM=F ISym2X=0 I1Cent= 0 IOpClX= 0 NMat=1 NMatS=1 NMatT=0.
 ***** Axes restored to original set *****
 -------------------------------------------------------------------
 Center     Atomic                   Forces (Hartrees/Bohr)
 Number     Number              X              Y              Z
 -------------------------------------------------------------------
      1        6          -0.000158147    0.004530092    0.000340288
      2        6           0.003349923   -0.006106081   -0.002115786
      3        8          -0.005902505    0.000772248    0.001583464
      4        6           0.002145117    0.003504518   -0.001696498
      5        6          -0.001190231   -0.005171392    0.005445688
      6        8          -0.001466259    0.000560782   -0.002915328
      7        1          -0.001641479   -0.000086499    0.000534525
      8        1          -0.000679441    0.000656798    0.000489916
      9        1          -0.000465624    0.001968188    0.001226286
     10        1           0.001399868    0.001399184    0.001741671
     11        1           0.001587568   -0.002804663   -0.002136204
     12        1           0.000599441    0.000533901   -0.001161575
     13        1           0.001227936   -0.000897692   -0.000445499
     14        1           0.000060621    0.000148153   -0.000321925
     15        1          -0.000475016    0.000929972   -0.001431952
     16        1           0.001608229    0.000062490    0.000862928
 -------------------------------------------------------------------
 Cartesian Forces:  Max     0.006106081 RMS     0.002249331

 GradGradGradGradGradGradGradGradGradGradGradGradGradGradGradGradGradGrad
 Berny optimization.
 Using GEDIIS/GDIIS optimizer.
 FormGI is forming the generalized inverse of G from B-inverse, IUseBI=4.
 Internal  Forces:  Max     0.006661023 RMS     0.001337726
 Search for a local minimum.
 Step number   2 out of a maximum of   84 on scan point     1 out of    37
 All quantities printed in internal units (Hartrees-Bohrs-Radians)
 Mixed Optimization -- RFO/linear search
 Update second derivatives using D2CorX and points    1    2
 DE= -2.98D-03 DEPred=-3.35D-03 R= 8.88D-01
 TightC=F SS=  1.41D+00  RLast= 2.89D-01 DXNew= 5.0454D-01 8.6579D-01
 Trust test= 8.88D-01 RLast= 2.89D-01 DXMaxT set to 5.05D-01
 ITU=  1  0
 Use linear search instead of GDIIS.
     Eigenvalues ---    0.00301   0.00402   0.01193   0.01330   0.01491
     Eigenvalues ---    0.03225   0.04702   0.04707   0.04759   0.05019
     Eigenvalues ---    0.05354   0.05654   0.08726   0.08889   0.11063
     Eigenvalues ---    0.11224   0.11694   0.12516   0.13560   0.14017
     Eigenvalues ---    0.15980   0.18973   0.21778   0.21969   0.22032
     Eigenvalues ---    0.22924   0.28592   0.29392   0.30866   0.32904
     Eigenvalues ---    0.33439   0.33724   0.33749   0.33799   0.33834
     Eigenvalues ---    0.33994   0.34207   0.39685   0.44533   0.51230
     Eigenvalues ---    0.532891000.000001000.000001000.000001000.00000
     Eigenvalues --- 1000.000001000.000001000.000001000.000001000.00000
     Eigenvalues --- 1000.000001000.000001000.000001000.000001000.00000
     Eigenvalues --- 1000.000001000.000001000.000001000.000001000.00000
     Eigenvalues --- 1000.000001000.000001000.000001000.000001000.00000
     Eigenvalues --- 1000.000001000.000001000.000001000.000001000.00000
     Eigenvalues --- 1000.000001000.000001000.000001000.00000
 RFO step:  Lambda=-1.26376120D-03 EMin= 3.01199642D-03
 Quartic linear search produced a step of -0.01214.
 Iteration  1 RMS(Cart)=  0.06106729 RMS(Int)=  0.00172985
 Iteration  2 RMS(Cart)=  0.00242448 RMS(Int)=  0.00006453
 Iteration  3 RMS(Cart)=  0.00000289 RMS(Int)=  0.00006451
 Iteration  4 RMS(Cart)=  0.00000000 RMS(Int)=  0.00006451
 Iteration  1 RMS(Cart)=  0.00000326 RMS(Int)=  0.00000172
 Iteration  2 RMS(Cart)=  0.00000214 RMS(Int)=  0.00000191
 Iteration  3 RMS(Cart)=  0.00000141 RMS(Int)=  0.00000219
 Iteration  4 RMS(Cart)=  0.00000093 RMS(Int)=  0.00000243
 Variable       Old X    -DE/DX   Delta X   Delta X   Delta X     New X
                                 (Linear)    (Quad)   (Total)
    R1        2.91148  -0.00369  -0.00013  -0.01081  -0.01094   2.90054
    R2        2.89111   0.00255   0.00025   0.00561   0.00586   2.89697
    R3        2.09277   0.00074  -0.00018   0.00438   0.00420   2.09697
    R4        2.09208   0.00080  -0.00019   0.00461   0.00442   2.09650
    R5        2.69280  -0.00310  -0.00023  -0.00412  -0.00435   2.68845
    R6        2.08968   0.00046  -0.00022   0.00404   0.00382   2.09350
    R7        2.09326  -0.00128  -0.00007  -0.00287  -0.00294   2.09032
    R8        1.87158   0.00119  -0.00029   0.00589   0.00560   1.87718
    R9        2.89651  -0.00271  -0.00014  -0.00715  -0.00729   2.88923
   R10        2.09487   0.00116  -0.00022   0.00609   0.00586   2.10074
   R11        2.09536   0.00070  -0.00024   0.00500   0.00476   2.10012
   R12        2.72801   0.00189  -0.00013   0.00624   0.00610   2.73411
   R13        2.09085  -0.00006  -0.00016   0.00184   0.00168   2.09253
   R14        2.09009  -0.00064  -0.00013  -0.00018  -0.00031   2.08978
   R15        1.84229   0.00124  -0.00012   0.00371   0.00360   1.84589
    A1        2.01389   0.00090   0.00029   0.00184   0.00211   2.01600
    A2        1.89186  -0.00152  -0.00011  -0.00095  -0.00111   1.89075
    A3        1.89621   0.00003  -0.00012  -0.00798  -0.00810   1.88811
    A4        1.88381   0.00050  -0.00008   0.01073   0.01064   1.89444
    A5        1.91306   0.00016  -0.00001   0.00218   0.00217   1.91524
    A6        1.85881  -0.00017   0.00001  -0.00644  -0.00646   1.85235
    A7        1.96963   0.00040   0.00024  -0.00576  -0.00550   1.96413
    A8        1.92717   0.00063  -0.00037   0.00997   0.00937   1.93654
    A9        1.94370   0.00042  -0.00042   0.01282   0.01225   1.95595
   A10        1.80941  -0.00166   0.00051  -0.02693  -0.02642   1.78298
   A11        1.91715  -0.00079   0.00035  -0.01258  -0.01219   1.90496
   A12        1.89094   0.00090  -0.00030   0.02109   0.02044   1.91137
   A13        1.94370  -0.00666  -0.00114  -0.02609  -0.02723   1.91647
   A14        2.01569   0.00130   0.00034   0.00248   0.00280   2.01849
   A15        1.91333  -0.00002   0.00012  -0.00086  -0.00073   1.91260
   A16        1.88690   0.00007   0.00001   0.00569   0.00568   1.89258
   A17        1.89781  -0.00011  -0.00018  -0.00718  -0.00734   1.89047
   A18        1.88529  -0.00140  -0.00029   0.00280   0.00247   1.88776
   A19        1.85835   0.00004  -0.00004  -0.00324  -0.00327   1.85508
   A20        1.87389  -0.00078   0.00046  -0.01161  -0.01116   1.86273
   A21        1.93509  -0.00007  -0.00032   0.00292   0.00248   1.93757
   A22        1.95700   0.00078  -0.00038   0.01228   0.01184   1.96884
   A23        1.87981  -0.00020   0.00028  -0.01090  -0.01066   1.86915
   A24        1.91028  -0.00015   0.00023  -0.00576  -0.00548   1.90480
   A25        1.90589   0.00036  -0.00025   0.01154   0.01118   1.91708
   A26        1.92699  -0.00164  -0.00047  -0.00401  -0.00449   1.92251
    D1       -1.30370  -0.00082   0.00058  -0.06042  -0.05984  -1.36354
    D2        2.96358   0.00060   0.00005  -0.02974  -0.02961   2.93397
    D3        0.86200  -0.00124   0.00090  -0.07151  -0.07071   0.79129
    D4        2.86532  -0.00094   0.00058  -0.07486  -0.07427   2.79105
    D5        0.84941   0.00048   0.00004  -0.04419  -0.04404   0.80538
    D6       -1.25216  -0.00135   0.00089  -0.08596  -0.08514  -1.33731
    D7        0.85210   0.00005   0.00068  -0.06255  -0.06188   0.79022
    D8       -1.16381   0.00147   0.00014  -0.03187  -0.03164  -1.19545
    D9        3.01780  -0.00036   0.00100  -0.07364  -0.07274   2.94505
   D10        1.18771   0.00194  -0.00000   0.00000  -0.00001   1.18771
   D11       -0.96284   0.00113  -0.00012   0.00841   0.00829  -0.95455
   D12       -2.98192   0.00105  -0.00014   0.00957   0.00943  -2.97249
   D13       -2.97696   0.00096  -0.00001   0.00809   0.00809  -2.96886
   D14        1.15567   0.00015  -0.00013   0.01650   0.01639   1.17206
   D15       -0.86341   0.00007  -0.00015   0.01766   0.01753  -0.84588
   D16       -0.95917   0.00112  -0.00005   0.00751   0.00747  -0.95171
   D17       -3.10973   0.00032  -0.00016   0.01593   0.01577  -3.09396
   D18        1.15437   0.00023  -0.00019   0.01709   0.01691   1.17128
   D19        1.15152   0.00065  -0.00006   0.03654   0.03641   1.18794
   D20       -3.04632   0.00058  -0.00006   0.02881   0.02879  -3.01753
   D21       -1.02869   0.00040   0.00004   0.03360   0.03366  -0.99503
   D22       -1.37570  -0.00093   0.00056  -0.08657  -0.08599  -1.46169
   D23        2.85840  -0.00019   0.00013  -0.06818  -0.06803   2.79036
   D24        0.72310  -0.00116   0.00090  -0.09390  -0.09304   0.63006
   D25        0.78303  -0.00009   0.00082  -0.09164  -0.09080   0.69223
   D26       -1.26606   0.00065   0.00039  -0.07326  -0.07284  -1.33890
   D27        2.88183  -0.00032   0.00117  -0.09897  -0.09785   2.78398
   D28        2.79307  -0.00084   0.00054  -0.09770  -0.09714   2.69593
   D29        0.74398  -0.00010   0.00011  -0.07931  -0.07918   0.66480
   D30       -1.39132  -0.00107   0.00089  -0.10503  -0.10419  -1.49551
   D31        3.10418   0.00091   0.00004   0.04615   0.04616  -3.13284
   D32       -1.09417   0.00029   0.00008   0.03741   0.03754  -1.05663
   D33        0.97597   0.00052   0.00008   0.04174   0.04179   1.01776
         Item               Value     Threshold  Converged?
 Maximum Force            0.006661     0.000450     NO 
 RMS     Force            0.001290     0.000300     NO 
 Maximum Displacement     0.214345     0.001800     NO 
 RMS     Displacement     0.061167     0.001200     NO 
 Predicted change in Energy=-7.124541D-04
 GradGradGradGradGradGradGradGradGradGradGradGradGradGradGradGradGradGrad

                          Input orientation:                          
 ---------------------------------------------------------------------
 Center     Atomic      Atomic             Coordinates (Angstroms)
 Number     Number       Type             X           Y           Z
 ---------------------------------------------------------------------
      1          6           0        1.616360    1.224797    1.961543
      2          6           0        1.156635    2.357622    1.033492
      3          8           0        1.429191    3.646684    1.570159
      4          6           0        3.119755    0.925476    1.943318
      5          6           0        4.018560    2.014439    2.529737
      6          8           0        4.243295    2.980717    1.476589
      7          1           0        1.069151    0.300801    1.681979
      8          1           0        1.296121    1.472092    2.994552
      9          1           0        0.052667    2.371590    0.942128
     10          1           0        1.609706    2.280309    0.027354
     11          1           0        2.410187    3.801264    1.592891
     12          1           0        3.447434    0.726448    0.899858
     13          1           0        3.298084   -0.013458    2.510474
     14          1           0        5.007672    1.603926    2.811325
     15          1           0        3.562753    2.524595    3.398594
     16          1           0        4.822129    3.699297    1.797109
 ---------------------------------------------------------------------
                    Distance matrix (angstroms):
                    1          2          3          4          5
     1  C    0.000000
     2  C    1.534900   0.000000
     3  O    2.460437   1.422666   0.000000
     4  C    1.533010   2.594738   3.225248   0.000000
     5  C    2.591706   3.247636   3.207779   1.528914   0.000000
     6  O    3.196751   3.179945   2.893346   2.388345   1.446831
     7  H    1.109668   2.158402   3.367056   2.159513   3.514863
     8  H    1.109421   2.156241   2.602970   2.174747   2.814581
     9  H    2.190771   1.107830   1.978663   3.535626   4.286766
    10  H    2.203460   1.106148   2.068771   2.790472   3.483559
    11  H    2.721074   1.992089   0.993360   2.982690   2.580172
    12  H    2.174478   2.815377   3.612531   1.111662   2.154439
    13  H    2.159351   3.519845   4.215874   1.111335   2.152167
    14  H    3.516655   4.308043   4.303357   2.185855   1.107319
    15  H    2.746459   3.378016   3.025615   2.207092   1.105862
    16  H    4.053040   3.977316   3.400926   3.257842   2.005296
                    6          7          8          9         10
     6  O    0.000000
     7  H    4.159245   0.000000
     8  H    3.642251   1.773777   0.000000
     9  H    4.268260   2.422557   2.562756   0.000000
    10  H    3.086526   2.635988   3.091248   1.808180   0.000000
    11  H    2.011743   3.749607   2.937829   2.832906   2.324861
    12  H    2.459215   2.539511   3.093844   3.772627   2.559881
    13  H    3.305666   2.398606   2.539498   4.322140   3.778607
    14  H    2.064303   4.299477   3.718409   5.351194   4.444565
    15  H    2.089327   3.756339   2.531528   4.286996   3.903758
    16  H    0.976801   5.064373   4.339014   5.024098   3.932584
                   11         12         13         14         15
    11  H    0.000000
    12  H    3.318232   0.000000
    13  H    4.022738   1.778722   0.000000
    14  H    3.613835   2.618781   2.372579   0.000000
    15  H    2.493763   3.080635   2.701948   1.811162   0.000000
    16  H    2.422719   3.395979   4.076291   2.335303   2.351745
                   16
    16  H    0.000000
 Stoichiometry    C4H10O2
 Framework group  C1[X(C4H10O2)]
 Deg. of freedom    42
 Full point group                 C1      NOp   1
 Largest Abelian subgroup         C1      NOp   1
 Largest concise Abelian subgroup C1      NOp   1
                         Standard orientation:                         
 ---------------------------------------------------------------------
 Center     Atomic      Atomic             Coordinates (Angstroms)
 Number     Number       Type             X           Y           Z
 ---------------------------------------------------------------------
      1          6           0        0.825391    1.156875    0.184179
      2          6           0        1.604664   -0.047034   -0.362865
      3          8           0        1.356491   -1.237991    0.374705
      4          6           0       -0.657000    1.214607   -0.202221
      5          6           0       -1.543925    0.131675    0.412758
      6          8           0       -1.416024   -1.038602   -0.428320
      7          1           0        1.319556    2.084014   -0.172999
      8          1           0        0.924931    1.160562    1.289120
      9          1           0        2.695102    0.090508   -0.223889
     10          1           0        1.388729   -0.230815   -1.432052
     11          1           0        0.418868   -1.533242    0.231688
     12          1           0       -0.756153    1.160989   -1.308154
     13          1           0       -1.060465    2.205268    0.099229
     14          1           0       -2.609483    0.432222    0.392458
     15          1           0       -1.247349   -0.129936    1.445489
     16          1           0       -1.972250   -1.763556   -0.083075
 ---------------------------------------------------------------------
 Rotational constants (GHZ):      4.5602082      2.8370662      1.9900926
 Standard basis: VSTO-6G (5D, 7F)
 There are    34 symmetry adapted cartesian basis functions of A   symmetry.
 There are    34 symmetry adapted basis functions of A   symmetry.
    34 basis functions,   204 primitive gaussians,    34 cartesian basis functions
    19 alpha electrons       19 beta electrons
       nuclear repulsion energy       178.1159201364 Hartrees.
 Integral buffers will be    131072 words long.
 Regular integral format.
 Two-electron integral symmetry is turned off.
 Do NDO integrals.
 One-electron integrals computed using PRISM.
 NBasis=    34 RedAO= F EigKep=  0.00D+00  NBF=    34
 NBsUse=    34 1.00D-04 EigRej=  0.00D+00 NBFU=    34
 Initial guess from the checkpoint file:  "1-4-butanediol-opt.chk"
 B after Tr=    -0.000000   -0.000000   -0.000000
         Rot=    0.999958   -0.000626   -0.009115    0.001159 Ang=  -1.06 deg.
 Overlap will be assumed to be unity.
 Keep J ints in memory in canonical form, NReq=895124.
 Requested convergence on RMS density matrix=1.00D-08 within 128 cycles.
 Requested convergence on MAX density matrix=1.00D-06.
 Requested convergence on             energy=1.00D-06.
 No special actions if energy rises.
 SCF Done:  E(RPM6) = -0.169421650595     A.U. after   12 cycles
            NFock= 11  Conv=0.39D-08     -V/T= 0.9923
 Calling FoFJK, ICntrl=      2127 FMM=F ISym2X=0 I1Cent= 0 IOpClX= 0 NMat=1 NMatS=1 NMatT=0.
 ***** Axes restored to original set *****
 -------------------------------------------------------------------
 Center     Atomic                   Forces (Hartrees/Bohr)
 Number     Number              X              Y              Z
 -------------------------------------------------------------------
      1        6           0.000590033    0.001799565    0.002398322
      2        6          -0.000366720   -0.005061655   -0.004018841
      3        8           0.002779387    0.004620314    0.003420538
      4        6          -0.000378462    0.000714539   -0.002402472
      5        6           0.000668554   -0.001706615    0.003024017
      6        8          -0.003305231    0.001754774   -0.000887565
      7        1           0.000129053    0.000335418    0.000706534
      8        1           0.000083228   -0.000072037    0.000153648
      9        1          -0.000289775   -0.000812055   -0.000348014
     10        1           0.000355271   -0.000375725    0.000737393
     11        1          -0.000008183   -0.001065448   -0.001068736
     12        1          -0.000064741    0.000417169   -0.000209561
     13        1           0.000187216    0.000349938   -0.001129942
     14        1          -0.000799135   -0.000181835    0.000897033
     15        1          -0.000115114    0.000003722   -0.001333900
     16        1           0.000534618   -0.000720068    0.000061545
 -------------------------------------------------------------------
 Cartesian Forces:  Max     0.005061655 RMS     0.001683800

 GradGradGradGradGradGradGradGradGradGradGradGradGradGradGradGradGradGrad
 Berny optimization.
 Using GEDIIS/GDIIS optimizer.
 FormGI is forming the generalized inverse of G from B-inverse, IUseBI=4.
 Internal  Forces:  Max     0.006574010 RMS     0.001687399
 Search for a local minimum.
 Step number   3 out of a maximum of   84 on scan point     1 out of    37
 All quantities printed in internal units (Hartrees-Bohrs-Radians)
 Mixed Optimization -- RFO/linear search
 Update second derivatives using D2CorX and points    1    2    3
 DE= -3.74D-04 DEPred=-7.12D-04 R= 5.25D-01
 TightC=F SS=  1.41D+00  RLast= 3.44D-01 DXNew= 8.4853D-01 1.0315D+00
 Trust test= 5.25D-01 RLast= 3.44D-01 DXMaxT set to 8.49D-01
 ITU=  1  1  0
 Use linear search instead of GDIIS.
     Eigenvalues ---    0.00320   0.00502   0.01041   0.01300   0.01461
     Eigenvalues ---    0.03200   0.03672   0.04714   0.04756   0.04985
     Eigenvalues ---    0.05571   0.06086   0.08740   0.08916   0.11042
     Eigenvalues ---    0.11291   0.11710   0.12537   0.13527   0.13993
     Eigenvalues ---    0.15946   0.19529   0.21413   0.21996   0.22082
     Eigenvalues ---    0.26229   0.28507   0.29615   0.31941   0.33370
     Eigenvalues ---    0.33587   0.33740   0.33778   0.33804   0.33848
     Eigenvalues ---    0.34143   0.35866   0.39465   0.48282   0.52031
     Eigenvalues ---    0.535621000.000001000.000001000.000001000.00000
     Eigenvalues --- 1000.000001000.000001000.000001000.000001000.00000
     Eigenvalues --- 1000.000001000.000001000.000001000.000001000.00000
     Eigenvalues --- 1000.000001000.000001000.000001000.000001000.00000
     Eigenvalues --- 1000.000001000.000001000.000001000.000001000.00000
     Eigenvalues --- 1000.000001000.000001000.000001000.000001000.00000
     Eigenvalues --- 1000.000001000.000001000.000001000.00000
 RFO step:  Lambda=-1.04151446D-03 EMin= 3.19562779D-03
 Quartic linear search produced a step of -0.27827.
 Iteration  1 RMS(Cart)=  0.06070727 RMS(Int)=  0.00145738
 Iteration  2 RMS(Cart)=  0.00164524 RMS(Int)=  0.00015168
 Iteration  3 RMS(Cart)=  0.00000109 RMS(Int)=  0.00015167
 Iteration  4 RMS(Cart)=  0.00000000 RMS(Int)=  0.00015167
 Iteration  1 RMS(Cart)=  0.00002710 RMS(Int)=  0.00001407
 Iteration  2 RMS(Cart)=  0.00001782 RMS(Int)=  0.00001558
 Iteration  3 RMS(Cart)=  0.00001171 RMS(Int)=  0.00001790
 Iteration  4 RMS(Cart)=  0.00000770 RMS(Int)=  0.00001982
 Iteration  5 RMS(Cart)=  0.00000506 RMS(Int)=  0.00002120
 Iteration  6 RMS(Cart)=  0.00000333 RMS(Int)=  0.00002215
 Iteration  7 RMS(Cart)=  0.00000219 RMS(Int)=  0.00002279
 Iteration  8 RMS(Cart)=  0.00000144 RMS(Int)=  0.00002321
 Iteration  9 RMS(Cart)=  0.00000095 RMS(Int)=  0.00002350
 Variable       Old X    -DE/DX   Delta X   Delta X   Delta X     New X
                                 (Linear)    (Quad)   (Total)
    R1        2.90054  -0.00196   0.00304  -0.01568  -0.01264   2.88790
    R2        2.89697  -0.00331  -0.00163  -0.00465  -0.00628   2.89069
    R3        2.09697  -0.00052  -0.00117   0.00676   0.00559   2.10256
    R4        2.09650   0.00010  -0.00123   0.00835   0.00712   2.10362
    R5        2.68845   0.00464   0.00121   0.00556   0.00677   2.69522
    R6        2.09350   0.00031  -0.00106   0.00854   0.00748   2.10098
    R7        2.09032  -0.00050   0.00082  -0.00346  -0.00265   2.08767
    R8        1.87718  -0.00020  -0.00156   0.01097   0.00941   1.88659
    R9        2.88923  -0.00170   0.00203  -0.01046  -0.00844   2.88079
   R10        2.10074   0.00010  -0.00163   0.01062   0.00898   2.10972
   R11        2.10012  -0.00084  -0.00132   0.00769   0.00636   2.10648
   R12        2.73411   0.00086  -0.00170   0.01078   0.00908   2.74320
   R13        2.09253  -0.00042  -0.00047   0.00366   0.00319   2.09572
   R14        2.08978  -0.00100   0.00009  -0.00032  -0.00024   2.08954
   R15        1.84589  -0.00019  -0.00100   0.00585   0.00485   1.85074
    A1        2.01600  -0.00657  -0.00059  -0.02369  -0.02434   1.99166
    A2        1.89075   0.00133   0.00031   0.01105   0.01160   1.90235
    A3        1.88811   0.00296   0.00225  -0.00615  -0.00417   1.88394
    A4        1.89444   0.00258  -0.00296   0.02700   0.02414   1.91858
    A5        1.91524   0.00119  -0.00060  -0.00104  -0.00192   1.91332
    A6        1.85235  -0.00112   0.00180  -0.00591  -0.00411   1.84824
    A7        1.96413  -0.00291   0.00153  -0.01991  -0.01839   1.94574
    A8        1.93654   0.00025  -0.00261   0.02107   0.01817   1.95471
    A9        1.95595   0.00002  -0.00341   0.01451   0.01063   1.96657
   A10        1.78298   0.00229   0.00735  -0.02294  -0.01543   1.76755
   A11        1.90496   0.00057   0.00339  -0.02585  -0.02250   1.88247
   A12        1.91137  -0.00000  -0.00569   0.03070   0.02453   1.93591
   A13        1.91647  -0.00260   0.00758  -0.02583  -0.01826   1.89821
   A14        2.01849  -0.00586  -0.00078  -0.02137  -0.02228   1.99622
   A15        1.91260   0.00113   0.00020  -0.00677  -0.00687   1.90573
   A16        1.89258   0.00242  -0.00158   0.02046   0.01902   1.91160
   A17        1.89047   0.00245   0.00204  -0.00754  -0.00588   1.88459
   A18        1.88776   0.00114  -0.00069   0.01820   0.01772   1.90547
   A19        1.85508  -0.00096   0.00091  -0.00120  -0.00023   1.85484
   A20        1.86273  -0.00230   0.00310  -0.02813  -0.02504   1.83769
   A21        1.93757   0.00034  -0.00069   0.01227   0.01142   1.94899
   A22        1.96884   0.00036  -0.00330   0.01624   0.01258   1.98142
   A23        1.86915   0.00211   0.00297  -0.00158   0.00150   1.87065
   A24        1.90480  -0.00028   0.00153  -0.01978  -0.01824   1.88655
   A25        1.91708  -0.00018  -0.00311   0.01795   0.01458   1.93165
   A26        1.92251  -0.00074   0.00125  -0.00119   0.00006   1.92256
    D1       -1.36354   0.00157   0.01665   0.04599   0.06259  -1.30095
    D2        2.93397   0.00033   0.00824   0.07327   0.08165   3.01562
    D3        0.79129   0.00013   0.01968   0.00777   0.02727   0.81856
    D4        2.79105   0.00171   0.02067   0.01859   0.03921   2.83026
    D5        0.80538   0.00046   0.01225   0.04586   0.05827   0.86365
    D6       -1.33731   0.00027   0.02369  -0.01964   0.00389  -1.33342
    D7        0.79022   0.00081   0.01722   0.02301   0.04025   0.83047
    D8       -1.19545  -0.00043   0.00880   0.05029   0.05931  -1.13613
    D9        2.94505  -0.00063   0.02024  -0.01521   0.00493   2.94998
   D10        1.18771   0.00121   0.00000   0.00000   0.00001   1.18771
   D11       -0.95455   0.00134  -0.00231   0.03107   0.02870  -0.92585
   D12       -2.97249   0.00054  -0.00262   0.02481   0.02217  -2.95032
   D13       -2.96886   0.00040  -0.00225   0.01884   0.01655  -2.95231
   D14        1.17206   0.00052  -0.00456   0.04991   0.04524   1.21731
   D15       -0.84588  -0.00028  -0.00488   0.04366   0.03872  -0.80716
   D16       -0.95171   0.00114  -0.00208   0.02629   0.02420  -0.92751
   D17       -3.09396   0.00127  -0.00439   0.05737   0.05289  -3.04107
   D18        1.17128   0.00046  -0.00470   0.05111   0.04637   1.21765
   D19        1.18794  -0.00030  -0.01013   0.04505   0.03503   1.22297
   D20       -3.01753  -0.00003  -0.00801   0.04684   0.03892  -2.97861
   D21       -0.99503   0.00133  -0.00937   0.05987   0.05031  -0.94472
   D22       -1.46169   0.00156   0.02393  -0.02024   0.00364  -1.45805
   D23        2.79036   0.00019   0.01893  -0.00855   0.01044   2.80080
   D24        0.63006  -0.00010   0.02589  -0.05359  -0.02784   0.60222
   D25        0.69223   0.00081   0.02527  -0.05039  -0.02509   0.66714
   D26       -1.33890  -0.00055   0.02027  -0.03870  -0.01829  -1.35719
   D27        2.78398  -0.00084   0.02723  -0.08374  -0.05656   2.72742
   D28        2.69593   0.00153   0.02703  -0.04628  -0.01926   2.67667
   D29        0.66480   0.00016   0.02203  -0.03459  -0.01246   0.65234
   D30       -1.49551  -0.00013   0.02899  -0.07963  -0.05074  -1.54624
   D31       -3.13284  -0.00001  -0.01285   0.06487   0.05221  -3.08063
   D32       -1.05663   0.00027  -0.01045   0.06379   0.05339  -1.00323
   D33        1.01776   0.00110  -0.01163   0.07351   0.06165   1.07941
         Item               Value     Threshold  Converged?
 Maximum Force            0.006579     0.000450     NO 
 RMS     Force            0.001681     0.000300     NO 
 Maximum Displacement     0.232616     0.001800     NO 
 RMS     Displacement     0.060821     0.001200     NO 
 Predicted change in Energy=-6.382360D-04
 GradGradGradGradGradGradGradGradGradGradGradGradGradGradGradGradGradGrad

                          Input orientation:                          
 ---------------------------------------------------------------------
 Center     Atomic      Atomic             Coordinates (Angstroms)
 Number     Number       Type             X           Y           Z
 ---------------------------------------------------------------------
      1          6           0        1.614136    1.205128    1.964147
      2          6           0        1.179833    2.346361    1.045235
      3          8           0        1.540730    3.616760    1.583774
      4          6           0        3.116904    0.920465    1.939702
      5          6           0        3.976336    2.024747    2.544586
      6          8           0        4.157613    2.995159    1.480308
      7          1           0        1.049583    0.285903    1.691673
      8          1           0        1.298809    1.460575    3.000729
      9          1           0        0.073263    2.439532    0.991407
     10          1           0        1.618874    2.269830    0.034367
     11          1           0        2.533282    3.714276    1.538874
     12          1           0        3.444474    0.768463    0.883303
     13          1           0        3.323424   -0.037101    2.471655
     14          1           0        4.983181    1.653291    2.824194
     15          1           0        3.498249    2.537925    3.399417
     16          1           0        4.751010    3.715285    1.777727
 ---------------------------------------------------------------------
                    Distance matrix (angstroms):
                    1          2          3          4          5
     1  C    0.000000
     2  C    1.528212   0.000000
     3  O    2.442548   1.426248   0.000000
     4  C    1.529686   2.566222   3.143408   0.000000
     5  C    2.566841   3.189345   3.064285   1.524449   0.000000
     6  O    3.147631   3.078539   2.691685   2.366109   1.451637
     7  H    1.112626   2.163408   3.368601   2.176696   3.509547
     8  H    1.113189   2.150053   2.591413   2.173239   2.774078
     9  H    2.200970   1.111789   1.972365   3.531371   4.221184
    10  H    2.204010   1.104748   2.054504   2.774018   3.452375
    11  H    2.705829   1.986629   0.998340   2.882127   2.438929
    12  H    2.170031   2.764884   3.496812   1.116416   2.149648
    13  H    2.173099   3.508639   4.161374   1.114701   2.163985
    14  H    3.505851   4.255643   4.152628   2.191426   1.109007
    15  H    2.717762   3.309671   2.879640   2.211870   1.105737
    16  H    4.021892   3.894073   3.217642   3.241536   2.011495
                    6          7          8          9         10
     6  O    0.000000
     7  H    4.128510   0.000000
     8  H    3.583209   1.776399   0.000000
     9  H    4.150862   2.466109   2.549058   0.000000
    10  H    3.010322   2.647021   3.091382   1.825825   0.000000
    11  H    1.777361   3.738777   2.956369   2.824249   2.277302
    12  H    2.413122   2.573291   3.092958   3.764202   2.511495
    13  H    3.297460   2.425501   2.573329   4.346078   3.764013
    14  H    2.070797   4.315732   3.693630   5.299488   4.413820
    15  H    2.080097   3.739513   2.481365   4.187926   3.863610
    16  H    0.979367   5.046645   4.300831   4.911940   3.865089
                   11         12         13         14         15
    11  H    0.000000
    12  H    3.152437   0.000000
    13  H    3.945534   1.785063   0.000000
    14  H    3.449886   2.630133   2.395100   0.000000
    15  H    2.403453   3.076478   2.742638   1.821670   0.000000
    16  H    2.230553   3.345264   4.074303   2.323966   2.363359
                   16
    16  H    0.000000
 Stoichiometry    C4H10O2
 Framework group  C1[X(C4H10O2)]
 Deg. of freedom    42
 Full point group                 C1      NOp   1
 Largest Abelian subgroup         C1      NOp   1
 Largest concise Abelian subgroup C1      NOp   1
                         Standard orientation:                         
 ---------------------------------------------------------------------
 Center     Atomic      Atomic             Coordinates (Angstroms)
 Number     Number       Type             X           Y           Z
 ---------------------------------------------------------------------
      1          6           0        0.859332    1.147300    0.186293
      2          6           0        1.583460   -0.090014   -0.342974
      3          8           0        1.204246   -1.263519    0.373453
      4          6           0       -0.612788    1.231745   -0.220736
      5          6           0       -1.503356    0.170688    0.415655
      6          8           0       -1.354571   -1.006127   -0.421135
      7          1           0        1.400161    2.057473   -0.155798
      8          1           0        0.940654    1.143538    1.296501
      9          1           0        2.675451   -0.053211   -0.137363
     10          1           0        1.389896   -0.270542   -1.415546
     11          1           0        0.260525   -1.491040    0.140413
     12          1           0       -0.693404    1.129483   -1.329532
     13          1           0       -1.011176    2.242287    0.029563
     14          1           0       -2.573080    0.461589    0.384624
     15          1           0       -1.201890   -0.099331    1.444666
     16          1           0       -1.944432   -1.721390   -0.105504
 ---------------------------------------------------------------------
 Rotational constants (GHZ):      4.5637433      3.0420352      2.0862269
 Standard basis: VSTO-6G (5D, 7F)
 There are    34 symmetry adapted cartesian basis functions of A   symmetry.
 There are    34 symmetry adapted basis functions of A   symmetry.
    34 basis functions,   204 primitive gaussians,    34 cartesian basis functions
    19 alpha electrons       19 beta electrons
       nuclear repulsion energy       179.5649359691 Hartrees.
 Integral buffers will be    131072 words long.
 Regular integral format.
 Two-electron integral symmetry is turned off.
 Do NDO integrals.
 One-electron integrals computed using PRISM.
 NBasis=    34 RedAO= F EigKep=  0.00D+00  NBF=    34
 NBsUse=    34 1.00D-04 EigRej=  0.00D+00 NBFU=    34
 Initial guess from the checkpoint file:  "1-4-butanediol-opt.chk"
 B after Tr=     0.000000    0.000000    0.000000
         Rot=    0.999869    0.002012    0.005464    0.015088 Ang=   1.85 deg.
 Overlap will be assumed to be unity.
 Keep J ints in memory in canonical form, NReq=895124.
 Requested convergence on RMS density matrix=1.00D-08 within 128 cycles.
 Requested convergence on MAX density matrix=1.00D-06.
 Requested convergence on             energy=1.00D-06.
 No special actions if energy rises.
 SCF Done:  E(RPM6) = -0.169232616205     A.U. after   12 cycles
            NFock= 11  Conv=0.20D-08     -V/T= 0.9923
 Calling FoFJK, ICntrl=      2127 FMM=F ISym2X=0 I1Cent= 0 IOpClX= 0 NMat=1 NMatS=1 NMatT=0.
 ***** Axes restored to original set *****
 -------------------------------------------------------------------
 Center     Atomic                   Forces (Hartrees/Bohr)
 Number     Number              X              Y              Z
 -------------------------------------------------------------------
      1        6          -0.002564728   -0.002031715    0.005065385
      2        6          -0.004280593    0.002788059   -0.003649950
      3        8           0.000610347    0.003754142    0.002513465
      4        6           0.000150825   -0.003981224   -0.003397362
      5        6           0.004304191   -0.000962606    0.002634179
      6        8           0.002313072    0.001959918   -0.000811502
      7        1           0.002220115    0.001683897    0.000762446
      8        1           0.000180041   -0.001016850   -0.000866167
      9        1           0.001693312   -0.003360731   -0.001438222
     10        1          -0.001504934   -0.002440137   -0.000495818
     11        1          -0.000354849    0.003124396   -0.000654504
     12        1          -0.000102497   -0.000468770    0.001466545
     13        1          -0.000696639    0.002887282   -0.001748975
     14        1          -0.002320075    0.000283608    0.000885010
     15        1           0.000117360   -0.001365038   -0.000157892
     16        1           0.000235054   -0.000854229   -0.000106637
 -------------------------------------------------------------------
 Cartesian Forces:  Max     0.005065385 RMS     0.002182330

 GradGradGradGradGradGradGradGradGradGradGradGradGradGradGradGradGradGrad
 Berny optimization.
 Using GEDIIS/GDIIS optimizer.
 FormGI is forming the generalized inverse of G from B-inverse, IUseBI=4.
 Internal  Forces:  Max     0.011519104 RMS     0.003028315
 Search for a local minimum.
 Step number   4 out of a maximum of   84 on scan point     1 out of    37
 All quantities printed in internal units (Hartrees-Bohrs-Radians)
 Mixed Optimization -- RFO/linear search
 Update second derivatives using D2CorX and points    1    2    4    3
 DE=  1.89D-04 DEPred=-6.38D-04 R=-2.96D-01
 Trust test=-2.96D-01 RLast= 2.49D-01 DXMaxT set to 4.24D-01
 ITU= -1  1  1  0
 Use linear search instead of GDIIS.
 Energy rises -- skip Quadratic/GDIIS search.
 Quartic linear search produced a step of -0.52758.
 Iteration  1 RMS(Cart)=  0.03208803 RMS(Int)=  0.00040899
 Iteration  2 RMS(Cart)=  0.00045886 RMS(Int)=  0.00004101
 Iteration  3 RMS(Cart)=  0.00000007 RMS(Int)=  0.00004101
 Iteration  1 RMS(Cart)=  0.00000644 RMS(Int)=  0.00000338
 Iteration  2 RMS(Cart)=  0.00000424 RMS(Int)=  0.00000374
 Iteration  3 RMS(Cart)=  0.00000279 RMS(Int)=  0.00000430
 Iteration  4 RMS(Cart)=  0.00000183 RMS(Int)=  0.00000476
 Iteration  5 RMS(Cart)=  0.00000121 RMS(Int)=  0.00000509
 Iteration  6 RMS(Cart)=  0.00000079 RMS(Int)=  0.00000532
 Variable       Old X    -DE/DX   Delta X   Delta X   Delta X     New X
                                 (Linear)    (Quad)   (Total)
    R1        2.88790   0.00622   0.00667   0.00000   0.00667   2.89457
    R2        2.89069   0.00442   0.00331   0.00000   0.00331   2.89400
    R3        2.10256  -0.00270  -0.00295   0.00000  -0.00295   2.09961
    R4        2.10362  -0.00109  -0.00376   0.00000  -0.00376   2.09987
    R5        2.69522   0.00689  -0.00357   0.00000  -0.00357   2.69165
    R6        2.10098  -0.00190  -0.00395   0.00000  -0.00395   2.09703
    R7        2.08767   0.00002   0.00140   0.00000   0.00140   2.08907
    R8        1.88659  -0.00002  -0.00497   0.00000  -0.00497   1.88162
    R9        2.88079   0.00291   0.00445   0.00000   0.00445   2.88524
   R10        2.10972  -0.00135  -0.00474   0.00000  -0.00474   2.10498
   R11        2.10648  -0.00344  -0.00336   0.00000  -0.00336   2.10312
   R12        2.74320   0.00173  -0.00479   0.00000  -0.00479   2.73840
   R13        2.09572  -0.00198  -0.00168   0.00000  -0.00168   2.09404
   R14        2.08954  -0.00081   0.00012   0.00000   0.00012   2.08967
   R15        1.85074  -0.00052  -0.00256   0.00000  -0.00256   1.84818
    A1        1.99166   0.01152   0.01284   0.00000   0.01286   2.00452
    A2        1.90235  -0.00423  -0.00612   0.00000  -0.00618   1.89618
    A3        1.88394  -0.00197   0.00220   0.00000   0.00227   1.88621
    A4        1.91858  -0.00516  -0.01274   0.00000  -0.01276   1.90582
    A5        1.91332  -0.00240   0.00101   0.00000   0.00108   1.91440
    A6        1.84824   0.00162   0.00217   0.00000   0.00217   1.85041
    A7        1.94574   0.00654   0.00970   0.00000   0.00971   1.95544
    A8        1.95471  -0.00383  -0.00959   0.00000  -0.00950   1.94521
    A9        1.96657  -0.00187  -0.00561   0.00000  -0.00548   1.96110
[...]
           A8         111.69196 111.81504 111.98845 112.20035 112.33615
           A9         112.22877 112.29390 112.30461 112.30575 112.34774
           A10        102.38761 102.38672 102.40907 102.44389 102.43789
           A11        108.99592 108.92560 108.79910 108.60990 108.43121
           A12        109.10360 109.14699 109.23935 109.35445 109.45626
           A13        110.13260 110.17441 110.22664 110.28828 110.43815
           A14        116.46129 116.10581 115.46483 114.61222 113.80286
           A15        108.98559 109.20307 109.47433 109.80097 110.15258
           A16        109.04580 109.01685 109.04640 109.13161 109.20736
           A17        107.72611 107.65888 107.79518 108.11679 108.55238
           A18        108.83095 109.13784 109.42062 109.62341 109.69005
           A19        105.20441 105.15887 105.13625 105.12726 105.07030
           A20        111.95201 111.78569 111.61172 111.43764 111.32821
           A21        111.69716 111.82208 111.99492 112.19200 112.33507
           A22        112.23389 112.29582 112.30878 112.30008 112.34779
           A23        102.38588 102.38643 102.40729 102.44618 102.43856
           A24        108.99504 108.92431 108.79694 108.61365 108.43130
           A25        109.09823 109.14124 109.23350 109.36102 109.45583
           A26        110.12781 110.17297 110.22264 110.29379 110.43850
           D1         -77.36367 -81.95341 -86.23891 -90.11447 -93.35964
           D2         168.47666 163.91520 159.60301 155.66492 152.41115
           D3          45.58415  40.82558  36.25324  32.00110  28.47579
           D4         158.93993 154.39650 150.31346 146.78753 143.97300
           D5          44.78027  40.26510  36.15538  32.56692  29.74380
           D6         -78.11225 -82.82452 -87.19439 -91.09690 -94.19157
           D7          45.35794  40.75388  36.48384  32.70853  29.68123
           D8         -68.80172 -73.37751 -77.67424 -81.51208 -84.54797
           D9         168.30576 163.53287 158.97599 154.82410 151.51666
           D10          8.05084  18.05083  28.05066  38.05068  48.05069
           D11       -114.01597-103.84579 -93.78199 -83.85047 -74.11118
           D12        131.64182 141.76509 151.69365 161.41115 170.98236
           D13        131.63453 141.76123 151.69211 161.41717 170.98268
           D14          9.56772  19.86462  29.85945  39.51603  48.82081
           D15       -104.77450 -94.52450 -84.66490 -75.22236 -66.08565
           D16       -114.00958-103.84205 -93.77527 -83.86015 -74.11181
           D17        123.92361 134.26133 144.39207 154.23871 163.72632
           D18          9.58140  19.87221  29.86772  39.50032  48.81987
           D19         58.01724  57.76726  57.12115  56.03032  54.59859
           D20        177.78973 177.60371 177.09108 176.18414 174.85683
           D21        -66.74355 -66.90946 -67.35814 -68.19502 -69.48262
           D22        -77.34573 -81.96972 -86.24588 -90.11050 -93.35777
           D23        168.49550 163.89621 159.59532 155.66955 152.41238
           D24         45.60237  40.80742  36.24523  32.00774  28.47836
           D25         45.37970  40.74085  36.48317  32.70384  29.68291
           D26        -68.77907 -73.39322 -77.67563 -81.51612 -84.54694
           D27        168.32779 163.51800 158.97428 154.82208 151.51904
           D28        158.95253 154.37879 150.30805 146.79307 143.97503
           D29         44.79376  40.24472  36.14925  32.57312  29.74518
           D30        -78.09938 -82.84406 -87.20084 -91.08868 -94.18884
           D31         58.02181  57.74960  57.11302  56.05088  54.58941
           D32        177.79787 177.59316 177.08871 176.19746 174.84715
           D33        -66.74269 -66.92718 -67.36887 -68.17165 -69.49244
                          36        37
     Eigenvalues --    -0.16993  -0.16992
           R1           1.53057   1.52971
           R2           1.53056   1.53092
           R3           1.10885   1.10949
           R4           1.11049   1.11036
           R5           1.43542   1.43564
           R6           1.10718   1.10807
           R7           1.10647   1.10536
           R8           0.98073   0.97888
           R9           1.53057   1.52973
           R10          1.11050   1.11036
           R11          1.10885   1.10949
           R12          1.43541   1.43562
           R13          1.10718   1.10806
           R14          1.10651   1.10534
           R15          0.98068   0.97894
           A1         113.68938 114.09140
           A2         109.49731 109.08421
           A3         108.84647 108.99005
           A4         109.11078 108.92953
           A5         110.34020 110.32880
           A6         104.99293 105.01689
           A7         111.56291 112.23807
           A8         112.20319 111.92772
           A9         112.53399 112.64213
           A10        102.25969 102.09234
           A11        108.43813 108.32834
           A12        109.30523 109.03864
           A13        110.80761 111.25727
           A14        113.69031 114.09548
           A15        110.33959 110.32838
           A16        109.11021 108.92957
           A17        108.84573 108.98439
           A18        109.49594 109.08651
           A19        104.99540 105.01622
           A20        111.56446 112.22688
           A21        112.20417 111.92776
           A22        112.53243 112.64300
           A23        102.26117 102.08973
           A24        108.43607 108.33931
           A25        109.30502 109.04079
           A26        110.80996 111.25310
           D1         -94.80623 -90.48194
           D2         151.12055 155.40332
           D3          27.34495  32.10985
           D4         142.87592 147.46369
           D5          28.80271  33.34895
           D6         -94.97289 -89.94451
           D7          28.61844  33.32079
           D8         -85.45478 -80.79395
           D9         150.76962 155.91259
           D10         58.05071  68.05074
           D11        -64.55492 -55.02296
           D12       -179.41985-169.80415
           D13       -179.41831-169.80995
           D14         57.97607  67.11636
           D15        -56.88887 -47.66484
           D16        -64.55568 -55.02775
           D17        172.83869-178.10145
           D18         57.97376  67.11736
           D19         52.88562  48.15672
           D20        172.99708 168.16973
           D21        -71.59442 -76.84359
           D22        -94.84970 -90.60512
           D23        151.07367 155.29034
           D24         27.29880  31.99334
           D25         28.57428  33.19562
           D26        -85.50235 -80.90892
           D27        150.72278 155.79409
           D28        142.83356 147.33594
           D29         28.75693  33.23140
           D30        -95.01794 -90.06560
           D31         52.90888  48.33266
           D32        173.02311 168.33876
           D33        -71.56876 -76.66906
                          Input orientation:                          
 ---------------------------------------------------------------------
 Center     Atomic      Atomic             Coordinates (Angstroms)
 Number     Number       Type             X           Y           Z
 ---------------------------------------------------------------------
      1          6           0        2.175168    3.003459    1.353161
      2          6           0        1.055524    2.222455    2.043408
      3          8           0        0.824134    0.946171    1.428085
      4          6           0        3.567130    2.747899    1.936975
      5          6           0        4.098052    1.334647    1.690156
      6          8           0        3.746260    0.429945    2.747867
      7          1           0        1.952356    4.088552    1.415575
      8          1           0        2.163110    2.769243    0.267849
      9          1           0        0.071706    2.718562    1.925945
     10          1           0        1.250993    2.059416    3.119059
     11          1           0        1.663266    0.461403    1.289989
     12          1           0        3.570405    2.949412    3.028887
     13          1           0        4.278315    3.482886    1.506883
     14          1           0        5.205302    1.298771    1.712744
     15          1           0        3.742833    0.907471    0.734582
     16          1           0        2.795147    0.496308    2.969934
 ---------------------------------------------------------------------
                    Distance matrix (angstroms):
                    1          2          3          4          5
     1  C    0.000000
     2  C    1.529710   0.000000
     3  O    2.462385   1.435640   0.000000
     4  C    1.530918   2.568187   3.321026   0.000000
     5  C    2.568264   3.189038   3.307284   1.529731   0.000000
     6  O    3.322124   3.308989   3.247634   2.462223   1.435617
     7  H    1.109490   2.163516   3.338802   2.162569   3.501913
     8  H    1.110362   2.162946   2.542163   2.181217   2.797324
     9  H    2.198590   1.108069   1.988815   3.495565   4.264068
    10  H    2.205382   1.105357   2.069037   2.689948   3.266925
    11  H    2.593855   2.009551   0.978883   3.044889   2.617417
    12  H    2.181207   2.797188   3.757331   1.110356   2.162886
    13  H    2.162570   3.501847   4.286315   1.109491   2.163565
    14  H    3.495279   4.264175   4.404542   2.198604   1.108062
    15  H    2.689494   3.265553   3.000207   2.205401   1.105342
    16  H    3.046988   2.619984   2.542550   2.594730   2.009528
                    6          7          8          9         10
     6  O    0.000000
     7  H    4.287015   0.000000
     8  H    3.758878   1.761326   0.000000
     9  H    4.406321   2.382056   2.669423   0.000000
    10  H    3.003217   2.740649   3.076557   1.802419   0.000000
    11  H    2.542688   3.640818   2.573079   2.834126   2.463556
    12  H    2.541182   2.553135   3.104234   3.675686   2.485939
    13  H    3.338199   2.405256   2.553152   4.295971   3.713497
    14  H    1.988754   4.295678   3.674907   5.330579   4.265309
    15  H    2.069145   3.713332   2.485871   4.263398   3.636203
    16  H    0.978945   4.003816   3.587055   3.666805   2.202261
                   11         12         13         14         15
    11  H    0.000000
    12  H    3.584847   0.000000
    13  H    4.001860   1.761314   0.000000
    14  H    3.664141   2.670157   2.381605   0.000000
    15  H    2.198193   3.076213   2.741524   1.802425   0.000000
    16  H    2.025978   2.573367   3.641422   2.834311   2.462511
                   16
    16  H    0.000000
 Stoichiometry    C4H10O2
 Framework group  C1[X(C4H10O2)]
 Deg. of freedom    42
 Full point group                 C1      NOp   1
 Largest Abelian subgroup         C1      NOp   1
 Largest concise Abelian subgroup C1      NOp   1
                         Standard orientation:                         
 ---------------------------------------------------------------------
 Center     Atomic      Atomic             Coordinates (Angstroms)
 Number     Number       Type             X           Y           Z
 ---------------------------------------------------------------------
      1          6           0        0.747259    1.174837    0.168931
      2          6           0        1.528524    0.017116   -0.455022
      3          8           0        1.572078   -1.133516    0.402422
      4          6           0       -0.745878    1.175095   -0.169078
      5          6           0       -1.527783    0.018084    0.455446
      6          8           0       -1.574154   -1.131826   -0.402781
      7          1           0        1.192161    2.134623   -0.165494
      8          1           0        0.893628    1.157886    1.269473
      9          1           0        2.603313    0.259358   -0.573200
     10          1           0        1.119288   -0.293909   -1.433594
     11          1           0        0.682677   -1.352846    0.747492
     12          1           0       -0.892247    1.157547   -1.269604
     13          1           0       -1.190315    2.135306    0.164749
     14          1           0       -2.602069    0.261689    0.575303
     15          1           0       -1.117519   -0.294019    1.433227
     16          1           0       -0.685040   -1.353692   -0.747144
 ---------------------------------------------------------------------
 Rotational constants (GHZ):      4.5975283      2.6563501      1.9425732

 **********************************************************************

            Population analysis using the SCF density.

 **********************************************************************

 Orbital symmetries:
       Occupied  (A) (A) (A) (A) (A) (A) (A) (A) (A) (A) (A) (A)
                 (A) (A) (A) (A) (A) (A) (A)
       Virtual   (A) (A) (A) (A) (A) (A) (A) (A) (A) (A) (A) (A)
                 (A) (A) (A)
 The electronic state is 1-A.
 Alpha  occ. eigenvalues --   -1.13228  -1.08133  -1.02421  -0.93948  -0.84671
 Alpha  occ. eigenvalues --   -0.77189  -0.67192  -0.65272  -0.59973  -0.57517
 Alpha  occ. eigenvalues --   -0.56335  -0.52831  -0.52104  -0.50590  -0.45917
 Alpha  occ. eigenvalues --   -0.44489  -0.43808  -0.39649  -0.39042
 Alpha virt. eigenvalues --    0.08652   0.09512   0.12497   0.12736   0.13613
 Alpha virt. eigenvalues --    0.17608   0.18288   0.18806   0.18960   0.19278
 Alpha virt. eigenvalues --    0.19823   0.20381   0.21529   0.21747   0.22112
          Condensed to atoms (all electrons):
               1          2          3          4          5          6
     1  C    4.329773   0.000000   0.000000   0.000000   0.000000   0.000000
     2  C    0.000000   3.991523   0.000000   0.000000   0.000000   0.000000
     3  O    0.000000   0.000000   6.555767   0.000000   0.000000   0.000000
     4  C    0.000000   0.000000   0.000000   4.329745   0.000000   0.000000
     5  C    0.000000   0.000000   0.000000   0.000000   3.991552   0.000000
     6  O    0.000000   0.000000   0.000000   0.000000   0.000000   6.555699
     7  H    0.000000   0.000000   0.000000   0.000000   0.000000   0.000000
     8  H    0.000000   0.000000   0.000000   0.000000   0.000000   0.000000
     9  H    0.000000   0.000000   0.000000   0.000000   0.000000   0.000000
    10  H    0.000000   0.000000   0.000000   0.000000   0.000000   0.000000
    11  H    0.000000   0.000000   0.000000   0.000000   0.000000   0.000000
    12  H    0.000000   0.000000   0.000000   0.000000   0.000000   0.000000
    13  H    0.000000   0.000000   0.000000   0.000000   0.000000   0.000000
    14  H    0.000000   0.000000   0.000000   0.000000   0.000000   0.000000
    15  H    0.000000   0.000000   0.000000   0.000000   0.000000   0.000000
    16  H    0.000000   0.000000   0.000000   0.000000   0.000000   0.000000
               7          8          9         10         11         12
     1  C    0.000000   0.000000   0.000000   0.000000   0.000000   0.000000
     2  C    0.000000   0.000000   0.000000   0.000000   0.000000   0.000000
     3  O    0.000000   0.000000   0.000000   0.000000   0.000000   0.000000
     4  C    0.000000   0.000000   0.000000   0.000000   0.000000   0.000000
     5  C    0.000000   0.000000   0.000000   0.000000   0.000000   0.000000
     6  O    0.000000   0.000000   0.000000   0.000000   0.000000   0.000000
     7  H    0.849260   0.000000   0.000000   0.000000   0.000000   0.000000
     8  H    0.000000   0.839745   0.000000   0.000000   0.000000   0.000000
     9  H    0.000000   0.000000   0.856117   0.000000   0.000000   0.000000
    10  H    0.000000   0.000000   0.000000   0.886187   0.000000   0.000000
    11  H    0.000000   0.000000   0.000000   0.000000   0.691672   0.000000
    12  H    0.000000   0.000000   0.000000   0.000000   0.000000   0.839701
    13  H    0.000000   0.000000   0.000000   0.000000   0.000000   0.000000
    14  H    0.000000   0.000000   0.000000   0.000000   0.000000   0.000000
    15  H    0.000000   0.000000   0.000000   0.000000   0.000000   0.000000
    16  H    0.000000   0.000000   0.000000   0.000000   0.000000   0.000000
              13         14         15         16
     1  C    0.000000   0.000000   0.000000   0.000000
     2  C    0.000000   0.000000   0.000000   0.000000
     3  O    0.000000   0.000000   0.000000   0.000000
     4  C    0.000000   0.000000   0.000000   0.000000
     5  C    0.000000   0.000000   0.000000   0.000000
     6  O    0.000000   0.000000   0.000000   0.000000
     7  H    0.000000   0.000000   0.000000   0.000000
     8  H    0.000000   0.000000   0.000000   0.000000
     9  H    0.000000   0.000000   0.000000   0.000000
    10  H    0.000000   0.000000   0.000000   0.000000
    11  H    0.000000   0.000000   0.000000   0.000000
    12  H    0.000000   0.000000   0.000000   0.000000
    13  H    0.849276   0.000000   0.000000   0.000000
    14  H    0.000000   0.856075   0.000000   0.000000
    15  H    0.000000   0.000000   0.886254   0.000000
    16  H    0.000000   0.000000   0.000000   0.691655
 Mulliken charges:
               1
     1  C   -0.329773
     2  C    0.008477
     3  O   -0.555767
     4  C   -0.329745
     5  C    0.008448
     6  O   -0.555699
     7  H    0.150740
     8  H    0.160255
     9  H    0.143883
    10  H    0.113813
    11  H    0.308328
    12  H    0.160299
    13  H    0.150724
    14  H    0.143925
    15  H    0.113746
    16  H    0.308345
 Sum of Mulliken charges =  -0.00000
 Mulliken charges with hydrogens summed into heavy atoms:
               1
     1  C   -0.018777
     2  C    0.266173
     3  O   -0.247439
     4  C   -0.018722
     5  C    0.266119
     6  O   -0.247355
 Charge=             -0.0000 electrons
 Dipole moment (field-independent basis, Debye):
    X=              0.0030    Y=              2.9130    Z=              0.0017  Tot=              2.9130
 N-N= 1.779560633341D+02 E-N=-3.091865064221D+02  KE=-2.197928593570D+01
 1\1\GINC-GTX1080DELTA\Scan\RPM6\ZDO\C4H10O2\MVEROT\18-Apr-2022\0\\#n P
 M6 Opt=modredundant\\Optimisation de geometrie\\0,1\C,2.1751676334,3.0
 03459137,1.3531609504\C,1.0555238982,2.2224546391,2.043408493\O,0.8241
 344802,0.9461709535,1.4280854584\C,3.5671301023,2.747898638,1.93697492
 25\C,4.0980516361,1.3346469911,1.6901556407\O,3.7462595589,0.429945459
 4,2.7478673995\H,1.9523559323,4.0885520766,1.415575371\H,2.1631096586,
 2.7692427273,0.2678494296\H,0.0717060908,2.7185622382,1.9259449477\H,1
 .2509932173,2.0594158998,3.1190587971\H,1.6632659675,0.4614030077,1.28
 99890209\H,3.5704047688,2.9494115895,3.0288866401\H,4.2783152913,3.482
 8862261,1.5068832929\H,5.2053022995,1.2987708561,1.7127441815\H,3.7428
 325285,0.9074713741,0.734581826\H,2.7951469364,0.4963081865,2.96993362
 86\\Version=AM64L-G09RevD.01\State=1-A\HF=-0.1700833,-0.1707271,-0.170
 7708,-0.1702868,-0.1728462,-0.171387,-0.1705449,-0.1703056,-0.1704039,
 -0.1706286,-0.1707977,-0.1707942,-0.170589,-0.1702262,-0.169781,-0.169
 3387,-0.1690011,-0.1688695,-0.1689979,-0.1693558,-0.1698156,-0.170171,
 -0.1702515,-0.1700434,-0.1695168,-0.1686434,-0.1676487,-0.1667365,-0.1
 665713,-0.1667836,-0.1672722,-0.1680022,-0.1688396,-0.1695626,-0.16993
 07,-0.1699326,-0.1699233\RMSD=5.500e-09,8.441e-09,6.942e-09,5.720e-09,
 7.041e-09,5.815e-09,8.497e-09,5.426e-09,7.124e-09,5.612e-09,3.783e-09,
 5.221e-09,8.018e-09,2.604e-09,2.775e-09,9.774e-09,6.191e-09,7.667e-09,
 8.055e-09,3.777e-09,2.972e-09,2.365e-09,2.989e-09,7.458e-09,3.012e-09,
 4.367e-09,4.806e-09,5.681e-09,3.143e-09,6.190e-09,8.309e-09,7.669e-09,
 7.983e-09,3.573e-09,6.308e-09,9.830e-09,7.050e-09\PG=C01 [X(C4H10O2)]\
 \@


 NO HUMAN INVESTIGATION CAN BECOME REAL SCIENCE
 WITHOUT GOING THROUGH MATHEMATICAL PEOPLE.
 -- LEONARDO DA VINCI, IN "PENSIERI" CA. 1492
 Job cpu time:       0 days  0 hours  1 minutes 52.4 seconds.
 File lengths (MBytes):  RWF=     72 Int=      0 D2E=      0 Chk=      6 Scr=      2
 Normal termination of Gaussian 09 at Mon Apr 18 00:30:39 2022.
