 Entering Gaussian System, Link 0=g09
 Input=/scratch/mverot/bi-phenyl-redundant-opt/bi-phenyl-redundant-opt.com
 Output=/scratch/mverot/bi-phenyl-redundant-opt/bi-phenyl-redundant-opt.log
 Initial command:
 /opt/g09/l1.exe "/scratch/mverot/bi-phenyl-redundant-opt/Gau-1501032.inp" -scrdir="/scratch/mverot/bi-phenyl-redundant-opt/"
 Entering Link 1 = /opt/g09/l1.exe PID=   1501034.
  
 Copyright (c) 1988,1990,1992,1993,1995,1998,2003,2009,2013,
            Gaussian, Inc.  All Rights Reserved.
  
 This is part of the Gaussian(R) 09 program.  It is based on
 the Gaussian(R) 03 system (copyright 2003, Gaussian, Inc.),
 the Gaussian(R) 98 system (copyright 1998, Gaussian, Inc.),
 the Gaussian(R) 94 system (copyright 1995, Gaussian, Inc.),
 the Gaussian 92(TM) system (copyright 1992, Gaussian, Inc.),
 the Gaussian 90(TM) system (copyright 1990, Gaussian, Inc.),
 the Gaussian 88(TM) system (copyright 1988, Gaussian, Inc.),
 the Gaussian 86(TM) system (copyright 1986, Carnegie Mellon
 University), and the Gaussian 82(TM) system (copyright 1983,
 Carnegie Mellon University). Gaussian is a federally registered
 trademark of Gaussian, Inc.
  
 This software contains proprietary and confidential information,
 including trade secrets, belonging to Gaussian, Inc.
  
 This software is provided under written license and may be
 used, copied, transmitted, or stored only in accord with that
 written license.
  
 The following legend is applicable only to US Government
 contracts under FAR:
  
                    RESTRICTED RIGHTS LEGEND
  
 Use, reproduction and disclosure by the US Government is
 subject to restrictions as set forth in subparagraphs (a)
 and (c) of the Commercial Computer Software - Restricted
 Rights clause in FAR 52.227-19.
  
 Gaussian, Inc.
 340 Quinnipiac St., Bldg. 40, Wallingford CT 06492
  
  
 ---------------------------------------------------------------
 Warning -- This program may not be used in any manner that
 competes with the business of Gaussian, Inc. or will provide
 assistance to any competitor of Gaussian, Inc.  The licensee
 of this program is prohibited from giving any competitor of
 Gaussian, Inc. access to this program.  By using this program,
 the user acknowledges that Gaussian, Inc. is engaged in the
 business of creating and licensing software in the field of
 computational chemistry and represents and warrants to the
 licensee that it is not a competitor of Gaussian, Inc. and that
 it will not use this program in any manner prohibited above.
 ---------------------------------------------------------------
  

 Cite this work as:
 Gaussian 09, Revision D.01,
 M. J. Frisch, G. W. Trucks, H. B. Schlegel, G. E. Scuseria, 
 M. A. Robb, J. R. Cheeseman, G. Scalmani, V. Barone, B. Mennucci, 
 G. A. Petersson, H. Nakatsuji, M. Caricato, X. Li, H. P. Hratchian, 
 A. F. Izmaylov, J. Bloino, G. Zheng, J. L. Sonnenberg, M. Hada, 
 M. Ehara, K. Toyota, R. Fukuda, J. Hasegawa, M. Ishida, T. Nakajima, 
 Y. Honda, O. Kitao, H. Nakai, T. Vreven, J. A. Montgomery, Jr., 
 J. E. Peralta, F. Ogliaro, M. Bearpark, J. J. Heyd, E. Brothers, 
 K. N. Kudin, V. N. Staroverov, T. Keith, R. Kobayashi, J. Normand, 
 K. Raghavachari, A. Rendell, J. C. Burant, S. S. Iyengar, J. Tomasi, 
 M. Cossi, N. Rega, J. M. Millam, M. Klene, J. E. Knox, J. B. Cross, 
 V. Bakken, C. Adamo, J. Jaramillo, R. Gomperts, R. E. Stratmann, 
 O. Yazyev, A. J. Austin, R. Cammi, C. Pomelli, J. W. Ochterski, 
 R. L. Martin, K. Morokuma, V. G. Zakrzewski, G. A. Voth, 
 P. Salvador, J. J. Dannenberg, S. Dapprich, A. D. Daniels, 
 O. Farkas, J. B. Foresman, J. V. Ortiz, J. Cioslowski, 
 and D. J. Fox, Gaussian, Inc., Wallingford CT, 2013.
 
 ******************************************
 Gaussian 09:  AM64L-G09RevD.01 24-Apr-2013
                18-Apr-2022 
 ******************************************
 %chk=bi-phenyl-opt
 ----------------------------
 # hf/6-31G* Opt=modredundant
 ----------------------------
 1/18=120,19=15,38=1/1,3;
 2/9=110,12=2,17=6,18=5,40=1/2;
 3/5=1,6=6,7=1,11=9,16=1,25=1,30=1,71=1/1,2,3;
 4//1;
 5/5=2,38=5/2;
 6/7=2,8=2,9=2,10=2,28=1/1;
 7//1,2,3,16;
 1/18=20,19=15/3(2);
 2/9=110/2;
 99//99;
 2/9=110/2;
 3/5=1,6=6,7=1,11=9,16=1,25=1,30=1,71=1/1,2,3;
 4/5=5,16=3,69=1/1;
 5/5=2,38=5/2;
 7//1,2,3,16;
 1/18=20,19=15/3(-5);
 2/9=110/2;
 6/7=2,8=2,9=2,10=2,19=2,28=1/1;
 99/9=1/99;
 -------------------------
 Optimisation de geometrie
 -------------------------
 Symbolic Z-matrix:
 Charge =  0 Multiplicity = 1
 C                    -2.9429   -0.6554    0.8399 
 C                    -1.5545   -0.5288    0.8511 
 C                    -0.9076    0.4131    0.0333 
 C                    -1.7004    1.2249   -0.7958 
 C                    -3.0889    1.1      -0.8067 
 C                    -3.7169    0.1588    0.0109 
 C                     0.5721    0.5469    0.0432 
 C                     1.1844    1.8079   -0.0566 
 C                     2.5727    1.934    -0.0502 
 C                     3.3814    0.8011    0.0576 
 C                     2.7881   -0.4586    0.1584 
 C                     1.3997   -0.5838    0.1506 
 H                     0.9492   -1.5712    0.2018 
 H                    -3.4213   -1.3858    1.4873 
 H                    -0.9639   -1.149     1.5198 
 H                    -1.2205    1.9419   -1.4562 
 H                    -3.6805    1.7335   -1.4626 
 H                    -4.7991    0.0606    0.0024 
 H                     0.5643    2.6982   -0.114 
 H                     3.0232    2.9207   -0.1208 
 H                     4.4637    0.899     0.0629 
 H                     3.4077   -1.3484    0.2341 
 
 The following ModRedundant input section has been read:
 D       2       3       7      12 S  36 10.000                                
 

 GradGradGradGradGradGradGradGradGradGradGradGradGradGradGradGradGradGrad
 Berny optimization.
 Initialization pass.
                           ----------------------------
                           !    Initial Parameters    !
                           ! (Angstroms and Degrees)  !
 --------------------------                            --------------------------
 ! Name  Definition              Value          Derivative Info.                !
 --------------------------------------------------------------------------------
 ! R1    R(1,2)                  1.3942         estimate D2E/DX2                !
 ! R2    R(1,6)                  1.3962         estimate D2E/DX2                !
 ! R3    R(1,14)                 1.087          estimate D2E/DX2                !
 ! R4    R(2,3)                  1.4052         estimate D2E/DX2                !
 ! R5    R(2,15)                 1.0866         estimate D2E/DX2                !
 ! R6    R(3,4)                  1.4053         estimate D2E/DX2                !
 ! R7    R(3,7)                  1.4858         estimate D2E/DX2                !
 ! R8    R(4,5)                  1.3941         estimate D2E/DX2                !
 ! R9    R(4,16)                 1.0865         estimate D2E/DX2                !
 ! R10   R(5,6)                  1.396          estimate D2E/DX2                !
 ! R11   R(5,17)                 1.087          estimate D2E/DX2                !
 ! R12   R(6,18)                 1.0867         estimate D2E/DX2                !
 ! R13   R(7,8)                  1.4053         estimate D2E/DX2                !
 ! R14   R(7,12)                 1.4053         estimate D2E/DX2                !
 ! R15   R(8,9)                  1.394          estimate D2E/DX2                !
 ! R16   R(8,19)                 1.0865         estimate D2E/DX2                !
 ! R17   R(9,10)                 1.3961         estimate D2E/DX2                !
 ! R18   R(9,20)                 1.087          estimate D2E/DX2                !
 ! R19   R(10,11)                1.3961         estimate D2E/DX2                !
 ! R20   R(10,21)                1.0867         estimate D2E/DX2                !
 ! R21   R(11,12)                1.3941         estimate D2E/DX2                !
 ! R22   R(11,22)                1.0869         estimate D2E/DX2                !
 ! R23   R(12,13)                1.0865         estimate D2E/DX2                !
 ! A1    A(2,1,6)              120.2576         estimate D2E/DX2                !
 ! A2    A(2,1,14)             119.6386         estimate D2E/DX2                !
 ! A3    A(6,1,14)             120.1014         estimate D2E/DX2                !
 ! A4    A(1,2,3)              120.9743         estimate D2E/DX2                !
 ! A5    A(1,2,15)             119.6302         estimate D2E/DX2                !
 ! A6    A(3,2,15)             119.377          estimate D2E/DX2                !
 ! A7    A(2,3,4)              118.0902         estimate D2E/DX2                !
 ! A8    A(2,3,7)              120.9964         estimate D2E/DX2                !
 ! A9    A(4,3,7)              120.9135         estimate D2E/DX2                !
 ! A10   A(3,4,5)              120.9782         estimate D2E/DX2                !
 ! A11   A(3,4,16)             119.3812         estimate D2E/DX2                !
 ! A12   A(5,4,16)             119.6213         estimate D2E/DX2                !
 ! A13   A(4,5,6)              120.2564         estimate D2E/DX2                !
 ! A14   A(4,5,17)             119.6408         estimate D2E/DX2                !
 ! A15   A(6,5,17)             120.1003         estimate D2E/DX2                !
 ! A16   A(1,6,5)              119.4433         estimate D2E/DX2                !
 ! A17   A(1,6,18)             120.2677         estimate D2E/DX2                !
 ! A18   A(5,6,18)             120.289          estimate D2E/DX2                !
 ! A19   A(3,7,8)              120.947          estimate D2E/DX2                !
 ! A20   A(3,7,12)             120.9674         estimate D2E/DX2                !
 ! A21   A(8,7,12)             118.0855         estimate D2E/DX2                !
 ! A22   A(7,8,9)              120.9803         estimate D2E/DX2                !
 ! A23   A(7,8,19)             119.3636         estimate D2E/DX2                !
 ! A24   A(9,8,19)             119.6376         estimate D2E/DX2                !
 ! A25   A(8,9,10)             120.2536         estimate D2E/DX2                !
 ! A26   A(8,9,20)             119.641          estimate D2E/DX2                !
 ! A27   A(10,9,20)            120.1032         estimate D2E/DX2                !
 ! A28   A(9,10,11)            119.4468         estimate D2E/DX2                !
 ! A29   A(9,10,21)            120.2763         estimate D2E/DX2                !
 ! A30   A(11,10,21)           120.277          estimate D2E/DX2                !
 ! A31   A(10,11,12)           120.2576         estimate D2E/DX2                !
 ! A32   A(10,11,22)           120.096          estimate D2E/DX2                !
 ! A33   A(12,11,22)           119.644          estimate D2E/DX2                !
 ! A34   A(7,12,11)            120.9762         estimate D2E/DX2                !
 ! A35   A(7,12,13)            119.3806         estimate D2E/DX2                !
 ! A36   A(11,12,13)           119.6234         estimate D2E/DX2                !
 ! D1    D(6,1,2,3)             -0.0693         estimate D2E/DX2                !
 ! D2    D(6,1,2,15)           178.354          estimate D2E/DX2                !
 ! D3    D(14,1,2,3)          -179.51           estimate D2E/DX2                !
 ! D4    D(14,1,2,15)           -1.0867         estimate D2E/DX2                !
 ! D5    D(2,1,6,5)              0.0238         estimate D2E/DX2                !
 ! D6    D(2,1,6,18)          -179.9699         estimate D2E/DX2                !
 ! D7    D(14,1,6,5)           179.4619         estimate D2E/DX2                !
 ! D8    D(14,1,6,18)           -0.5318         estimate D2E/DX2                !
 ! D9    D(1,2,3,4)              0.0476         estimate D2E/DX2                !
 ! D10   D(1,2,3,7)           -179.8987         estimate D2E/DX2                !
 ! D11   D(15,2,3,4)          -178.3797         estimate D2E/DX2                !
 ! D12   D(15,2,3,7)             1.674          estimate D2E/DX2                !
 ! D13   D(2,3,4,5)              0.0186         estimate D2E/DX2                !
 ! D14   D(2,3,4,16)          -178.3776         estimate D2E/DX2                !
 ! D15   D(7,3,4,5)            179.965          estimate D2E/DX2                !
 ! D16   D(7,3,4,16)             1.5687         estimate D2E/DX2                !
 ! D17   D(2,3,7,8)           -141.903          estimate D2E/DX2                !
 ! D18   D(2,3,7,12)            38.1929         Scan                            !
 ! D19   D(4,3,7,8)             38.1522         estimate D2E/DX2                !
 ! D20   D(4,3,7,12)          -141.7519         estimate D2E/DX2                !
 ! D21   D(3,4,5,6)             -0.0636         estimate D2E/DX2                !
 ! D22   D(3,4,5,17)          -179.4961         estimate D2E/DX2                !
 ! D23   D(16,4,5,6)           178.3289         estimate D2E/DX2                !
 ! D24   D(16,4,5,17)           -1.1037         estimate D2E/DX2                !
 ! D25   D(4,5,6,1)              0.0419         estimate D2E/DX2                !
 ! D26   D(4,5,6,18)          -179.9644         estimate D2E/DX2                !
 ! D27   D(17,5,6,1)           179.4719         estimate D2E/DX2                !
 ! D28   D(17,5,6,18)           -0.5345         estimate D2E/DX2                !
 ! D29   D(3,7,8,9)           -179.8644         estimate D2E/DX2                !
 ! D30   D(3,7,8,19)             1.7063         estimate D2E/DX2                !
 ! D31   D(12,7,8,9)             0.0424         estimate D2E/DX2                !
 ! D32   D(12,7,8,19)         -178.3869         estimate D2E/DX2                !
 ! D33   D(3,7,12,11)          179.9275         estimate D2E/DX2                !
 ! D34   D(3,7,12,13)            1.5543         estimate D2E/DX2                !
 ! D35   D(8,7,12,11)            0.0207         estimate D2E/DX2                !
 ! D36   D(8,7,12,13)         -178.3524         estimate D2E/DX2                !
 ! D37   D(7,8,9,10)            -0.0647         estimate D2E/DX2                !
 ! D38   D(7,8,9,20)          -179.526          estimate D2E/DX2                !
 ! D39   D(19,8,9,10)          178.3603         estimate D2E/DX2                !
 ! D40   D(19,8,9,20)           -1.101          estimate D2E/DX2                !
 ! D41   D(8,9,10,11)            0.023          estimate D2E/DX2                !
 ! D42   D(8,9,10,21)         -179.9832         estimate D2E/DX2                !
 ! D43   D(20,9,10,11)         179.4818         estimate D2E/DX2                !
 ! D44   D(20,9,10,21)          -0.5244         estimate D2E/DX2                !
 ! D45   D(9,10,11,12)           0.0396         estimate D2E/DX2                !
 ! D46   D(9,10,11,22)         179.4677         estimate D2E/DX2                !
 ! D47   D(21,10,11,12)       -179.9541         estimate D2E/DX2                !
 ! D48   D(21,10,11,22)         -0.5261         estimate D2E/DX2                !
 ! D49   D(10,11,12,7)          -0.0619         estimate D2E/DX2                !
 ! D50   D(10,11,12,13)        178.3073         estimate D2E/DX2                !
 ! D51   D(22,11,12,7)        -179.4926         estimate D2E/DX2                !
 ! D52   D(22,11,12,13)         -1.1234         estimate D2E/DX2                !
 --------------------------------------------------------------------------------
 Trust Radius=3.00D-01 FncErr=1.00D-07 GrdErr=1.00D-07
 Number of optimizations in scan=  37
 Number of steps in this run=    121 maximum allowed number of steps=    132.
 GradGradGradGradGradGradGradGradGradGradGradGradGradGradGradGradGradGrad

                          Input orientation:                          
 ---------------------------------------------------------------------
 Center     Atomic      Atomic             Coordinates (Angstroms)
 Number     Number       Type             X           Y           Z
 ---------------------------------------------------------------------
      1          6           0       -2.942900   -0.655400    0.839900
      2          6           0       -1.554500   -0.528800    0.851100
      3          6           0       -0.907600    0.413100    0.033300
      4          6           0       -1.700400    1.224900   -0.795800
      5          6           0       -3.088900    1.100000   -0.806700
      6          6           0       -3.716900    0.158800    0.010900
      7          6           0        0.572100    0.546900    0.043200
      8          6           0        1.184400    1.807900   -0.056600
      9          6           0        2.572700    1.934000   -0.050200
     10          6           0        3.381400    0.801100    0.057600
     11          6           0        2.788100   -0.458600    0.158400
     12          6           0        1.399700   -0.583800    0.150600
     13          1           0        0.949200   -1.571200    0.201800
     14          1           0       -3.421300   -1.385800    1.487300
     15          1           0       -0.963900   -1.149000    1.519800
     16          1           0       -1.220500    1.941900   -1.456200
     17          1           0       -3.680500    1.733500   -1.462600
     18          1           0       -4.799100    0.060600    0.002400
     19          1           0        0.564300    2.698200   -0.114000
     20          1           0        3.023200    2.920700   -0.120800
     21          1           0        4.463700    0.899000    0.062900
     22          1           0        3.407700   -1.348400    0.234100
 ---------------------------------------------------------------------
                    Distance matrix (angstroms):
                    1          2          3          4          5
     1  C    0.000000
     2  C    1.394205   0.000000
     3  C    2.436133   1.405152   0.000000
     4  C    2.784753   2.410193   1.405332   0.000000
     5  C    2.411231   2.784901   2.436288   1.394149   0.000000
     6  C    1.396151   2.419649   2.820875   2.419423   1.395962
     7  C    3.799405   2.516398   1.485770   2.515524   3.798838
     8  C    4.889393   3.712904   2.515952   3.034531   4.396006
     9  C    6.157850   4.889939   3.799026   4.395239   5.772483
    10  C    6.536831   5.173141   4.306583   5.170357   6.534611
    11  C    5.774732   4.398060   3.799172   4.887873   6.156280
    12  C    4.397549   3.036614   2.516188   3.711831   4.888674
    13  H    4.048988   2.788674   2.722783   3.979166   4.945567
    14  H    1.086958   2.150382   3.415969   3.871666   3.398842
    15  H    2.149964   1.086562   2.157083   3.397034   3.871205
    16  H    3.871008   3.396991   2.157254   1.086518   2.149782
    17  H    3.398883   3.871832   3.416160   2.150370   1.086976
    18  H    2.158597   3.405160   3.907555   3.405093   2.158652
    19  H    4.945403   3.979229   2.722107   2.786455   4.047215
    20  H    7.021808   5.813689   4.665082   5.063967   6.414294
    21  H    7.607734   6.235271   5.393314   6.232151   7.605154
    22  H    6.416959   5.067135   4.665299   5.811648   7.020238
                    6          7          8          9         10
     6  C    0.000000
     7  C    4.306644   0.000000
     8  C    5.171734   1.405344   0.000000
     9  C    6.535605   2.436221   1.394030   0.000000
    10  C    7.127453   2.820814   2.419400   1.396094   0.000000
    11  C    6.535898   2.436177   2.784798   2.411316   1.396069
    12  C    5.172095   1.405325   2.410294   2.784882   2.419449
    13  H    4.980144   2.157245   3.397117   3.871135   3.400617
    14  H    2.157064   4.665619   5.813417   7.022323   7.287201
    15  H    3.400901   2.723182   3.980388   4.947457   4.982223
    16  H    3.400565   2.721698   2.785746   4.045400   4.976997
    17  H    2.156898   4.664768   5.064546   6.413859   7.283599
    18  H    1.086679   5.393324   6.233684   7.606302   8.214132
    19  H    4.979239   2.157050   1.086486   2.149824   3.400660
    20  H    7.285217   3.416096   2.150263   1.086974   2.157044
    21  H    8.214184   3.907546   3.405024   2.158680   1.086732
    22  H    7.285698   3.416026   3.871666   3.398853   2.156895
                   11         12         13         14         15
    11  C    0.000000
    12  C    1.394055   0.000000
    13  H    2.149725   1.086522   0.000000
    14  H    6.417346   5.066756   4.559403   0.000000
    15  H    4.050625   2.789402   2.361213   2.468997   0.000000
    16  H    4.943502   3.978243   4.449543   4.957953   4.298381
    17  H    7.019667   5.812119   5.926668   4.301061   4.958168
    18  H    7.606544   6.233966   5.978753   2.489043   4.298185
    19  H    3.871030   3.396974   4.298332   5.926907   4.450353
    20  H    3.398955   3.871812   4.958096   7.916029   5.928827
    21  H    2.158665   3.405067   4.298010   8.332014   5.981279
    22  H    1.086912   2.150267   2.468786   6.943137   4.561104
                   16         17         18         19         20
    16  H    0.000000
    17  H    2.468820   0.000000
    18  H    4.298044   2.489194   0.000000
    19  H    2.357754   4.557159   5.978005   0.000000
    20  H    4.555253   6.938982   8.329690   2.468956   0.000000
    21  H    5.975402   8.327757   9.300862   4.298108   2.489188
    22  H    5.924814   7.913247   8.330098   4.957930   4.301047
                   21         22
    21  H    0.000000
    22  H    2.489026   0.000000
 Stoichiometry    C12H10
 Framework group  C1[X(C12H10)]
 Deg. of freedom    60
 Full point group                 C1      NOp   1
 Largest Abelian subgroup         C1      NOp   1
 Largest concise Abelian subgroup C1      NOp   1
                         Standard orientation:                         
 ---------------------------------------------------------------------
 Center     Atomic      Atomic             Coordinates (Angstroms)
 Number     Number       Type             X           Y           Z
 ---------------------------------------------------------------------
      1          6           0        2.860973    1.138964    0.392702
      2          6           0        1.466770    1.139032    0.395032
      3          6           0        0.742890    0.000698    0.001784
      4          6           0        1.464620   -1.138652   -0.393117
      5          6           0        2.858767   -1.140154   -0.394480
      6          6           0        3.563762   -0.001030   -0.001936
      7          6           0       -0.742880    0.000966    0.001951
      8          6           0       -1.465733   -1.138266    0.395178
      9          6           0       -2.859760   -1.139704    0.392925
     10          6           0       -3.563691   -0.000472   -0.001677
     11          6           0       -2.859884    1.139498   -0.394275
     12          6           0       -1.465829    1.139540   -0.392932
     13          1           0       -0.928469    2.022932   -0.726687
     14          1           0        3.399076    2.028929    0.708746
     15          1           0        0.930176    2.022632    0.729599
     16          1           0        0.926315   -2.021596   -0.726523
     17          1           0        3.395075   -2.030725   -0.711928
     18          1           0        4.650441   -0.001426   -0.003348
     19          1           0       -0.928081   -2.021194    0.729574
     20          1           0       -3.396931   -2.030355    0.708677
     21          1           0       -4.650421   -0.001097   -0.003314
     22          1           0       -3.397202    2.029380   -0.711731
 ---------------------------------------------------------------------
 Rotational constants (GHZ):      2.8593405      0.5455315      0.4745243
 Standard basis: 6-31G(d) (6D, 7F)
 There are   200 symmetry adapted cartesian basis functions of A   symmetry.
 There are   200 symmetry adapted basis functions of A   symmetry.
   200 basis functions,   376 primitive gaussians,   200 cartesian basis functions
    41 alpha electrons       41 beta electrons
       nuclear repulsion energy       598.7025936208 Hartrees.
 NAtoms=   22 NActive=   22 NUniq=   22 SFac= 1.00D+00 NAtFMM=   60 NAOKFM=F Big=F
 Integral buffers will be    131072 words long.
 Raffenetti 1 integral format.
 Two-electron integral symmetry is turned on.
 One-electron integrals computed using PRISM.
 NBasis=   200 RedAO= T EigKep=  4.58D-04  NBF=   200
 NBsUse=   200 1.00D-06 EigRej= -1.00D+00 NBFU=   200
 ExpMin= 1.61D-01 ExpMax= 3.05D+03 ExpMxC= 4.57D+02 IAcc=1 IRadAn=         1 AccDes= 0.00D+00
 Harris functional with IExCor=  205 and IRadAn=       1 diagonalized for initial guess.
 HarFok:  IExCor=  205 AccDes= 0.00D+00 IRadAn=         1 IDoV= 1 UseB2=F ITyADJ=14
 ICtDFT=  3500011 ScaDFX=  1.000000  1.000000  1.000000  1.000000
 FoFCou: FMM=F IPFlag=           0 FMFlag=      100000 FMFlg1=           0
         NFxFlg=           0 DoJE=T BraDBF=F KetDBF=T FulRan=T
         wScrn=  0.000000 ICntrl=     500 IOpCl=  0 I1Cent=   200000004 NGrid=           0
         NMat0=    1 NMatS0=      1 NMatT0=    0 NMatD0=    1 NMtDS0=    0 NMtDT0=    0
 Petite list used in FoFCou.
 Requested convergence on RMS density matrix=1.00D-08 within 128 cycles.
 Requested convergence on MAX density matrix=1.00D-06.
 Requested convergence on             energy=1.00D-06.
 No special actions if energy rises.
 Integral accuracy reduced to 1.0D-05 until final iterations.
 Initial convergence to 1.0D-05 achieved.  Increase integral accuracy.
 SCF Done:  E(RHF) =  -460.251284740     A.U. after   14 cycles
            NFock= 14  Conv=0.78D-08     -V/T= 2.0020

 **********************************************************************

            Population analysis using the SCF density.

 **********************************************************************

 Orbital symmetries:
       Occupied  (A) (A) (A) (A) (A) (A) (A) (A) (A) (A) (A) (A)
                 (A) (A) (A) (A) (A) (A) (A) (A) (A) (A) (A) (A)
                 (A) (A) (A) (A) (A) (A) (A) (A) (A) (A) (A) (A)
                 (A) (A) (A) (A) (A)
       Virtual   (A) (A) (A) (A) (A) (A) (A) (A) (A) (A) (A) (A)
                 (A) (A) (A) (A) (A) (A) (A) (A) (A) (A) (A) (A)
                 (A) (A) (A) (A) (A) (A) (A) (A) (A) (A) (A) (A)
                 (A) (A) (A) (A) (A) (A) (A) (A) (A) (A) (A) (A)
                 (A) (A) (A) (A) (A) (A) (A) (A) (A) (A) (A) (A)
                 (A) (A) (A) (A) (A) (A) (A) (A) (A) (A) (A) (A)
                 (A) (A) (A) (A) (A) (A) (A) (A) (A) (A) (A) (A)
                 (A) (A) (A) (A) (A) (A) (A) (A) (A) (A) (A) (A)
                 (A) (A) (A) (A) (A) (A) (A) (A) (A) (A) (A) (A)
                 (A) (A) (A) (A) (A) (A) (A) (A) (A) (A) (A) (A)
                 (A) (A) (A) (A) (A) (A) (A) (A) (A) (A) (A) (A)
                 (A) (A) (A) (A) (A) (A) (A) (A) (A) (A) (A) (A)
                 (A) (A) (A) (A) (A) (A) (A) (A) (A) (A) (A) (A)
                 (A) (A) (A)
 The electronic state is 1-A.
 Alpha  occ. eigenvalues --  -11.24513 -11.24442 -11.23584 -11.23583 -11.23550
 Alpha  occ. eigenvalues --  -11.23549 -11.23399 -11.23399 -11.23370 -11.23369
 Alpha  occ. eigenvalues --  -11.23346 -11.23345  -1.16258  -1.13463  -1.04751
 Alpha  occ. eigenvalues --   -1.01421  -1.00554  -0.97706  -0.84648  -0.83680
 Alpha  occ. eigenvalues --   -0.80450  -0.78480  -0.71278  -0.67595  -0.65115
 Alpha  occ. eigenvalues --   -0.63276  -0.61146  -0.59930  -0.58650  -0.58020
 Alpha  occ. eigenvalues --   -0.57685  -0.51606  -0.51030  -0.49908  -0.48421
 Alpha  occ. eigenvalues --   -0.47980  -0.47743  -0.36277  -0.33188  -0.33184
 Alpha  occ. eigenvalues --   -0.29430
 Alpha virt. eigenvalues --    0.10868   0.14009   0.14549   0.18426   0.24003
 Alpha virt. eigenvalues --    0.24305   0.27678   0.29726   0.29943   0.31882
 Alpha virt. eigenvalues --    0.32376   0.32877   0.34279   0.34646   0.38028
 Alpha virt. eigenvalues --    0.38349   0.43731   0.44557   0.46464   0.48930
 Alpha virt. eigenvalues --    0.49104   0.49354   0.53290   0.55519   0.57621
 Alpha virt. eigenvalues --    0.62804   0.71076   0.73518   0.74454   0.74719
 Alpha virt. eigenvalues --    0.76528   0.76933   0.77017   0.77743   0.78343
 Alpha virt. eigenvalues --    0.81805   0.82049   0.83013   0.83527   0.84007
 Alpha virt. eigenvalues --    0.84151   0.84307   0.84490   0.84629   0.86943
 Alpha virt. eigenvalues --    0.87448   0.88690   0.91969   0.92490   0.93353
 Alpha virt. eigenvalues --    0.97469   1.01343   1.03639   1.08359   1.09076
 Alpha virt. eigenvalues --    1.10753   1.11020   1.11262   1.11490   1.11561
 Alpha virt. eigenvalues --    1.11732   1.15723   1.18177   1.18351   1.19233
 Alpha virt. eigenvalues --    1.21155   1.21337   1.22289   1.23722   1.27389
 Alpha virt. eigenvalues --    1.28895   1.30033   1.32746   1.35510   1.35522
 Alpha virt. eigenvalues --    1.40390   1.42620   1.43536   1.46316   1.47313
 Alpha virt. eigenvalues --    1.52240   1.54441   1.58602   1.67515   1.68205
 Alpha virt. eigenvalues --    1.69210   1.72109   1.72531   1.74014   1.77213
 Alpha virt. eigenvalues --    1.77648   1.77680   1.77936   1.79754   1.80043
 Alpha virt. eigenvalues --    1.91133   2.01201   2.07829   2.07852   2.12223
 Alpha virt. eigenvalues --    2.13701   2.14108   2.16185   2.17120   2.23644
 Alpha virt. eigenvalues --    2.25296   2.30187   2.31626   2.34249   2.38144
 Alpha virt. eigenvalues --    2.38367   2.39017   2.43787   2.43974   2.46078
 Alpha virt. eigenvalues --    2.47411   2.47491   2.49020   2.53442   2.54650
 Alpha virt. eigenvalues --    2.61502   2.61965   2.63825   2.64044   2.64215
 Alpha virt. eigenvalues --    2.66297   2.75257   2.84236   2.91061   2.91688
 Alpha virt. eigenvalues --    2.92336   2.97382   2.98976   3.01827   3.02948
 Alpha virt. eigenvalues --    3.07383   3.09125   3.09545   3.10141   3.12314
 Alpha virt. eigenvalues --    3.13956   3.20175   3.31823   3.35526   3.56989
 Alpha virt. eigenvalues --    3.74084   3.84194   4.51530   4.51970   4.54219
 Alpha virt. eigenvalues --    4.54434   4.54592   4.58087   4.72974   4.75358
 Alpha virt. eigenvalues --    4.76553   4.84224   5.06644   5.19076
          Condensed to atoms (all electrons):
               1          2          3          4          5          6
     1  C    4.898619   0.538648  -0.039124  -0.035384  -0.043092   0.550560
     2  C    0.538648   4.939678   0.556203  -0.041910  -0.035368  -0.047013
     3  C   -0.039124   0.556203   4.751019   0.556137  -0.039136  -0.027368
     4  C   -0.035384  -0.041910   0.556137   4.939818   0.538693  -0.047023
     5  C   -0.043092  -0.035368  -0.039136   0.538693   4.898485   0.550570
     6  C    0.550560  -0.047013  -0.027368  -0.047023   0.550570   4.897082
     7  C    0.003546  -0.043776   0.372702  -0.043829   0.003557   0.000213
     8  C   -0.000093   0.002933  -0.043813  -0.008828   0.000171   0.000001
     9  C    0.000001  -0.000093   0.003549   0.000170  -0.000001  -0.000000
    10  C   -0.000000   0.000001   0.000213   0.000001  -0.000000   0.000000
    11  C   -0.000000   0.000169   0.003553  -0.000093   0.000001  -0.000000
    12  C    0.000168  -0.008774  -0.043785   0.002921  -0.000093   0.000001
    13  H    0.000026   0.002846  -0.001303  -0.000003  -0.000011  -0.000005
    14  H    0.381230  -0.028850   0.001744   0.000265   0.002413  -0.029675
    15  H   -0.028680   0.378046  -0.033011   0.002877   0.000100   0.002365
    16  H    0.000100   0.002876  -0.033012   0.378068  -0.028685   0.002366
    17  H    0.002414   0.000264   0.001746  -0.028853   0.381226  -0.029683
    18  H   -0.029970   0.002407   0.000239   0.002407  -0.029959   0.381823
    19  H   -0.000011  -0.000004  -0.001298   0.002841   0.000027  -0.000005
    20  H   -0.000000   0.000001  -0.000102  -0.000003  -0.000000   0.000000
    21  H    0.000000  -0.000000   0.000003  -0.000000   0.000000   0.000000
    22  H   -0.000000  -0.000003  -0.000102   0.000001  -0.000000   0.000000
               7          8          9         10         11         12
     1  C    0.003546  -0.000093   0.000001  -0.000000  -0.000000   0.000168
     2  C   -0.043776   0.002933  -0.000093   0.000001   0.000169  -0.008774
     3  C    0.372702  -0.043813   0.003549   0.000213   0.003553  -0.043785
     4  C   -0.043829  -0.008828   0.000170   0.000001  -0.000093   0.002921
     5  C    0.003557   0.000171  -0.000001  -0.000000   0.000001  -0.000093
     6  C    0.000213   0.000001  -0.000000   0.000000  -0.000000   0.000001
     7  C    4.751144   0.556161  -0.039129  -0.027379  -0.039130   0.556170
     8  C    0.556161   4.939783   0.538696  -0.047022  -0.035378  -0.041904
     9  C   -0.039129   0.538696   4.898516   0.550542  -0.043085  -0.035367
    10  C   -0.027379  -0.047022   0.550542   4.897126   0.550591  -0.047023
    11  C   -0.039130  -0.035378  -0.043085   0.550591   4.898492   0.538682
    12  C    0.556170  -0.041904  -0.035367  -0.047023   0.538682   4.939595
    13  H   -0.033003   0.002877   0.000100   0.002367  -0.028698   0.378056
    14  H   -0.000102   0.000001  -0.000000   0.000000  -0.000000  -0.000003
    15  H   -0.001294  -0.000003  -0.000011  -0.000005   0.000026   0.002839
    16  H   -0.001309   0.002848   0.000027  -0.000005  -0.000011  -0.000004
    17  H   -0.000102  -0.000003  -0.000000   0.000000  -0.000000   0.000001
    18  H    0.000003  -0.000000   0.000000   0.000000   0.000000  -0.000000
    19  H   -0.033030   0.378058  -0.028674   0.002366   0.000100   0.002878
    20  H    0.001745  -0.028852   0.381223  -0.029671   0.002412   0.000264
    21  H    0.000240   0.002407  -0.029964   0.381817  -0.029965   0.002407
    22  H    0.001746   0.000264   0.002413  -0.029681   0.381239  -0.028856
              13         14         15         16         17         18
     1  C    0.000026   0.381230  -0.028680   0.000100   0.002414  -0.029970
     2  C    0.002846  -0.028850   0.378046   0.002876   0.000264   0.002407
     3  C   -0.001303   0.001744  -0.033011  -0.033012   0.001746   0.000239
     4  C   -0.000003   0.000265   0.002877   0.378068  -0.028853   0.002407
     5  C   -0.000011   0.002413   0.000100  -0.028685   0.381226  -0.029959
     6  C   -0.000005  -0.029675   0.002365   0.002366  -0.029683   0.381823
     7  C   -0.033003  -0.000102  -0.001294  -0.001309  -0.000102   0.000003
     8  C    0.002877   0.000001  -0.000003   0.002848  -0.000003  -0.000000
     9  C    0.000100  -0.000000  -0.000011   0.000027  -0.000000   0.000000
    10  C    0.002367   0.000000  -0.000005  -0.000005   0.000000   0.000000
    11  C   -0.028698  -0.000000   0.000026  -0.000011  -0.000000   0.000000
    12  C    0.378056  -0.000003   0.002839  -0.000004   0.000001  -0.000000
    13  H    0.469437   0.000003   0.000530   0.000003   0.000000  -0.000000
    14  H    0.000003   0.473500  -0.001464   0.000010  -0.000107  -0.001392
    15  H    0.000530  -0.001464   0.469435  -0.000110   0.000010  -0.000103
    16  H    0.000003   0.000010  -0.000110   0.469399  -0.001466  -0.000103
    17  H    0.000000  -0.000107   0.000010  -0.001466   0.473519  -0.001394
    18  H   -0.000000  -0.001392  -0.000103  -0.000103  -0.001394   0.474139
    19  H   -0.000110   0.000000   0.000003   0.000519   0.000003  -0.000000
    20  H    0.000010   0.000000   0.000000   0.000003   0.000000  -0.000000
    21  H   -0.000103  -0.000000  -0.000000  -0.000000  -0.000000  -0.000000
    22  H   -0.001467   0.000000   0.000003   0.000000   0.000000  -0.000000
              19         20         21         22
     1  C   -0.000011  -0.000000   0.000000  -0.000000
     2  C   -0.000004   0.000001  -0.000000  -0.000003
     3  C   -0.001298  -0.000102   0.000003  -0.000102
     4  C    0.002841  -0.000003  -0.000000   0.000001
     5  C    0.000027  -0.000000   0.000000  -0.000000
     6  C   -0.000005   0.000000   0.000000   0.000000
     7  C   -0.033030   0.001745   0.000240   0.001746
     8  C    0.378058  -0.028852   0.002407   0.000264
     9  C   -0.028674   0.381223  -0.029964   0.002413
    10  C    0.002366  -0.029671   0.381817  -0.029681
    11  C    0.000100   0.002412  -0.029965   0.381239
    12  C    0.002878   0.000264   0.002407  -0.028856
    13  H   -0.000110   0.000010  -0.000103  -0.001467
    14  H    0.000000   0.000000  -0.000000   0.000000
    15  H    0.000003   0.000000  -0.000000   0.000003
    16  H    0.000519   0.000003  -0.000000   0.000000
    17  H    0.000003   0.000000  -0.000000   0.000000
    18  H   -0.000000  -0.000000  -0.000000  -0.000000
    19  H    0.469427  -0.001466  -0.000103   0.000010
    20  H   -0.001466   0.473500  -0.001392  -0.000107
    21  H   -0.000103  -0.001392   0.474157  -0.001393
    22  H    0.000010  -0.000107  -0.001393   0.473504
 Mulliken charges:
               1
     1  C   -0.198957
     2  C   -0.218282
     3  C    0.014946
     4  C   -0.218272
     5  C   -0.198897
     6  C   -0.204211
     7  C    0.014855
     8  C   -0.218304
     9  C   -0.198914
    10  C   -0.204240
    11  C   -0.198905
    12  C   -0.218173
    13  H    0.208447
    14  H    0.202428
    15  H    0.208448
    16  H    0.208484
    17  H    0.202424
    18  H    0.201902
    19  H    0.208467
    20  H    0.202435
    21  H    0.201890
    22  H    0.202429
 Sum of Mulliken charges =  -0.00000
 Mulliken charges with hydrogens summed into heavy atoms:
               1
     1  C    0.003471
     2  C   -0.009834
     3  C    0.014946
     4  C   -0.009788
     5  C    0.003527
     6  C   -0.002309
     7  C    0.014855
     8  C   -0.009836
     9  C    0.003521
    10  C   -0.002350
    11  C    0.003524
    12  C   -0.009726
 Electronic spatial extent (au):  <R**2>=           2314.1393
 Charge=             -0.0000 electrons
 Dipole moment (field-independent basis, Debye):
    X=              0.0002    Y=             -0.0005    Z=             -0.0027  Tot=              0.0028
 Quadrupole moment (field-independent basis, Debye-Ang):
   XX=            -61.0737   YY=            -62.8498   ZZ=            -75.7642
   XY=              0.0070   XZ=              0.0045   YZ=              0.0002
 Traceless Quadrupole moment (field-independent basis, Debye-Ang):
   XX=              5.4889   YY=              3.7128   ZZ=             -9.2016
   XY=              0.0070   XZ=              0.0045   YZ=              0.0002
 Octapole moment (field-independent basis, Debye-Ang**2):
  XXX=              0.0048  YYY=             -0.0038  ZZZ=             -0.0040  XYY=             -0.0015
  XXY=             -0.0040  XXZ=             -0.0952  XZZ=              0.0004  YZZ=              0.0009
  YYZ=             -0.0068  XYZ=             11.9440
 Hexadecapole moment (field-independent basis, Debye-Ang**3):
 XXXX=          -2282.4479 YYYY=           -493.3899 ZZZZ=           -144.1852 XXXY=              0.1510
 XXXZ=              0.0816 YYYX=              0.0331 YYYZ=              0.0014 ZZZX=              0.0083
 ZZZY=             -0.0006 XXYY=           -471.9069 XXZZ=           -493.6892 YYZZ=           -110.3902
 XXYZ=              0.0041 YYXZ=              0.0092 ZZXY=             -0.0296
 N-N= 5.987025936208D+02 E-N=-2.268516485220D+03  KE= 4.593351607248D+02
 Calling FoFJK, ICntrl=      2127 FMM=F ISym2X=0 I1Cent= 0 IOpClX= 0 NMat=1 NMatS=1 NMatT=0.
 ***** Axes restored to original set *****
 -------------------------------------------------------------------
 Center     Atomic                   Forces (Hartrees/Bohr)
 Number     Number              X              Y              Z
 -------------------------------------------------------------------
      1        6           0.000831519    0.002172540   -0.001741607
      2        6          -0.000408216    0.002801390   -0.001263815
      3        6          -0.013979793   -0.001147796   -0.000244967
      4        6           0.000073838   -0.002933254    0.001323118
      5        6           0.001187376   -0.001878357    0.001677868
      6        6           0.003060882    0.000158226    0.000160879
      7        6           0.014079513    0.001248170    0.000042856
      8        6           0.000268429   -0.002973186    0.001304482
      9        6          -0.000662195   -0.002729471    0.000352243
     10        6          -0.003012287   -0.000260388   -0.000007838
     11        6          -0.001141463    0.002606047   -0.000355114
     12        6          -0.000264499    0.002940953   -0.001300179
     13        1           0.004255288    0.007782587   -0.000435266
     14        1           0.003729174    0.005784483   -0.005186565
     15        1          -0.005382122    0.004825610   -0.005201607
     16        1          -0.004495844   -0.005725759    0.005116212
     17        1           0.004636646   -0.005030289    0.005255463
     18        1           0.008569831    0.000788674    0.000052864
     19        1           0.005607082   -0.006851815    0.000513479
     20        1          -0.003505050   -0.007864308    0.000539305
     21        1          -0.008607289   -0.000779422   -0.000037896
     22        1          -0.004840821    0.007065364   -0.000563917
 -------------------------------------------------------------------
 Cartesian Forces:  Max     0.014079513 RMS     0.004352179

 GradGradGradGradGradGradGradGradGradGradGradGradGradGradGradGradGradGrad
 Berny optimization.
 FormGI is forming the generalized inverse of G from B-inverse, IUseBI=4.
 Internal  Forces:  Max     0.012072165 RMS     0.004633993
 Search for a local minimum.
 Step number   1 out of a maximum of  121 on scan point     1 out of    37
 All quantities printed in internal units (Hartrees-Bohrs-Radians)
 Mixed Optimization -- RFO/linear search
 Second derivative matrix not updated -- first step.
 ITU=  0
     Eigenvalues ---    0.01403   0.01688   0.02036   0.02037   0.02086
     Eigenvalues ---    0.02086   0.02099   0.02099   0.02131   0.02132
     Eigenvalues ---    0.02141   0.02141   0.02148   0.02148   0.02154
     Eigenvalues ---    0.02155   0.02156   0.02156   0.15994   0.15994
     Eigenvalues ---    0.15995   0.15995   0.15999   0.15999   0.15999
     Eigenvalues ---    0.15999   0.16000   0.16000   0.22000   0.22000
     Eigenvalues ---    0.22000   0.22000   0.23469   0.23469   0.25000
     Eigenvalues ---    0.25000   0.33917   0.35164   0.35165   0.35167
     Eigenvalues ---    0.35172   0.35193   0.35199   0.35213   0.35218
     Eigenvalues ---    0.35218   0.35222   0.41504   0.41514   0.41752
     Eigenvalues ---    0.41757   0.45173   0.45178   0.45627   0.45635
     Eigenvalues ---    0.46351   0.46354   0.46599   0.466221000.00000
     Eigenvalues --- 1000.000001000.000001000.000001000.000001000.00000
     Eigenvalues --- 1000.000001000.000001000.000001000.000001000.00000
     Eigenvalues --- 1000.000001000.000001000.000001000.000001000.00000
     Eigenvalues --- 1000.000001000.000001000.000001000.000001000.00000
     Eigenvalues --- 1000.000001000.000001000.000001000.000001000.00000
     Eigenvalues --- 1000.000001000.000001000.000001000.000001000.00000
     Eigenvalues --- 1000.000001000.000001000.000001000.000001000.00000
     Eigenvalues --- 1000.000001000.000001000.000001000.000001000.00000
     Eigenvalues --- 1000.000001000.000001000.000001000.000001000.00000
     Eigenvalues --- 1000.000001000.000001000.000001000.000001000.00000
     Eigenvalues --- 1000.00000
 RFO step:  Lambda=-5.72501760D-03 EMin= 1.40267354D-02
 Linear search not attempted -- first point.
 Iteration  1 RMS(Cart)=  0.02469885 RMS(Int)=  0.00009148
 Iteration  2 RMS(Cart)=  0.00020737 RMS(Int)=  0.00001562
 Iteration  3 RMS(Cart)=  0.00000003 RMS(Int)=  0.00001562
 Iteration  1 RMS(Cart)=  0.00000258 RMS(Int)=  0.00000118
 Iteration  2 RMS(Cart)=  0.00000152 RMS(Int)=  0.00000131
 Iteration  3 RMS(Cart)=  0.00000090 RMS(Int)=  0.00000150
 Variable       Old X    -DE/DX   Delta X   Delta X   Delta X     New X
                                 (Linear)    (Quad)   (Total)
    R1        2.63467  -0.01108   0.00000  -0.02349  -0.02349   2.61118
    R2        2.63834  -0.01207   0.00000  -0.02584  -0.02584   2.61250
    R3        2.05405  -0.00862   0.00000  -0.02411  -0.02411   2.02994
    R4        2.65535  -0.01165   0.00000  -0.02562  -0.02562   2.62973
    R5        2.05330  -0.00888   0.00000  -0.02482  -0.02482   2.02849
    R6        2.65569  -0.01175   0.00000  -0.02585  -0.02584   2.62985
    R7        2.80770   0.00218   0.00000   0.00633   0.00633   2.81403
    R8        2.63456  -0.01103   0.00000  -0.02337  -0.02337   2.61119
    R9        2.05322  -0.00887   0.00000  -0.02479  -0.02479   2.02843
   R10        2.63799  -0.01190   0.00000  -0.02544  -0.02545   2.61254
   R11        2.05409  -0.00863   0.00000  -0.02414  -0.02414   2.02995
   R12        2.05353  -0.00861   0.00000  -0.02406  -0.02406   2.02947
   R13        2.65572  -0.01176   0.00000  -0.02589  -0.02588   2.62983
   R14        2.65568  -0.01179   0.00000  -0.02595  -0.02595   2.62973
   R15        2.63433  -0.01093   0.00000  -0.02315  -0.02315   2.61118
   R16        2.05316  -0.00884   0.00000  -0.02470  -0.02470   2.02846
   R17        2.63824  -0.01201   0.00000  -0.02569  -0.02570   2.61253
   R18        2.05408  -0.00863   0.00000  -0.02414  -0.02414   2.02994
   R19        2.63819  -0.01201   0.00000  -0.02568  -0.02569   2.61250
   R20        2.05363  -0.00864   0.00000  -0.02416  -0.02416   2.02946
   R21        2.63438  -0.01093   0.00000  -0.02316  -0.02316   2.61122
   R22        2.05397  -0.00858   0.00000  -0.02401  -0.02401   2.02996
   R23        2.05323  -0.00886   0.00000  -0.02475  -0.02475   2.02848
    A1        2.09889   0.00016   0.00000   0.00053   0.00053   2.09942
    A2        2.08809  -0.00000   0.00000   0.00020   0.00020   2.08828
    A3        2.09617  -0.00016   0.00000  -0.00071  -0.00071   2.09545
    A4        2.11140   0.00020   0.00000   0.00095   0.00095   2.11235
    A5        2.08794  -0.00077   0.00000  -0.00457  -0.00458   2.08336
    A6        2.08352   0.00058   0.00000   0.00356   0.00356   2.08708
    A7        2.06106  -0.00046   0.00000  -0.00161  -0.00166   2.05941
    A8        2.11178   0.00005   0.00000   0.00009   0.00003   2.11182
    A9        2.11034   0.00041   0.00000   0.00150   0.00144   2.11178
   A10        2.11147   0.00016   0.00000   0.00083   0.00083   2.11230
   A11        2.08360   0.00059   0.00000   0.00362   0.00362   2.08721
   A12        2.08779  -0.00075   0.00000  -0.00443  -0.00444   2.08335
   A13        2.09887   0.00016   0.00000   0.00056   0.00056   2.09943
   A14        2.08813  -0.00001   0.00000   0.00013   0.00013   2.08826
   A15        2.09615  -0.00015   0.00000  -0.00070  -0.00070   2.09545
   A16        2.08468  -0.00021   0.00000  -0.00125  -0.00126   2.08342
   A17        2.09907   0.00013   0.00000   0.00073   0.00074   2.09980
   A18        2.09944   0.00009   0.00000   0.00051   0.00052   2.09995
   A19        2.11092   0.00031   0.00000   0.00112   0.00104   2.11197
   A20        2.11128   0.00014   0.00000   0.00045   0.00037   2.11165
   A21        2.06098  -0.00045   0.00000  -0.00154  -0.00159   2.05939
   A22        2.11150   0.00017   0.00000   0.00082   0.00083   2.11234
   A23        2.08329   0.00062   0.00000   0.00383   0.00382   2.08711
   A24        2.08807  -0.00078   0.00000  -0.00466  -0.00466   2.08341
   A25        2.09882   0.00017   0.00000   0.00060   0.00060   2.09942
   A26        2.08813  -0.00001   0.00000   0.00017   0.00017   2.08830
   A27        2.09620  -0.00016   0.00000  -0.00079  -0.00079   2.09541
   A28        2.08474  -0.00024   0.00000  -0.00133  -0.00134   2.08340
   A29        2.09922   0.00012   0.00000   0.00067   0.00067   2.09989
   A30        2.09923   0.00012   0.00000   0.00066   0.00066   2.09989
   A31        2.09889   0.00016   0.00000   0.00055   0.00055   2.09944
   A32        2.09607  -0.00014   0.00000  -0.00066  -0.00066   2.09541
   A33        2.08818  -0.00001   0.00000   0.00012   0.00012   2.08830
   A34        2.11143   0.00018   0.00000   0.00089   0.00090   2.11234
   A35        2.08358   0.00056   0.00000   0.00349   0.00348   2.08706
   A36        2.08782  -0.00075   0.00000  -0.00441  -0.00442   2.08340
    D1       -0.00121   0.00000   0.00000   0.00393   0.00393   0.00272
    D2        3.11286  -0.00002   0.00000   0.00134   0.00134   3.11421
    D3       -3.13304  -0.00001   0.00000   0.00231   0.00231  -3.13073
    D4       -0.01897  -0.00003   0.00000  -0.00028  -0.00027  -0.01924
    D5        0.00042   0.00000   0.00000   0.00206   0.00206   0.00248
    D6       -3.14107  -0.00000   0.00000  -0.00068  -0.00068   3.14144
    D7        3.13220   0.00002   0.00000   0.00369   0.00369   3.13589
    D8       -0.00928   0.00001   0.00000   0.00095   0.00095  -0.00833
    D9        0.00083  -0.00001   0.00000  -0.00959  -0.00958  -0.00875
   D10       -3.13982  -0.00002   0.00000   0.00968   0.00966  -3.13016
   D11       -3.11331   0.00004   0.00000  -0.00688  -0.00686  -3.12018
   D12        0.02922   0.00002   0.00000   0.01239   0.01238   0.04160
   D13        0.00033   0.00001   0.00000   0.00951   0.00951   0.00983
   D14       -3.11328   0.00004   0.00000   0.00913   0.00912  -3.10415
   D15        3.14098   0.00002   0.00000  -0.00974  -0.00974   3.13125
   D16        0.02738   0.00005   0.00000  -0.01012  -0.01012   0.01726
   D17       -2.47667   0.00108   0.00000   0.02247   0.02248  -2.45419
   D18        0.66659   0.00103   0.00000   0.00000  -0.00000   0.66659
   D19        0.66588   0.00106   0.00000   0.04229   0.04230   0.70819
   D20       -2.47404   0.00102   0.00000   0.01981   0.01982  -2.45422
   D21       -0.00111  -0.00000   0.00000  -0.00378  -0.00378  -0.00489
   D22       -3.13280  -0.00002   0.00000  -0.00303  -0.00303  -3.13583
   D23        3.11243  -0.00001   0.00000  -0.00327  -0.00327   3.10915
   D24       -0.01926  -0.00003   0.00000  -0.00252  -0.00252  -0.02178
   D25        0.00073  -0.00000   0.00000  -0.00213  -0.00213  -0.00140
   D26       -3.14097   0.00000   0.00000   0.00061   0.00061  -3.14036
   D27        3.13238   0.00001   0.00000  -0.00288  -0.00289   3.12949
   D28       -0.00933   0.00002   0.00000  -0.00014  -0.00014  -0.00947
   D29       -3.13923  -0.00004   0.00000  -0.01246  -0.01246   3.13150
   D30        0.02978   0.00001   0.00000  -0.01209  -0.01209   0.01770
   D31        0.00074   0.00000   0.00000   0.00938   0.00938   0.01012
   D32       -3.11344   0.00005   0.00000   0.00975   0.00975  -3.10369
   D33        3.14033   0.00004   0.00000   0.01249   0.01247  -3.13039
   D34        0.02713   0.00006   0.00000   0.01407   0.01406   0.04119
   D35        0.00036  -0.00000   0.00000  -0.00936  -0.00935  -0.00899
   D36       -3.11284   0.00002   0.00000  -0.00778  -0.00777  -3.12061
   D37       -0.00113  -0.00000   0.00000  -0.00386  -0.00386  -0.00499
   D38       -3.13332  -0.00000   0.00000  -0.00254  -0.00254  -3.13586
   D39        3.11297  -0.00003   0.00000  -0.00410  -0.00410   3.10887
   D40       -0.01922  -0.00003   0.00000  -0.00278  -0.00278  -0.02199
   D41        0.00040   0.00000   0.00000  -0.00193  -0.00193  -0.00153
   D42       -3.14130   0.00001   0.00000   0.00088   0.00088  -3.14042
   D43        3.13255   0.00000   0.00000  -0.00326  -0.00326   3.12929
   D44       -0.00915   0.00001   0.00000  -0.00045  -0.00045  -0.00960
   D45        0.00069   0.00000   0.00000   0.00195   0.00196   0.00265
   D46        3.13230   0.00002   0.00000   0.00384   0.00384   3.13614
   D47       -3.14079  -0.00001   0.00000  -0.00086  -0.00086   3.14153
   D48       -0.00918   0.00001   0.00000   0.00102   0.00102  -0.00816
   D49       -0.00108  -0.00000   0.00000   0.00382   0.00382   0.00274
   D50        3.11205   0.00000   0.00000   0.00236   0.00237   3.11442
   D51       -3.13274  -0.00002   0.00000   0.00195   0.00195  -3.13079
   D52       -0.01961  -0.00001   0.00000   0.00049   0.00050  -0.01911
         Item               Value     Threshold  Converged?
 Maximum Force            0.012072     0.000450     NO 
 RMS     Force            0.004652     0.000300     NO 
 Maximum Displacement     0.068075     0.001800     NO 
 RMS     Displacement     0.024695     0.001200     NO 
 Predicted change in Energy=-2.914754D-03
 GradGradGradGradGradGradGradGradGradGradGradGradGradGradGradGradGradGrad

                          Input orientation:                          
 ---------------------------------------------------------------------
 Center     Atomic      Atomic             Coordinates (Angstroms)
 Number     Number       Type             X           Y           Z
 ---------------------------------------------------------------------
      1          6           0       -2.923409   -0.637367    0.841438
      2          6           0       -1.547760   -0.507655    0.849583
      3          6           0       -0.910066    0.421996    0.033719
      4          6           0       -1.698860    1.210218   -0.798877
      5          6           0       -3.074681    1.082296   -0.806969
      6          6           0       -3.693873    0.158210    0.013985
      7          6           0        0.573435    0.551252    0.032425
      8          6           0        1.184239    1.799246   -0.045751
      9          6           0        2.560644    1.920497   -0.035067
     10          6           0        3.358961    0.795808    0.060078
     11          6           0        2.766997   -0.450544    0.146226
     12          6           0        1.390478   -0.570638    0.134121
     13          1           0        0.946822   -1.547174    0.176433
     14          1           0       -3.393306   -1.355350    1.487656
     15          1           0       -0.965655   -1.115140    1.516191
     16          1           0       -1.231455    1.911269   -1.463890
     17          1           0       -3.661797    1.698395   -1.462429
     18          1           0       -4.763076    0.057595    0.007264
     19          1           0        0.578116    2.684069   -0.089601
     20          1           0        3.008714    2.895173   -0.091156
     21          1           0        4.428758    0.889628    0.069504
     22          1           0        3.376772   -1.332185    0.215516
 ---------------------------------------------------------------------
                    Distance matrix (angstroms):
                    1          2          3          4          5
     1  C    0.000000
     2  C    1.381775   0.000000
     3  C    2.414168   1.391596   0.000000
     4  C    2.757486   2.385653   1.391656   0.000000
     5  C    2.386916   2.757463   2.414190   1.381780   0.000000
     6  C    1.382475   2.397374   2.796346   2.397404   1.382497
     7  C    3.780904   2.507688   1.489122   2.507713   3.780918
     8  C    4.857670   3.686086   2.507837   3.037500   4.385416
     9  C    6.114390   4.853608   3.781014   4.385347   5.749374
    10  C    6.490970   5.137922   4.285444   5.146950   6.498123
    11  C    5.735760   4.372082   3.780843   4.857492   6.114195
    12  C    4.371998   3.024747   2.507570   3.685911   4.853400
    13  H    4.030964   2.785080   2.710357   3.943865   4.904456
    14  H    1.074198   2.128795   3.382215   3.831648   3.362878
    15  H    2.125172   1.073429   2.136258   3.362205   3.830638
    16  H    3.830508   3.362054   2.136366   1.073398   2.125142
    17  H    3.362857   3.831607   3.382259   2.128789   1.074203
    18  H    2.136164   3.371538   3.870294   3.371621   2.136273
    19  H    4.915226   3.948230   2.710511   2.803556   4.052558
    20  H    6.966969   5.764172   4.635627   5.049870   6.388005
    21  H    7.548639   6.187058   5.359385   6.197142   7.556913
    22  H    6.369209   5.033181   4.635427   5.766701   6.963939
                    6          7          8          9         10
     6  C    0.000000
     7  C    4.285410   0.000000
     8  C    5.147090   1.391647   0.000000
     9  C    6.498234   2.414205   1.381777   0.000000
    10  C    7.081746   2.796378   2.397396   1.382494   0.000000
    11  C    6.490832   2.414179   2.757450   2.386898   1.382474
    12  C    5.137731   1.391595   2.385632   2.757475   2.397412
    13  H    4.946794   2.136246   3.362181   3.830652   3.364746
    14  H    2.133756   4.635501   5.766865   6.964150   7.229010
    15  H    3.364701   2.710576   3.944027   4.904720   4.947150
    16  H    3.364645   2.710394   2.803434   4.052361   4.963734
    17  H    2.133775   4.635485   5.049872   6.387915   7.240424
    18  H    1.073948   5.359355   6.197315   7.557055   8.155688
    19  H    4.963928   2.136311   1.073415   2.125190   3.364674
    20  H    7.240628   3.382281   2.128809   1.074200   2.133747
    21  H    8.155684   3.870322   3.371587   2.136230   1.073944
    22  H    7.228825   3.382241   3.831622   3.362856   2.133737
                   11         12         13         14         15
    11  C    0.000000
    12  C    1.381801   0.000000
    13  H    2.125217   1.073426   0.000000
    14  H    6.369258   5.033133   4.537931   0.000000
    15  H    4.031276   2.785312   2.374695   2.439673   0.000000
    16  H    4.915104   3.948169   4.404132   4.904695   4.255665
    17  H    6.966714   5.763937   5.870176   4.254463   4.904828
    18  H    7.548478   6.186841   5.933536   2.462569   4.251185
    19  H    3.830484   3.362009   4.255601   5.880208   4.404065
    20  H    3.362825   3.831616   4.904839   7.845092   5.870416
    21  H    2.136211   3.371602   4.251272   8.260495   5.933944
    22  H    1.074206   2.128836   2.439755   6.888602   4.538231
                   16         17         18         19         20
    16  H    0.000000
    17  H    2.439648   0.000000
    18  H    4.251206   2.462730   0.000000
    19  H    2.400091   4.564326   5.952822   0.000000
    20  H    4.564153   6.914361   8.274192   2.439749   0.000000
    21  H    5.952568   8.273935   9.229625   4.251209   2.462630
    22  H    5.880149   7.844831   8.260266   4.904678   4.254417
                   21         22
    21  H    0.000000
    22  H    2.462610   0.000000
 Stoichiometry    C12H10
 Framework group  C1[X(C12H10)]
 Deg. of freedom    60
 Full point group                 C1      NOp   1
 Largest Abelian subgroup         C1      NOp   1
 Largest concise Abelian subgroup C1      NOp   1
                         Standard orientation:                         
 ---------------------------------------------------------------------
 Center     Atomic      Atomic             Coordinates (Angstroms)
 Number     Number       Type             X           Y           Z
 ---------------------------------------------------------------------
      1          6           0        2.839670    1.126107    0.401642
      2          6           0        1.457906    1.120908    0.402594
      3          6           0        0.744542   -0.006322    0.006355
      4          6           0        1.464688   -1.125232   -0.401242
      5          6           0        2.846463   -1.121653   -0.401413
      6          6           0        3.540864    0.004057    0.000934
      7          6           0       -0.744528   -0.006362   -0.006125
      8          6           0       -1.464830   -1.125166    0.401458
      9          6           0       -2.846603   -1.121573    0.401271
     10          6           0       -3.540882    0.004118   -0.001329
     11          6           0       -2.839543    1.126171   -0.401774
     12          6           0       -1.457752    1.120938   -0.402411
     13          1           0       -0.928146    1.991438   -0.740036
     14          1           0        3.367992    2.005041    0.721413
     15          1           0        0.928432    1.991343    0.740603
     16          1           0        0.940504   -1.996607   -0.744927
     17          1           0        3.380074   -1.995789   -0.725537
     18          1           0        4.614805    0.007755   -0.000081
     19          1           0       -0.940679   -1.996412    0.745572
     20          1           0       -3.380344   -1.995636    0.725369
     21          1           0       -4.614820    0.007750   -0.000620
     22          1           0       -3.367792    2.005167   -0.721520
 ---------------------------------------------------------------------
 Rotational constants (GHZ):      2.9185827      0.5512038      0.4811451
 Standard basis: 6-31G(d) (6D, 7F)
 There are   200 symmetry adapted cartesian basis functions of A   symmetry.
 There are   200 symmetry adapted basis functions of A   symmetry.
   200 basis functions,   376 primitive gaussians,   200 cartesian basis functions
    41 alpha electrons       41 beta electrons
       nuclear repulsion energy       603.4641594575 Hartrees.
 NAtoms=   22 NActive=   22 NUniq=   22 SFac= 1.00D+00 NAtFMM=   60 NAOKFM=F Big=F
 Integral buffers will be    131072 words long.
 Raffenetti 1 integral format.
 Two-electron integral symmetry is turned on.
 One-electron integrals computed using PRISM.
 NBasis=   200 RedAO= T EigKep=  4.14D-04  NBF=   200
 NBsUse=   200 1.00D-06 EigRej= -1.00D+00 NBFU=   200
 Initial guess from the checkpoint file:  "bi-phenyl-opt.chk"
 B after Tr=     0.000000   -0.000000    0.000000
         Rot=    1.000000    0.000004    0.000234   -0.000062 Ang=   0.03 deg.
 ExpMin= 1.61D-01 ExpMax= 3.05D+03 ExpMxC= 4.57D+02 IAcc=1 IRadAn=         1 AccDes= 0.00D+00
 Harris functional with IExCor=  205 and IRadAn=       1 diagonalized for initial guess.
 HarFok:  IExCor=  205 AccDes= 0.00D+00 IRadAn=         1 IDoV= 1 UseB2=F ITyADJ=14
 ICtDFT=  3500011 ScaDFX=  1.000000  1.000000  1.000000  1.000000
 FoFCou: FMM=F IPFlag=           0 FMFlag=      100000 FMFlg1=           0
         NFxFlg=           0 DoJE=T BraDBF=F KetDBF=T FulRan=T
         wScrn=  0.000000 ICntrl=     500 IOpCl=  0 I1Cent=   200000004 NGrid=           0
         NMat0=    1 NMatS0=      1 NMatT0=    0 NMatD0=    1 NMtDS0=    0 NMtDT0=    0
 Petite list used in FoFCou.
 Requested convergence on RMS density matrix=1.00D-08 within 128 cycles.
 Requested convergence on MAX density matrix=1.00D-06.
 Requested convergence on             energy=1.00D-06.
 No special actions if energy rises.
 Integral accuracy reduced to 1.0D-05 until final iterations.
 Initial convergence to 1.0D-05 achieved.  Increase integral accuracy.
 SCF Done:  E(RHF) =  -460.253648789     A.U. after   12 cycles
            NFock= 12  Conv=0.25D-08     -V/T= 2.0006
 Calling FoFJK, ICntrl=      2127 FMM=F ISym2X=0 I1Cent= 0 IOpClX= 0 NMat=1 NMatS=1 NMatT=0.
 ***** Axes restored to original set *****
 -------------------------------------------------------------------
 Center     Atomic                   Forces (Hartrees/Bohr)
 Number     Number              X              Y              Z
 -------------------------------------------------------------------
      1        6          -0.000860905   -0.001089118    0.001082260
      2        6           0.001673778    0.000523900    0.001939588
      3        6           0.000019129   -0.001607436   -0.002297966
      4        6           0.001723374    0.000751165   -0.000763371
      5        6          -0.001099790    0.000999527   -0.001032721
      6        6          -0.001736010   -0.000212090   -0.000091632
      7        6           0.000079040    0.000587887    0.002764013
      8        6          -0.001895205    0.000834044    0.000070174
      9        6           0.000870433    0.001579521   -0.000117612
     10        6           0.001725206    0.000183602    0.000103565
     11        6           0.001073236   -0.001406029    0.000031049
     12        6          -0.001568158   -0.001322576   -0.001568897
     13        1          -0.000391660   -0.001123819    0.000121777
     14        1          -0.000400077   -0.000775035    0.000672240
     15        1           0.000563363   -0.000778512    0.000713125
     16        1           0.000533327    0.001017811   -0.000644470
     17        1          -0.000534062    0.000667224   -0.000692618
     18        1          -0.001094430   -0.000076112    0.000002984
     19        1          -0.000700024    0.001064912   -0.000305083
     20        1           0.000380517    0.001032431   -0.000067640
     21        1           0.001094899    0.000096131   -0.000012826
     22        1           0.000544021   -0.000947429    0.000094061
 -------------------------------------------------------------------
 Cartesian Forces:  Max     0.002764013 RMS     0.001031325

 GradGradGradGradGradGradGradGradGradGradGradGradGradGradGradGradGradGrad
 Berny optimization.
 Using GEDIIS/GDIIS optimizer.
 FormGI is forming the generalized inverse of G from B-inverse, IUseBI=4.
 Internal  Forces:  Max     0.002971464 RMS     0.000978323
 Search for a local minimum.
 Step number   2 out of a maximum of  121 on scan point     1 out of    37
 All quantities printed in internal units (Hartrees-Bohrs-Radians)
 Mixed Optimization -- En-DIIS/RFO-DIIS
 Update second derivatives using D2CorX and points    1    2
 DE= -2.36D-03 DEPred=-2.91D-03 R= 8.11D-01
 TightC=F SS=  1.41D+00  RLast= 1.35D-01 DXNew= 5.0454D-01 4.0515D-01
 Trust test= 8.11D-01 RLast= 1.35D-01 DXMaxT set to 4.05D-01
 ITU=  1  0
 Use linear search instead of GDIIS.
     Eigenvalues ---    0.01417   0.01689   0.02036   0.02037   0.02086
     Eigenvalues ---    0.02087   0.02099   0.02099   0.02131   0.02132
     Eigenvalues ---    0.02141   0.02141   0.02148   0.02148   0.02154
     Eigenvalues ---    0.02155   0.02156   0.02156   0.15974   0.15993
     Eigenvalues ---    0.15994   0.15995   0.15999   0.15999   0.16000
     Eigenvalues ---    0.16000   0.16000   0.16001   0.21999   0.22000
     Eigenvalues ---    0.22000   0.22001   0.23467   0.23477   0.24991
     Eigenvalues ---    0.24995   0.33709   0.35165   0.35166   0.35170
     Eigenvalues ---    0.35180   0.35195   0.35201   0.35214   0.35217
     Eigenvalues ---    0.35220   0.35865   0.41358   0.41457   0.41678
     Eigenvalues ---    0.41682   0.45171   0.45176   0.45629   0.46183
     Eigenvalues ---    0.46352   0.46354   0.46611   0.546151000.00000
     Eigenvalues --- 1000.000001000.000001000.000001000.000001000.00000
     Eigenvalues --- 1000.000001000.000001000.000001000.000001000.00000
     Eigenvalues --- 1000.000001000.000001000.000001000.000001000.00000
     Eigenvalues --- 1000.000001000.000001000.000001000.000001000.00000
     Eigenvalues --- 1000.000001000.000001000.000001000.000001000.00000
     Eigenvalues --- 1000.000001000.000001000.000001000.000001000.00000
     Eigenvalues --- 1000.000001000.000001000.000001000.000001000.00000
     Eigenvalues --- 1000.000001000.000001000.000001000.000001000.00000
     Eigenvalues --- 1000.000001000.000001000.000001000.000001000.00000
     Eigenvalues --- 1000.000001000.000001000.000001000.000001000.00000
     Eigenvalues --- 1000.00000
 RFO step:  Lambda=-3.01352240D-05 EMin= 1.41664145D-02
 Quartic linear search produced a step of -0.15347.
 Iteration  1 RMS(Cart)=  0.00406072 RMS(Int)=  0.00000409
 Iteration  2 RMS(Cart)=  0.00000508 RMS(Int)=  0.00000244
 Iteration  3 RMS(Cart)=  0.00000000 RMS(Int)=  0.00000244
 Iteration  1 RMS(Cart)=  0.00000007 RMS(Int)=  0.00000003
 Variable       Old X    -DE/DX   Delta X   Delta X   Delta X     New X
                                 (Linear)    (Quad)   (Total)
    R1        2.61118   0.00287   0.00360   0.00139   0.00500   2.61617
    R2        2.61250   0.00297   0.00397   0.00129   0.00525   2.61775
    R3        2.02994   0.00110   0.00370  -0.00134   0.00236   2.03230
    R4        2.62973   0.00208   0.00393  -0.00032   0.00361   2.63334
    R5        2.02849   0.00119   0.00381  -0.00124   0.00257   2.03106
    R6        2.62985   0.00199   0.00397  -0.00053   0.00343   2.63328
    R7        2.81403   0.00126  -0.00097   0.00418   0.00321   2.81724
    R8        2.61119   0.00287   0.00359   0.00140   0.00498   2.61617
    R9        2.02843   0.00130   0.00381  -0.00098   0.00283   2.03126
   R10        2.61254   0.00291   0.00391   0.00123   0.00514   2.61768
   R11        2.02995   0.00110   0.00370  -0.00134   0.00236   2.03231
   R12        2.02947   0.00110   0.00369  -0.00133   0.00236   2.03183
   R13        2.62983   0.00199   0.00397  -0.00053   0.00344   2.63328
   R14        2.62973   0.00209   0.00398  -0.00036   0.00362   2.63336
   R15        2.61118   0.00287   0.00355   0.00142   0.00497   2.61615
   R16        2.02846   0.00129   0.00379  -0.00099   0.00281   2.03127
   R17        2.61253   0.00292   0.00394   0.00121   0.00516   2.61769
   R18        2.02994   0.00110   0.00370  -0.00134   0.00237   2.03231
   R19        2.61250   0.00297   0.00394   0.00130   0.00525   2.61775
   R20        2.02946   0.00110   0.00371  -0.00134   0.00236   2.03183
   R21        2.61122   0.00285   0.00355   0.00139   0.00495   2.61617
   R22        2.02996   0.00109   0.00369  -0.00133   0.00235   2.03231
   R23        2.02848   0.00119   0.00380  -0.00123   0.00257   2.03105
    A1        2.09942  -0.00007  -0.00008   0.00004  -0.00004   2.09937
    A2        2.08828  -0.00005  -0.00003  -0.00040  -0.00043   2.08785
    A3        2.09545   0.00012   0.00011   0.00038   0.00049   2.09594
    A4        2.11235  -0.00029  -0.00015  -0.00101  -0.00116   2.11120
    A5        2.08336   0.00004   0.00070  -0.00075  -0.00005   2.08332
    A6        2.08708   0.00025  -0.00055   0.00180   0.00125   2.08833
    A7        2.05941   0.00071   0.00025   0.00186   0.00213   2.06153
    A8        2.11182  -0.00001  -0.00001   0.00009   0.00010   2.11192
    A9        2.11178  -0.00070  -0.00022  -0.00200  -0.00222   2.10956
   A10        2.11230  -0.00020  -0.00013  -0.00071  -0.00084   2.11146
   A11        2.08721   0.00012  -0.00055   0.00121   0.00065   2.08786
   A12        2.08335   0.00008   0.00068  -0.00040   0.00028   2.08362
   A13        2.09943  -0.00012  -0.00009  -0.00021  -0.00029   2.09914
   A14        2.08826  -0.00002  -0.00002  -0.00025  -0.00027   2.08799
   A15        2.09545   0.00014   0.00011   0.00046   0.00057   2.09602
   A16        2.08342  -0.00003   0.00019   0.00002   0.00021   2.08364
   A17        2.09980   0.00003  -0.00011   0.00008  -0.00003   2.09977
   A18        2.09995   0.00000  -0.00008  -0.00009  -0.00017   2.09978
   A19        2.11197  -0.00074  -0.00016  -0.00222  -0.00236   2.10960
   A20        2.11165   0.00003  -0.00006   0.00026   0.00022   2.11187
   A21        2.05939   0.00072   0.00024   0.00190   0.00215   2.06154
   A22        2.11234  -0.00021  -0.00013  -0.00075  -0.00088   2.11146
   A23        2.08711   0.00014  -0.00059   0.00133   0.00074   2.08785
   A24        2.08341   0.00008   0.00072  -0.00048   0.00023   2.08364
   A25        2.09942  -0.00012  -0.00009  -0.00019  -0.00028   2.09914
   A26        2.08830  -0.00003  -0.00003  -0.00028  -0.00031   2.08799
   A27        2.09541   0.00015   0.00012   0.00048   0.00060   2.09601
   A28        2.08340  -0.00002   0.00021   0.00003   0.00024   2.08364
   A29        2.09989   0.00001  -0.00010  -0.00002  -0.00013   2.09976
   A30        2.09989   0.00001  -0.00010  -0.00001  -0.00011   2.09978
   A31        2.09944  -0.00008  -0.00008   0.00001  -0.00008   2.09936
   A32        2.09541   0.00013   0.00010   0.00043   0.00053   2.09594
   A33        2.08830  -0.00005  -0.00002  -0.00043  -0.00045   2.08786
   A34        2.11234  -0.00028  -0.00014  -0.00100  -0.00114   2.11120
   A35        2.08706   0.00026  -0.00053   0.00180   0.00127   2.08833
   A36        2.08340   0.00003   0.00068  -0.00077  -0.00009   2.08332
    D1        0.00272  -0.00010  -0.00060   0.00073   0.00013   0.00285
    D2        3.11421  -0.00001  -0.00021   0.00230   0.00209   3.11630
    D3       -3.13073  -0.00010  -0.00036  -0.00080  -0.00115  -3.13188
    D4       -0.01924  -0.00001   0.00004   0.00076   0.00081  -0.01843
    D5        0.00248  -0.00009  -0.00032  -0.00088  -0.00119   0.00128
    D6        3.14144   0.00003   0.00010   0.00023   0.00034  -3.14141
    D7        3.13589  -0.00009  -0.00057   0.00066   0.00009   3.13598
    D8       -0.00833   0.00002  -0.00015   0.00177   0.00163  -0.00671
    D9       -0.00875   0.00028   0.00147  -0.00059   0.00088  -0.00787
   D10       -3.13016  -0.00028  -0.00148   0.00200   0.00052  -3.12964
   D11       -3.12018   0.00020   0.00105  -0.00212  -0.00107  -3.12124
   D12        0.04160  -0.00037  -0.00190   0.00048  -0.00142   0.04018
   D13        0.00983  -0.00028  -0.00146   0.00061  -0.00085   0.00898
   D14       -3.10415  -0.00035  -0.00140  -0.00346  -0.00486  -3.10901
   D15        3.13125   0.00029   0.00149  -0.00196  -0.00047   3.13078
   D16        0.01726   0.00022   0.00155  -0.00603  -0.00448   0.01278
   D17       -2.45419   0.00075  -0.00345   0.00328  -0.00017  -2.45436
   D18        0.66659   0.00135   0.00000   0.00000   0.00000   0.66659
   D19        0.70819   0.00015  -0.00649   0.00591  -0.00058   0.70760
   D20       -2.45422   0.00075  -0.00304   0.00263  -0.00041  -2.45463
   D21       -0.00489   0.00010   0.00058  -0.00076  -0.00018  -0.00507
   D22       -3.13583   0.00005   0.00047  -0.00149  -0.00103  -3.13686
   D23        3.10915   0.00017   0.00050   0.00332   0.00383   3.11298
   D24       -0.02178   0.00012   0.00039   0.00259   0.00298  -0.01881
   D25       -0.00140   0.00009   0.00033   0.00089   0.00122  -0.00019
   D26       -3.14036  -0.00003  -0.00009  -0.00022  -0.00032  -3.14068
   D27        3.12949   0.00014   0.00044   0.00162   0.00206   3.13155
   D28       -0.00947   0.00003   0.00002   0.00051   0.00053  -0.00894
   D29        3.13150   0.00029   0.00191  -0.00290  -0.00098   3.13052
   D30        0.01770   0.00022   0.00185  -0.00693  -0.00508   0.01262
   D31        0.01012  -0.00029  -0.00144   0.00031  -0.00113   0.00899
   D32       -3.10369  -0.00036  -0.00150  -0.00373  -0.00522  -3.10892
   D33       -3.13039  -0.00028  -0.00191   0.00292   0.00101  -3.12938
   D34        0.04119  -0.00036  -0.00216   0.00129  -0.00087   0.04032
   D35       -0.00899   0.00029   0.00144  -0.00031   0.00112  -0.00787
   D36       -3.12061   0.00021   0.00119  -0.00195  -0.00076  -3.12136
   D37       -0.00499   0.00011   0.00059  -0.00068  -0.00009  -0.00508
   D38       -3.13586   0.00005   0.00039  -0.00136  -0.00097  -3.13682
   D39        3.10887   0.00018   0.00063   0.00337   0.00400   3.11288
   D40       -0.02199   0.00012   0.00043   0.00270   0.00313  -0.01887
   D41       -0.00153   0.00009   0.00030   0.00106   0.00136  -0.00018
   D42       -3.14042  -0.00003  -0.00014  -0.00016  -0.00030  -3.14072
   D43        3.12929   0.00015   0.00050   0.00173   0.00223   3.13152
   D44       -0.00960   0.00003   0.00007   0.00051   0.00058  -0.00902
   D45        0.00265  -0.00009  -0.00030  -0.00107  -0.00137   0.00128
   D46        3.13614  -0.00010  -0.00059   0.00046  -0.00013   3.13601
   D47        3.14153   0.00003   0.00013   0.00015   0.00029  -3.14137
   D48       -0.00816   0.00002  -0.00016   0.00167   0.00152  -0.00664
   D49        0.00274  -0.00010  -0.00059   0.00070   0.00011   0.00285
   D50        3.11442  -0.00002  -0.00036   0.00237   0.00200   3.11642
   D51       -3.13079  -0.00010  -0.00030  -0.00082  -0.00112  -3.13191
   D52       -0.01911  -0.00001  -0.00008   0.00085   0.00077  -0.01834
         Item               Value     Threshold  Converged?
 Maximum Force            0.002970     0.000450     NO 
 RMS     Force            0.000962     0.000300     NO 
 Maximum Displacement     0.011144     0.001800     NO 
 RMS     Displacement     0.004060     0.001200     NO 
 Predicted change in Energy=-9.849450D-05
 GradGradGradGradGradGradGradGradGradGradGradGradGradGradGradGradGradGrad

                          Input orientation:                          
 ---------------------------------------------------------------------
 Center     Atomic      Atomic             Coordinates (Angstroms)
 Number     Number       Type             X           Y           Z
 ---------------------------------------------------------------------
      1          6           0       -2.927602   -0.638991    0.843241
      2          6           0       -1.549210   -0.510266    0.852159
      3          6           0       -0.910761    0.420331    0.034706
      4          6           0       -1.698368    1.211420   -0.799334
      5          6           0       -3.076938    1.084633   -0.808298
      6          6           0       -3.698360    0.158569    0.013323
      7          6           0        0.574470    0.549296    0.032457
      8          6           0        1.183431    1.800161   -0.046667
      9          6           0        2.562305    1.923364   -0.035810
     10          6           0        3.363259    0.797299    0.060593
     11          6           0        2.771606   -0.452318    0.146180
     12          6           0        1.392618   -0.574191    0.133899
     13          1           0        0.949561   -1.552435    0.177565
     14          1           0       -3.398572   -1.358081    1.489528
     15          1           0       -0.967211   -1.120175    1.518839
     16          1           0       -1.229232    1.915984   -1.461828
     17          1           0       -3.663576    1.703243   -1.463872
     18          1           0       -4.768915    0.059020    0.006227
     19          1           0        0.575219    2.685111   -0.095146
     20          1           0        3.009406    2.899771   -0.093502
     21          1           0        4.434202    0.892378    0.069887
     22          1           0        3.382670   -1.334523    0.216254
 ---------------------------------------------------------------------
                    Distance matrix (angstroms):
                    1          2          3          4          5
     1  C    0.000000
     2  C    1.384418   0.000000
     3  C    2.417341   1.393506   0.000000
     4  C    2.762804   2.390372   1.393473   0.000000
     5  C    2.391811   2.763110   2.417493   1.384417   0.000000
     6  C    1.385255   2.402048   2.799943   2.401848   1.385216
     7  C    3.786014   2.510896   1.490822   2.509198   3.785001
     8  C    4.862303   3.689619   2.509222   3.036098   4.386662
     9  C    6.121884   4.859588   3.785006   4.386703   5.753370
    10  C    6.500030   5.144769   4.290690   5.150829   6.504896
    11  C    5.744712   4.378495   3.785997   4.862375   6.121987
    12  C    4.378546   3.028916   2.510870   3.689650   4.859667
    13  H    4.038551   2.790170   2.715329   3.950285   4.913120
    14  H    1.075449   2.131940   3.386511   3.838217   3.369021
    15  H    2.128639   1.074790   2.139859   3.368212   3.837668
    16  H    3.837408   3.368029   2.139630   1.074895   2.128912
    17  H    3.369048   3.838511   3.386678   2.132028   1.075453
    18  H    2.139684   3.377306   3.875140   3.377161   2.139654
    19  H    4.919347   3.952343   2.711868   2.799436   4.050724
    20  H    6.974839   5.770927   4.640234   5.050927   6.391341
    21  H    7.559056   6.195206   5.365883   6.202076   7.564747
    22  H    6.379373   5.040556   4.641770   5.773231   6.973418
                    6          7          8          9         10
     6  C    0.000000
     7  C    4.290700   0.000000
     8  C    5.150758   1.393469   0.000000
     9  C    6.504832   2.417480   1.384409   0.000000
    10  C    7.090604   2.799936   2.401851   1.385223   0.000000
    11  C    6.500100   2.417348   2.762816   2.391818   1.385251
    12  C    5.144855   1.393513   2.390378   2.763104   2.402037
    13  H    4.955570   2.139865   3.368215   3.837662   3.370589
    14  H    2.137587   4.641789   5.773139   6.973276   7.239466
    15  H    3.370599   2.715372   3.950245   4.912998   4.955417
    16  H    3.370635   2.711838   2.799471   4.050843   4.965903
    17  H    2.137601   4.640218   5.050875   6.391353   7.247146
[...]
    15  H    3.370600   2.715085   3.950853   4.913604   4.955504
    16  H    3.370577   2.712404   2.798454   4.049975   4.965457
    17  H    2.137577   4.640699   5.050248   6.390795   7.246855
    18  H    1.075320   5.366060   6.201689   7.564445   8.165595
    19  H    4.965325   2.139730   1.074933   2.128920   3.370534
    20  H    7.246765   3.386630   2.132198   1.075573   2.137588
    21  H    8.165591   3.874876   3.377197   2.139646   1.075316
    22  H    7.239711   3.386354   3.838255   3.368966   2.137545
                   11         12         13         14         15
    11  C    0.000000
    12  C    1.384449   0.000000
    13  H    2.128741   1.074873   0.000000
    14  H    6.379296   5.040272   4.545332   0.000000
    15  H    4.037902   2.789028   2.376980   2.443359   0.000000
    16  H    4.919711   3.953057   4.413029   4.912925   4.262922
    17  H    6.975233   5.771547   5.881017   4.261920   4.913260
    18  H    7.559164   6.195349   5.943931   2.466898   4.258198
    19  H    3.837353   3.368093   4.262965   5.886867   4.412841
    20  H    3.369007   3.838638   4.913316   7.855340   5.880809
    21  H    2.139628   3.377344   4.258171   8.272657   5.943691
    22  H    1.075573   2.132087   2.443315   6.899866   4.545194
                   16         17         18         19         20
    16  H    0.000000
    17  H    2.443729   0.000000
    18  H    4.258296   2.467006   0.000000
    19  H    2.389027   4.560263   5.955027   0.000000
    20  H    4.560339   6.915832   8.281236   2.443704   0.000000
    21  H    5.955177   8.281345   9.240908   4.258276   2.467055
    22  H    5.887028   7.855503   8.272789   4.912914   4.261969
                   21         22
    21  H    0.000000
    22  H    2.466886   0.000000
 Stoichiometry    C12H10
 Framework group  C1[X(C12H10)]
 Deg. of freedom    60
 Full point group                 C1      NOp   1
 Largest Abelian subgroup         C1      NOp   1
 Largest concise Abelian subgroup C1      NOp   1
                         Standard orientation:                         
 ---------------------------------------------------------------------
 Center     Atomic      Atomic             Coordinates (Angstroms)
 Number     Number       Type             X           Y           Z
 ---------------------------------------------------------------------
      1          6           0        2.844074   -1.127909   -0.401399
      2          6           0        1.459585   -1.124394   -0.402527
      3          6           0        0.745572    0.004368   -0.005947
      4          6           0        1.463871    1.126968    0.400647
      5          6           0        2.848306    1.125039    0.401222
      6          6           0        3.545147   -0.002733   -0.000213
      7          6           0       -0.745586    0.004333    0.006063
      8          6           0       -1.463799    1.126961   -0.400524
      9          6           0       -2.848255    1.125097   -0.401269
     10          6           0       -3.545131   -0.002656    0.000040
     11          6           0       -2.844115   -1.127896    0.401324
     12          6           0       -1.459671   -1.124449    0.402602
     13          1           0       -0.930706   -1.997465    0.739338
     14          1           0        3.373801   -2.007914   -0.720510
     15          1           0        0.930535   -1.997420   -0.739112
     16          1           0        0.937606    2.000564    0.740273
     17          1           0        3.381282    2.001646    0.724250
     18          1           0        4.620464   -0.005132    0.000795
     19          1           0       -0.937474    2.000543   -0.740108
     20          1           0       -3.381128    2.001737   -0.724388
     21          1           0       -4.620444   -0.005077   -0.001096
     22          1           0       -3.373926   -2.007852    0.720439
 ---------------------------------------------------------------------
 Rotational constants (GHZ):      2.9073334      0.5501088      0.4799623

 **********************************************************************

            Population analysis using the SCF density.

 **********************************************************************

 Orbital symmetries:
       Occupied  (A) (A) (A) (A) (A) (A) (A) (A) (A) (A) (A) (A)
                 (A) (A) (A) (A) (A) (A) (A) (A) (A) (A) (A) (A)
                 (A) (A) (A) (A) (A) (A) (A) (A) (A) (A) (A) (A)
                 (A) (A) (A) (A) (A)
       Virtual   (A) (A) (A) (A) (A) (A) (A) (A) (A) (A) (A) (A)
                 (A) (A) (A) (A) (A) (A) (A) (A) (A) (A) (A) (A)
                 (A) (A) (A) (A) (A) (A) (A) (A) (A) (A) (A) (A)
                 (A) (A) (A) (A) (A) (A) (A) (A) (A) (A) (A) (A)
                 (A) (A) (A) (A) (A) (A) (A) (A) (A) (A) (A) (A)
                 (A) (A) (A) (A) (A) (A) (A) (A) (A) (A) (A) (A)
                 (A) (A) (A) (A) (A) (A) (A) (A) (A) (A) (A) (A)
                 (A) (A) (A) (A) (A) (A) (A) (A) (A) (A) (A) (A)
                 (A) (A) (A) (A) (A) (A) (A) (A) (A) (A) (A) (A)
                 (A) (A) (A) (A) (A) (A) (A) (A) (A) (A) (A) (A)
                 (A) (A) (A) (A) (A) (A) (A) (A) (A) (A) (A) (A)
                 (A) (A) (A) (A) (A) (A) (A) (A) (A) (A) (A) (A)
                 (A) (A) (A) (A) (A) (A) (A) (A) (A) (A) (A) (A)
                 (A) (A) (A)
 The electronic state is 1-A.
 Alpha  occ. eigenvalues --  -11.24113 -11.24043 -11.23072 -11.23072 -11.23038
 Alpha  occ. eigenvalues --  -11.23038 -11.22879 -11.22879 -11.22854 -11.22853
 Alpha  occ. eigenvalues --  -11.22823 -11.22822  -1.16815  -1.14122  -1.05069
 Alpha  occ. eigenvalues --   -1.01802  -1.00949  -0.98164  -0.84826  -0.83981
 Alpha  occ. eigenvalues --   -0.80822  -0.78860  -0.71830  -0.68098  -0.65111
 Alpha  occ. eigenvalues --   -0.63608  -0.61404  -0.60347  -0.58908  -0.58270
 Alpha  occ. eigenvalues --   -0.57989  -0.51787  -0.51364  -0.50030  -0.48821
 Alpha  occ. eigenvalues --   -0.47959  -0.47858  -0.36360  -0.33314  -0.33296
 Alpha  occ. eigenvalues --   -0.29706
 Alpha virt. eigenvalues --    0.11318   0.14332   0.14783   0.18662   0.24332
 Alpha virt. eigenvalues --    0.24552   0.27953   0.30038   0.30171   0.32110
 Alpha virt. eigenvalues --    0.32742   0.33287   0.34847   0.34999   0.38386
 Alpha virt. eigenvalues --    0.38850   0.44175   0.45031   0.46971   0.49431
 Alpha virt. eigenvalues --    0.49697   0.50138   0.53612   0.55845   0.57783
 Alpha virt. eigenvalues --    0.62684   0.71136   0.73736   0.74994   0.75066
 Alpha virt. eigenvalues --    0.76799   0.77037   0.77126   0.78327   0.79730
 Alpha virt. eigenvalues --    0.81925   0.82328   0.83492   0.83788   0.84079
 Alpha virt. eigenvalues --    0.84283   0.84595   0.84811   0.85237   0.87493
 Alpha virt. eigenvalues --    0.87533   0.89416   0.92427   0.92730   0.93444
 Alpha virt. eigenvalues --    0.97765   1.01399   1.04104   1.08950   1.09368
 Alpha virt. eigenvalues --    1.10939   1.11495   1.11873   1.12166   1.12248
 Alpha virt. eigenvalues --    1.12281   1.16444   1.18768   1.19165   1.19748
 Alpha virt. eigenvalues --    1.21312   1.21890   1.22405   1.24426   1.28423
 Alpha virt. eigenvalues --    1.29725   1.30673   1.33001   1.35696   1.36306
 Alpha virt. eigenvalues --    1.41374   1.43948   1.44152   1.47433   1.47658
 Alpha virt. eigenvalues --    1.52799   1.54893   1.59063   1.68073   1.69267
 Alpha virt. eigenvalues --    1.69461   1.72462   1.73296   1.74844   1.77699
 Alpha virt. eigenvalues --    1.78029   1.78124   1.78505   1.79921   1.80301
 Alpha virt. eigenvalues --    1.91712   2.01233   2.07895   2.08671   2.13499
 Alpha virt. eigenvalues --    2.15084   2.15221   2.18005   2.18962   2.25351
 Alpha virt. eigenvalues --    2.26842   2.32152   2.33598   2.36472   2.40044
 Alpha virt. eigenvalues --    2.40085   2.40262   2.45190   2.45250   2.47920
 Alpha virt. eigenvalues --    2.48561   2.48703   2.50710   2.55081   2.55723
 Alpha virt. eigenvalues --    2.63020   2.63473   2.64990   2.65207   2.65370
 Alpha virt. eigenvalues --    2.66501   2.76310   2.85548   2.92134   2.92630
 Alpha virt. eigenvalues --    2.94118   2.99843   3.01251   3.03651   3.04921
 Alpha virt. eigenvalues --    3.09118   3.11203   3.11510   3.11944   3.14072
 Alpha virt. eigenvalues --    3.15858   3.21851   3.33045   3.37056   3.58406
 Alpha virt. eigenvalues --    3.78182   3.88429   4.53136   4.53350   4.54812
 Alpha virt. eigenvalues --    4.55234   4.55278   4.58725   4.73502   4.76002
 Alpha virt. eigenvalues --    4.77292   4.84853   5.07977   5.20489
          Condensed to atoms (all electrons):
               1          2          3          4          5          6
     1  C    4.892157   0.541901  -0.038638  -0.037563  -0.043132   0.555313
     2  C    0.541901   4.933349   0.562776  -0.043569  -0.037585  -0.047264
     3  C   -0.038638   0.562776   4.741144   0.561387  -0.038815  -0.029101
     4  C   -0.037563  -0.043569   0.561387   4.933764   0.542191  -0.047306
     5  C   -0.043132  -0.037585  -0.038815   0.542191   4.891759   0.555323
     6  C    0.555313  -0.047264  -0.029101  -0.047306   0.555323   4.888572
     7  C    0.003711  -0.044428   0.370979  -0.044125   0.003686   0.000265
     8  C   -0.000101   0.003124  -0.044132  -0.008921   0.000164   0.000001
     9  C    0.000001  -0.000099   0.003686   0.000165  -0.000000  -0.000000
    10  C   -0.000000  -0.000000   0.000265   0.000001  -0.000000   0.000000
    11  C   -0.000001   0.000183   0.003711  -0.000101   0.000001  -0.000000
    12  C    0.000183  -0.008883  -0.044420   0.003124  -0.000098  -0.000000
    13  H    0.000023   0.002956  -0.001754   0.000001  -0.000013  -0.000005
    14  H    0.382643  -0.029435   0.001857   0.000306   0.002591  -0.030519
    15  H   -0.029917   0.379279  -0.032952   0.003128   0.000108   0.002561
    16  H    0.000109   0.003118  -0.033223   0.379518  -0.029870   0.002560
    17  H    0.002591   0.000306   0.001874  -0.029484   0.382648  -0.030526
    18  H   -0.030726   0.002573   0.000269   0.002576  -0.030727   0.383273
    19  H   -0.000012   0.000007  -0.001687   0.002928   0.000022  -0.000004
    20  H   -0.000000   0.000001  -0.000113  -0.000003  -0.000000   0.000000
    21  H    0.000000  -0.000000   0.000004  -0.000000   0.000000   0.000000
    22  H   -0.000000  -0.000003  -0.000112   0.000001  -0.000000   0.000000
               7          8          9         10         11         12
     1  C    0.003711  -0.000101   0.000001  -0.000000  -0.000001   0.000183
     2  C   -0.044428   0.003124  -0.000099  -0.000000   0.000183  -0.008883
     3  C    0.370979  -0.044132   0.003686   0.000265   0.003711  -0.044420
     4  C   -0.044125  -0.008921   0.000165   0.000001  -0.000101   0.003124
     5  C    0.003686   0.000164  -0.000000  -0.000000   0.000001  -0.000098
     6  C    0.000265   0.000001  -0.000000   0.000000  -0.000000  -0.000000
     7  C    4.741153   0.561417  -0.038815  -0.029103  -0.038641   0.562744
     8  C    0.561417   4.933791   0.542157  -0.047310  -0.037564  -0.043567
     9  C   -0.038815   0.542157   4.891737   0.555362  -0.043129  -0.037579
    10  C   -0.029103  -0.047310   0.555362   4.888575   0.555276  -0.047264
    11  C   -0.038641  -0.037564  -0.043129   0.555276   4.892174   0.541933
    12  C    0.562744  -0.043567  -0.037579  -0.047264   0.541933   4.933315
    13  H   -0.032946   0.003128   0.000108   0.002561  -0.029918   0.379276
    14  H   -0.000113   0.000001  -0.000000   0.000000  -0.000000  -0.000003
    15  H   -0.001756   0.000001  -0.000013  -0.000005   0.000023   0.002957
    16  H   -0.001686   0.002928   0.000022  -0.000004  -0.000012   0.000007
    17  H   -0.000113  -0.000003  -0.000000   0.000000  -0.000000   0.000001
    18  H    0.000004  -0.000000   0.000000   0.000000   0.000000  -0.000000
    19  H   -0.033224   0.379520  -0.029870   0.002560   0.000109   0.003118
    20  H    0.001874  -0.029485   0.382647  -0.030522   0.002590   0.000306
    21  H    0.000269   0.002576  -0.030727   0.383273  -0.030728   0.002573
    22  H    0.001858   0.000306   0.002591  -0.030518   0.382644  -0.029436
              13         14         15         16         17         18
     1  C    0.000023   0.382643  -0.029917   0.000109   0.002591  -0.030726
     2  C    0.002956  -0.029435   0.379279   0.003118   0.000306   0.002573
     3  C   -0.001754   0.001857  -0.032952  -0.033223   0.001874   0.000269
     4  C    0.000001   0.000306   0.003128   0.379518  -0.029484   0.002576
     5  C   -0.000013   0.002591   0.000108  -0.029870   0.382648  -0.030727
     6  C   -0.000005  -0.030519   0.002561   0.002560  -0.030526   0.383273
     7  C   -0.032946  -0.000113  -0.001756  -0.001686  -0.000113   0.000004
     8  C    0.003128   0.000001   0.000001   0.002928  -0.000003  -0.000000
     9  C    0.000108  -0.000000  -0.000013   0.000022  -0.000000   0.000000
    10  C    0.002561   0.000000  -0.000005  -0.000004   0.000000   0.000000
    11  C   -0.029918  -0.000000   0.000023  -0.000012  -0.000000   0.000000
    12  C    0.379276  -0.000003   0.002957   0.000007   0.000001  -0.000000
    13  H    0.470390   0.000003   0.000540   0.000003   0.000000  -0.000000
    14  H    0.000003   0.474535  -0.001704   0.000012  -0.000120  -0.001626
    15  H    0.000540  -0.001704   0.470397  -0.000119   0.000012  -0.000115
    16  H    0.000003   0.000012  -0.000119   0.470456  -0.001709  -0.000115
    17  H    0.000000  -0.000120   0.000012  -0.001709   0.474581  -0.001625
    18  H   -0.000000  -0.001626  -0.000115  -0.000115  -0.001625   0.475105
    19  H   -0.000119   0.000000   0.000003   0.000578   0.000003  -0.000000
    20  H    0.000012   0.000000   0.000000   0.000003   0.000000  -0.000000
    21  H   -0.000115  -0.000000  -0.000000  -0.000000  -0.000000  -0.000000
    22  H   -0.001704   0.000000   0.000003   0.000000   0.000000  -0.000000
              19         20         21         22
     1  C   -0.000012  -0.000000   0.000000  -0.000000
     2  C    0.000007   0.000001  -0.000000  -0.000003
     3  C   -0.001687  -0.000113   0.000004  -0.000112
     4  C    0.002928  -0.000003  -0.000000   0.000001
     5  C    0.000022  -0.000000   0.000000  -0.000000
     6  C   -0.000004   0.000000   0.000000   0.000000
     7  C   -0.033224   0.001874   0.000269   0.001858
     8  C    0.379520  -0.029485   0.002576   0.000306
     9  C   -0.029870   0.382647  -0.030727   0.002591
    10  C    0.002560  -0.030522   0.383273  -0.030518
    11  C    0.000109   0.002590  -0.030728   0.382644
    12  C    0.003118   0.000306   0.002573  -0.029436
    13  H   -0.000119   0.000012  -0.000115  -0.001704
    14  H    0.000000   0.000000  -0.000000   0.000000
    15  H    0.000003   0.000000  -0.000000   0.000003
    16  H    0.000578   0.000003  -0.000000   0.000000
    17  H    0.000003   0.000000  -0.000000   0.000000
    18  H   -0.000000  -0.000000  -0.000000  -0.000000
    19  H    0.470458  -0.001709  -0.000115   0.000012
    20  H   -0.001709   0.474575  -0.001625  -0.000120
    21  H   -0.000115  -0.001625   0.475110  -0.001626
    22  H    0.000012  -0.000120  -0.001626   0.474534
 Mulliken charges:
               1
     1  C   -0.198542
     2  C   -0.218307
     3  C    0.016997
     4  C   -0.218017
     5  C   -0.198253
     6  C   -0.203142
     7  C    0.016992
     8  C   -0.218031
     9  C   -0.198242
    10  C   -0.203145
    11  C   -0.198550
    12  C   -0.218285
    13  H    0.207572
    14  H    0.201571
    15  H    0.207566
    16  H    0.207424
    17  H    0.201564
    18  H    0.201134
    19  H    0.207423
    20  H    0.201569
    21  H    0.201130
    22  H    0.201571
 Sum of Mulliken charges =  -0.00000
 Mulliken charges with hydrogens summed into heavy atoms:
               1
     1  C    0.003029
     2  C   -0.010741
     3  C    0.016997
     4  C   -0.010593
     5  C    0.003311
     6  C   -0.002008
     7  C    0.016992
     8  C   -0.010608
     9  C    0.003327
    10  C   -0.002015
    11  C    0.003021
    12  C   -0.010712
 Electronic spatial extent (au):  <R**2>=           2290.6282
 Charge=              0.0000 electrons
 Dipole moment (field-independent basis, Debye):
    X=             -0.0000    Y=             -0.0050    Z=             -0.0000  Tot=              0.0050
 Quadrupole moment (field-independent basis, Debye-Ang):
   XX=            -61.1187   YY=            -62.9248   ZZ=            -75.2731
   XY=              0.0003   XZ=              0.0385   YZ=             -0.0004
 Traceless Quadrupole moment (field-independent basis, Debye-Ang):
   XX=              5.3202   YY=              3.5141   ZZ=             -8.8343
   XY=              0.0003   XZ=              0.0385   YZ=             -0.0004
 Octapole moment (field-independent basis, Debye-Ang**2):
  XXX=              0.0019  YYY=             -0.0769  ZZZ=              0.0002  XYY=             -0.0005
  XXY=             -0.0525  XXZ=             -0.0032  XZZ=             -0.0006  YZZ=              0.0278
  YYZ=              0.0003  XYZ=             11.8117
 Hexadecapole moment (field-independent basis, Debye-Ang**3):
 XXXX=          -2262.7414 YYYY=           -483.4342 ZZZZ=           -145.1856 XXXY=              0.0090
 XXXZ=              0.6009 YYYX=             -0.0016 YYYZ=             -0.0023 ZZZX=              0.1116
 ZZZY=             -0.0011 XXYY=           -467.0985 XXZZ=           -486.3841 YYZZ=           -107.9893
 XXYZ=             -0.0024 YYXZ=              0.1177 ZZXY=             -0.0005
 N-N= 6.026004274131D+02 E-N=-2.276787292200D+03  KE= 4.598580822820D+02
 1\1\GINC-GTX1080DELTA\Scan\RHF\6-31G(d)\C12H10\MVEROT\18-Apr-2022\0\\#
  hf/6-31G* Opt=modredundant\\Optimisation de geometrie\\0,1\C,-3.07063
 7036,1.0825175132,-0.8188930192\C,-1.6917278756,1.2058754534,-0.804178
 8251\C,-0.909440207,0.4046406478,0.024821728\C,-1.5543055219,-0.518335
 8383,0.8456533105\C,-2.9330081181,-0.6433562402,0.8310802424\C,-3.6978
 923148,0.1565889551,-0.0017745841\C,0.5747855048,0.5463284164,0.051193
 5072\C,1.3983118861,-0.5737617178,0.1441487567\C,2.7767409742,-0.44535
 67849,0.1570223686\C,3.3620996268,0.807081811,0.0717901268\C,2.5557376
 514,1.9289814954,-0.0268934619\C,1.177420613,1.7993533504,-0.038636533
 2\H,0.565471915,2.6814187388,-0.0918461516\H,-3.6532437329,1.705630529
 4,-1.4739888161\H,-1.2187074584,1.9127027769,-1.4614495028\H,-0.976614
 7237,-1.127637693,1.5168432238\H,-3.409019722,-1.3592850946,1.47738517
 23\H,-4.7688548275,0.0605309034,-0.012947049\H,0.9596550871,-1.5543054
 835,0.1840770182\H,3.3922328976,-1.3248542243,0.2241847165\H,4.4326808
 029,0.9074748521,0.0808846628\H,2.9983145791,2.9073676333,-0.088076890
 8\\Version=AM64L-G09RevD.01\State=1-A\HF=-460.2537454,-460.25392,-460.
 2534544,-460.2526521,-460.2518869,-460.2515054,-460.2516909,-460.25235
 56,-460.2531901,-460.2538138,-460.2538965,-460.2532298,-460.2518031,-4
 60.2499478,-460.2486652,-460.2493352,-460.2511488,-460.252794,-460.253
 7477,-460.2539203,-460.2534589,-460.2526578,-460.2518889,-460.2515054,
 -460.2516901,-460.2523514,-460.2531843,-460.2538122,-460.2538959,-460.
 2532232,-460.2517977,-460.2499556,-460.2486662,-460.2493437,-460.25114
 8,-460.252786,-460.2537455\RMSD=7.802e-09,4.655e-09,9.993e-09,6.036e-0
 9,3.857e-09,5.300e-09,2.340e-09,5.038e-09,5.842e-09,5.709e-09,3.971e-0
 9,9.280e-09,7.312e-09,7.031e-09,4.131e-09,4.083e-09,8.398e-09,5.377e-0
 9,3.303e-09,5.374e-09,7.861e-09,2.608e-09,4.673e-09,5.958e-09,8.371e-0
 9,7.276e-09,6.554e-09,7.181e-09,5.013e-09,4.775e-09,8.383e-09,9.786e-0
 9,6.073e-09,6.863e-09,4.712e-09,7.005e-09,2.644e-09\PG=C01 [X(C12H10)]
 \\@


 IF YOU'RE NOT PART OF THE SOLUTION,
 THEN YOU'RE PART OF THE PRECIPITATE.
 Job cpu time:       0 days  1 hours 27 minutes 46.6 seconds.
 File lengths (MBytes):  RWF=    140 Int=      0 D2E=      0 Chk=     10 Scr=      2
 Normal termination of Gaussian 09 at Mon Apr 18 02:36:19 2022.
