 Entering Gaussian System, Link 0=g09
 Input=/scratch/mverot/pbenzo-orbs/pbenzo-orbs.com
 Output=/scratch/mverot/pbenzo-orbs/pbenzo-orbs.log
 Initial command:
 /opt/g09/l1.exe "/scratch/mverot/pbenzo-orbs/Gau-2739331.inp" -scrdir="/scratch/mverot/pbenzo-orbs/"
 Entering Link 1 = /opt/g09/l1.exe PID=   2739333.
  
 Copyright (c) 1988,1990,1992,1993,1995,1998,2003,2009,2013,
            Gaussian, Inc.  All Rights Reserved.
  
 This is part of the Gaussian(R) 09 program.  It is based on
 the Gaussian(R) 03 system (copyright 2003, Gaussian, Inc.),
 the Gaussian(R) 98 system (copyright 1998, Gaussian, Inc.),
 the Gaussian(R) 94 system (copyright 1995, Gaussian, Inc.),
 the Gaussian 92(TM) system (copyright 1992, Gaussian, Inc.),
 the Gaussian 90(TM) system (copyright 1990, Gaussian, Inc.),
 the Gaussian 88(TM) system (copyright 1988, Gaussian, Inc.),
 the Gaussian 86(TM) system (copyright 1986, Carnegie Mellon
 University), and the Gaussian 82(TM) system (copyright 1983,
 Carnegie Mellon University). Gaussian is a federally registered
 trademark of Gaussian, Inc.
  
 This software contains proprietary and confidential information,
 including trade secrets, belonging to Gaussian, Inc.
  
 This software is provided under written license and may be
 used, copied, transmitted, or stored only in accord with that
 written license.
  
 The following legend is applicable only to US Government
 contracts under FAR:
  
                    RESTRICTED RIGHTS LEGEND
  
 Use, reproduction and disclosure by the US Government is
 subject to restrictions as set forth in subparagraphs (a)
 and (c) of the Commercial Computer Software - Restricted
 Rights clause in FAR 52.227-19.
  
 Gaussian, Inc.
 340 Quinnipiac St., Bldg. 40, Wallingford CT 06492
  
  
 ---------------------------------------------------------------
 Warning -- This program may not be used in any manner that
 competes with the business of Gaussian, Inc. or will provide
 assistance to any competitor of Gaussian, Inc.  The licensee
 of this program is prohibited from giving any competitor of
 Gaussian, Inc. access to this program.  By using this program,
 the user acknowledges that Gaussian, Inc. is engaged in the
 business of creating and licensing software in the field of
 computational chemistry and represents and warrants to the
 licensee that it is not a competitor of Gaussian, Inc. and that
 it will not use this program in any manner prohibited above.
 ---------------------------------------------------------------
  

 Cite this work as:
 Gaussian 09, Revision D.01,
 M. J. Frisch, G. W. Trucks, H. B. Schlegel, G. E. Scuseria, 
 M. A. Robb, J. R. Cheeseman, G. Scalmani, V. Barone, B. Mennucci, 
 G. A. Petersson, H. Nakatsuji, M. Caricato, X. Li, H. P. Hratchian, 
 A. F. Izmaylov, J. Bloino, G. Zheng, J. L. Sonnenberg, M. Hada, 
 M. Ehara, K. Toyota, R. Fukuda, J. Hasegawa, M. Ishida, T. Nakajima, 
 Y. Honda, O. Kitao, H. Nakai, T. Vreven, J. A. Montgomery, Jr., 
 J. E. Peralta, F. Ogliaro, M. Bearpark, J. J. Heyd, E. Brothers, 
 K. N. Kudin, V. N. Staroverov, T. Keith, R. Kobayashi, J. Normand, 
 K. Raghavachari, A. Rendell, J. C. Burant, S. S. Iyengar, J. Tomasi, 
 M. Cossi, N. Rega, J. M. Millam, M. Klene, J. E. Knox, J. B. Cross, 
 V. Bakken, C. Adamo, J. Jaramillo, R. Gomperts, R. E. Stratmann, 
 O. Yazyev, A. J. Austin, R. Cammi, C. Pomelli, J. W. Ochterski, 
 R. L. Martin, K. Morokuma, V. G. Zakrzewski, G. A. Voth, 
 P. Salvador, J. J. Dannenberg, S. Dapprich, A. D. Daniels, 
 O. Farkas, J. B. Foresman, J. V. Ortiz, J. Cioslowski, 
 and D. J. Fox, Gaussian, Inc., Wallingford CT, 2013.
 
 ******************************************
 Gaussian 09:  AM64L-G09RevD.01 24-Apr-2013
                11-Apr-2022 
 ******************************************
 %chk=pbenzo_orbs-zindo
 ----------------------
 #n SP pop=full gfinput
 ----------------------
 1/38=1/1;
 2/12=2,17=6,18=5,40=1/2;
 3/11=9,16=1,24=10,25=1,30=1/1,2,3;
 4//1;
 5/5=2,38=5/2;
 6/7=3,28=1/1;
 99/5=1,9=1/99;
 ----------
 UV-spectra
 ----------
 Symbolic Z-matrix:
 Charge =  0 Multiplicity = 1
 O                     2.68849   0.        0. 
 O                    -2.68849   0.        0. 
 C                     1.45291   0.        0. 
 C                    -1.45291   0.        0. 
 C                     0.66906   0.       -1.25478 
 C                     0.66906   0.        1.25478 
 C                    -0.66906   0.       -1.25478 
 C                    -0.66906   0.        1.25478 
 H                     1.25784   0.       -2.18723 
 H                     1.25784   0.        2.18723 
 H                    -1.25784   0.       -2.18723 
 H                    -1.25784   0.        2.18723 
 
                          Input orientation:                          
 ---------------------------------------------------------------------
 Center     Atomic      Atomic             Coordinates (Angstroms)
 Number     Number       Type             X           Y           Z
 ---------------------------------------------------------------------
      1          8           0        2.688495    0.000000    0.000000
      2          8           0       -2.688495    0.000000    0.000000
      3          6           0        1.452908    0.000000    0.000000
      4          6           0       -1.452908    0.000000    0.000000
      5          6           0        0.669060    0.000000   -1.254776
      6          6           0        0.669060    0.000000    1.254776
      7          6           0       -0.669060    0.000000   -1.254776
      8          6           0       -0.669060    0.000000    1.254776
      9          1           0        1.257835    0.000000   -2.187230
     10          1           0        1.257835    0.000000    2.187230
     11          1           0       -1.257835    0.000000   -2.187230
     12          1           0       -1.257835    0.000000    2.187230
 ---------------------------------------------------------------------
                    Distance matrix (angstroms):
                    1          2          3          4          5
     1  O    0.000000
     2  O    5.376990   0.000000
     3  C    1.235587   4.141403   0.000000
     4  C    4.141403   1.235587   2.905817   0.000000
     5  C    2.377516   3.584360   1.479487   2.465200   0.000000
     6  C    2.377516   3.584360   1.479487   2.465200   2.509552
     7  C    3.584360   2.377516   2.465200   1.479487   1.338119
     8  C    3.584360   2.377516   2.465200   1.479487   2.844014
     9  H    2.613573   4.511928   2.195912   3.483117   1.102782
    10  H    2.613573   4.511928   2.195912   3.483117   3.492000
    11  H    4.511928   2.613573   3.483117   2.195912   2.140653
    12  H    4.511928   2.613573   3.483117   2.195912   3.944658
                    6          7          8          9         10
     6  C    0.000000
     7  C    2.844014   0.000000
     8  C    1.338119   2.509552   0.000000
     9  H    3.492000   2.140653   3.944658   0.000000
    10  H    1.102782   3.944658   2.140653   4.374460   0.000000
    11  H    3.944658   1.102782   3.492000   2.515670   5.046236
    12  H    2.140653   3.492000   1.102782   5.046236   2.515670
                   11         12
    11  H    0.000000
    12  H    4.374460   0.000000
 Stoichiometry    C6H4O2
 Framework group  D2H[C2"(OC.CO),SG(C4H4)]
 Deg. of freedom     6
 Full point group                 D2H     NOp   8
 Largest Abelian subgroup         D2H     NOp   8
 Largest concise Abelian subgroup D2      NOp   4
                         Standard orientation:                         
 ---------------------------------------------------------------------
 Center     Atomic      Atomic             Coordinates (Angstroms)
 Number     Number       Type             X           Y           Z
 ---------------------------------------------------------------------
      1          8           0        0.000000    0.000000    2.688495
      2          8           0        0.000000    0.000000   -2.688495
      3          6           0        0.000000    0.000000    1.452908
      4          6           0        0.000000    0.000000   -1.452908
      5          6           0        0.000000    1.254776    0.669060
      6          6           0       -0.000000   -1.254776    0.669060
      7          6           0        0.000000    1.254776   -0.669060
      8          6           0       -0.000000   -1.254776   -0.669060
      9          1           0        0.000000    2.187230    1.257835
     10          1           0       -0.000000   -2.187230    1.257835
     11          1           0        0.000000    2.187230   -1.257835
     12          1           0       -0.000000   -2.187230   -1.257835
 ---------------------------------------------------------------------
 Rotational constants (GHZ):      5.3276384      1.6315700      1.2490522
 Standard basis: STO-3G (5D, 7F)
 AO basis set in the form of general basis input (Overlap normalization):
      1 0
 S   3 1.00       0.000000000000
      0.1307093214D+03  0.1543289673D+00
      0.2380886605D+02  0.5353281423D+00
      0.6443608313D+01  0.4446345422D+00
 SP   3 1.00       0.000000000000
      0.5033151319D+01 -0.9996722919D-01  0.1559162750D+00
      0.1169596125D+01  0.3995128261D+00  0.6076837186D+00
      0.3803889600D+00  0.7001154689D+00  0.3919573931D+00
 ****
      2 0
 S   3 1.00       0.000000000000
      0.1307093214D+03  0.1543289673D+00
      0.2380886605D+02  0.5353281423D+00
      0.6443608313D+01  0.4446345422D+00
 SP   3 1.00       0.000000000000
      0.5033151319D+01 -0.9996722919D-01  0.1559162750D+00
      0.1169596125D+01  0.3995128261D+00  0.6076837186D+00
      0.3803889600D+00  0.7001154689D+00  0.3919573931D+00
 ****
      3 0
 S   3 1.00       0.000000000000
      0.7161683735D+02  0.1543289673D+00
      0.1304509632D+02  0.5353281423D+00
      0.3530512160D+01  0.4446345422D+00
 SP   3 1.00       0.000000000000
      0.2941249355D+01 -0.9996722919D-01  0.1559162750D+00
      0.6834830964D+00  0.3995128261D+00  0.6076837186D+00
      0.2222899159D+00  0.7001154689D+00  0.3919573931D+00
 ****
      4 0
 S   3 1.00       0.000000000000
      0.7161683735D+02  0.1543289673D+00
      0.1304509632D+02  0.5353281423D+00
      0.3530512160D+01  0.4446345422D+00
 SP   3 1.00       0.000000000000
      0.2941249355D+01 -0.9996722919D-01  0.1559162750D+00
      0.6834830964D+00  0.3995128261D+00  0.6076837186D+00
      0.2222899159D+00  0.7001154689D+00  0.3919573931D+00
 ****
      5 0
 S   3 1.00       0.000000000000
      0.7161683735D+02  0.1543289673D+00
      0.1304509632D+02  0.5353281423D+00
      0.3530512160D+01  0.4446345422D+00
 SP   3 1.00       0.000000000000
      0.2941249355D+01 -0.9996722919D-01  0.1559162750D+00
      0.6834830964D+00  0.3995128261D+00  0.6076837186D+00
      0.2222899159D+00  0.7001154689D+00  0.3919573931D+00
 ****
      6 0
 S   3 1.00       0.000000000000
      0.7161683735D+02  0.1543289673D+00
      0.1304509632D+02  0.5353281423D+00
      0.3530512160D+01  0.4446345422D+00
 SP   3 1.00       0.000000000000
      0.2941249355D+01 -0.9996722919D-01  0.1559162750D+00
      0.6834830964D+00  0.3995128261D+00  0.6076837186D+00
      0.2222899159D+00  0.7001154689D+00  0.3919573931D+00
 ****
      7 0
 S   3 1.00       0.000000000000
      0.7161683735D+02  0.1543289673D+00
      0.1304509632D+02  0.5353281423D+00
      0.3530512160D+01  0.4446345422D+00
 SP   3 1.00       0.000000000000
      0.2941249355D+01 -0.9996722919D-01  0.1559162750D+00
      0.6834830964D+00  0.3995128261D+00  0.6076837186D+00
      0.2222899159D+00  0.7001154689D+00  0.3919573931D+00
 ****
      8 0
 S   3 1.00       0.000000000000
      0.7161683735D+02  0.1543289673D+00
      0.1304509632D+02  0.5353281423D+00
      0.3530512160D+01  0.4446345422D+00
 SP   3 1.00       0.000000000000
      0.2941249355D+01 -0.9996722919D-01  0.1559162750D+00
      0.6834830964D+00  0.3995128261D+00  0.6076837186D+00
      0.2222899159D+00  0.7001154689D+00  0.3919573931D+00
 ****
      9 0
 S   3 1.00       0.000000000000
      0.3425250914D+01  0.1543289673D+00
      0.6239137298D+00  0.5353281423D+00
      0.1688554040D+00  0.4446345422D+00
 ****
     10 0
 S   3 1.00       0.000000000000
      0.3425250914D+01  0.1543289673D+00
      0.6239137298D+00  0.5353281423D+00
      0.1688554040D+00  0.4446345422D+00
 ****
     11 0
 S   3 1.00       0.000000000000
      0.3425250914D+01  0.1543289673D+00
      0.6239137298D+00  0.5353281423D+00
      0.1688554040D+00  0.4446345422D+00
 ****
     12 0
 S   3 1.00       0.000000000000
      0.3425250914D+01  0.1543289673D+00
      0.6239137298D+00  0.5353281423D+00
      0.1688554040D+00  0.4446345422D+00
 ****

 There are    11 symmetry adapted cartesian basis functions of AG  symmetry.
 There are     1 symmetry adapted cartesian basis functions of B1G symmetry.
 There are     3 symmetry adapted cartesian basis functions of B2G symmetry.
 There are     7 symmetry adapted cartesian basis functions of B3G symmetry.
 There are     1 symmetry adapted cartesian basis functions of AU  symmetry.
 There are    11 symmetry adapted cartesian basis functions of B1U symmetry.
 There are     7 symmetry adapted cartesian basis functions of B2U symmetry.
 There are     3 symmetry adapted cartesian basis functions of B3U symmetry.
 There are    11 symmetry adapted basis functions of AG  symmetry.
 There are     1 symmetry adapted basis functions of B1G symmetry.
 There are     3 symmetry adapted basis functions of B2G symmetry.
 There are     7 symmetry adapted basis functions of B3G symmetry.
 There are     1 symmetry adapted basis functions of AU  symmetry.
 There are    11 symmetry adapted basis functions of B1U symmetry.
 There are     7 symmetry adapted basis functions of B2U symmetry.
 There are     3 symmetry adapted basis functions of B3U symmetry.
    44 basis functions,   132 primitive gaussians,    44 cartesian basis functions
    28 alpha electrons       28 beta electrons
       nuclear repulsion energy       321.6256687281 Hartrees.
 NAtoms=   12 NActive=   12 NUniq=    4 SFac= 4.00D+00 NAtFMM=   60 NAOKFM=F Big=F
 Integral buffers will be    131072 words long.
 Raffenetti 1 integral format.
 Two-electron integral symmetry is turned on.
 One-electron integrals computed using PRISM.
 NBasis=    44 RedAO= T EigKep=  1.33D-01  NBF=    11     1     3     7     1    11     7     3
 NBsUse=    44 1.00D-06 EigRej= -1.00D+00 NBFU=    11     1     3     7     1    11     7     3
 ExpMin= 1.69D-01 ExpMax= 1.31D+02 ExpMxC= 1.31D+02 IAcc=1 IRadAn=         1 AccDes= 0.00D+00
 Harris functional with IExCor=  205 and IRadAn=       1 diagonalized for initial guess.
 HarFok:  IExCor=  205 AccDes= 0.00D+00 IRadAn=         1 IDoV= 1 UseB2=F ITyADJ=14
 ICtDFT=  3500011 ScaDFX=  1.000000  1.000000  1.000000  1.000000
 FoFCou: FMM=F IPFlag=           0 FMFlag=      100000 FMFlg1=           0
         NFxFlg=           0 DoJE=T BraDBF=F KetDBF=T FulRan=T
         wScrn=  0.000000 ICntrl=     500 IOpCl=  0 I1Cent=   200000004 NGrid=           0
         NMat0=    1 NMatS0=      1 NMatT0=    0 NMatD0=    1 NMtDS0=    0 NMtDT0=    0
 Petite list used in FoFCou.
 Initial guess orbital symmetries:
       Occupied  (B1U) (AG) (B1U) (B3G) (B2U) (AG) (B1U) (AG) (AG)
                 (B1U) (AG) (B2U) (B1U) (B3G) (AG) (B2U) (AG) (B1U)
                 (B2U) (B1U) (B3U) (AG) (B3G) (B2G) (B1G) (B3U)
                 (B2U) (B3G)
       Virtual   (B2G) (AU) (B3U) (B2G) (AG) (B2U) (AG) (B1U) (B3G)
                 (B1U) (B2U) (B3G) (B1U) (AG) (B3G) (B1U)
 The electronic state of the initial guess is 1-AG.
 Keep R1 ints in memory in symmetry-blocked form, NReq=1343924.
 Requested convergence on RMS density matrix=1.00D-08 within 128 cycles.
 Requested convergence on MAX density matrix=1.00D-06.
 Requested convergence on             energy=1.00D-06.
 No special actions if energy rises.
 SCF Done:  E(RHF) =  -374.347968480     A.U. after   11 cycles
            NFock= 11  Conv=0.13D-08     -V/T= 2.0089

 **********************************************************************

            Population analysis using the SCF density.

 **********************************************************************

 Orbital symmetries:
       Occupied  (B1U) (AG) (B1U) (AG) (B2U) (AG) (B3G) (B1U) (AG)
                 (B1U) (AG) (B2U) (B1U) (B3G) (AG) (B2U) (AG) (B1U)
                 (B2U) (B1U) (B3U) (B3G) (AG) (B2G) (B2U) (B1G)
                 (B3G) (B3U)
       Virtual   (B2G) (AU) (B3U) (B2G) (AG) (B2U) (AG) (B1U) (B3G)
                 (B1U) (B2U) (B3G) (B1U) (AG) (B3G) (B1U)
 The electronic state is 1-AG.
 Alpha  occ. eigenvalues --  -20.29569 -20.29569 -11.13756 -11.13752 -11.05942
 Alpha  occ. eigenvalues --  -11.05930 -11.05863 -11.05862  -1.33331  -1.33069
 Alpha  occ. eigenvalues --   -1.08208  -0.99705  -0.88763  -0.79611  -0.75332
 Alpha  occ. eigenvalues --   -0.63482  -0.62943  -0.59829  -0.56677  -0.52728
 Alpha  occ. eigenvalues --   -0.52191  -0.50399  -0.49507  -0.45613  -0.36202
 Alpha  occ. eigenvalues --   -0.34426  -0.33385  -0.29509
 Alpha virt. eigenvalues --    0.13273   0.28220   0.32517   0.48218   0.56940
 Alpha virt. eigenvalues --    0.57543   0.61105   0.62490   0.69867   0.77180
 Alpha virt. eigenvalues --    0.78895   0.85289   0.88729   0.94674   1.04379
 Alpha virt. eigenvalues --    1.13614
     Molecular Orbital Coefficients:
                           1         2         3         4         5
                       (B1U)--O   (AG)--O  (B1U)--O   (AG)--O  (B2U)--O
     Eigenvalues --   -20.29569 -20.29569 -11.13756 -11.13752 -11.05942
   1 1   O  1S          0.70308   0.70308   0.00014   0.00014   0.00000
   2        2S          0.01819   0.01817  -0.00404  -0.00410   0.00000
   3        2PX         0.00000   0.00000   0.00000   0.00000   0.00000
   4        2PY         0.00000   0.00000   0.00000   0.00000   0.00012
   5        2PZ        -0.00386  -0.00384   0.00127   0.00131   0.00000
   6 2   O  1S         -0.70308   0.70308  -0.00014   0.00014   0.00000
   7        2S         -0.01819   0.01817   0.00404  -0.00410   0.00000
   8        2PX         0.00000   0.00000   0.00000   0.00000   0.00000
   9        2PY         0.00000   0.00000   0.00000   0.00000   0.00012
  10        2PZ        -0.00386   0.00384   0.00127  -0.00131   0.00000
  11 3   C  1S          0.00039   0.00039   0.70177   0.70180   0.00000
  12        2S         -0.00496  -0.00494   0.02381   0.02368   0.00000
  13        2PX         0.00000   0.00000   0.00000   0.00000   0.00000
  14        2PY         0.00000   0.00000   0.00000   0.00000  -0.00351
  15        2PZ        -0.00444  -0.00438  -0.00013   0.00009   0.00000
  16 4   C  1S         -0.00039   0.00039  -0.70177   0.70180   0.00000
  17        2S          0.00496  -0.00494  -0.02381   0.02368   0.00000
  18        2PX         0.00000   0.00000   0.00000   0.00000   0.00000
  19        2PY         0.00000   0.00000   0.00000   0.00000  -0.00351
  20        2PZ        -0.00444   0.00438  -0.00013  -0.00009   0.00000
  21 5   C  1S         -0.00002  -0.00001  -0.00042  -0.00074   0.49624
  22        2S          0.00017   0.00024  -0.00440  -0.00420   0.01405
  23        2PX         0.00000   0.00000   0.00000   0.00000   0.00000
  24        2PY         0.00005   0.00014   0.00255   0.00244  -0.00035
  25        2PZ         0.00037   0.00033  -0.00168  -0.00169   0.00151
  26 6   C  1S         -0.00002  -0.00001  -0.00042  -0.00074  -0.49624
  27        2S          0.00017   0.00024  -0.00440  -0.00420  -0.01405
  28        2PX         0.00000   0.00000   0.00000   0.00000   0.00000
  29        2PY        -0.00005  -0.00014  -0.00255  -0.00244  -0.00035
  30        2PZ         0.00037   0.00033  -0.00168  -0.00169  -0.00151
  31 7   C  1S          0.00002  -0.00001   0.00042  -0.00074   0.49624
  32        2S         -0.00017   0.00024   0.00440  -0.00420   0.01405
  33        2PX         0.00000   0.00000   0.00000   0.00000   0.00000
  34        2PY        -0.00005   0.00014  -0.00255   0.00244  -0.00035
  35        2PZ         0.00037  -0.00033  -0.00168   0.00169  -0.00151
  36 8   C  1S          0.00002  -0.00001   0.00042  -0.00074  -0.49624
  37        2S         -0.00017   0.00024   0.00440  -0.00420  -0.01405
  38        2PX         0.00000   0.00000   0.00000   0.00000   0.00000
  39        2PY         0.00005  -0.00014   0.00255  -0.00244  -0.00035
  40        2PZ         0.00037  -0.00033  -0.00168   0.00169   0.00151
  41 9   H  1S         -0.00013  -0.00016   0.00003  -0.00003  -0.00318
  42 10  H  1S         -0.00013  -0.00016   0.00003  -0.00003   0.00318
  43 11  H  1S          0.00013  -0.00016  -0.00003  -0.00003  -0.00318
  44 12  H  1S          0.00013  -0.00016  -0.00003  -0.00003   0.00318
                           6         7         8         9        10
                        (AG)--O  (B3G)--O  (B1U)--O   (AG)--O  (B1U)--O
     Eigenvalues --   -11.05930 -11.05863 -11.05862  -1.33331  -1.33069
   1 1   O  1S         -0.00001   0.00000  -0.00003  -0.15026  -0.15263
   2        2S          0.00016   0.00000   0.00038   0.52731   0.53594
   3        2PX         0.00000   0.00000   0.00000   0.00000   0.00000
   4        2PY         0.00000   0.00017   0.00000   0.00000   0.00000
   5        2PZ        -0.00009   0.00000  -0.00020  -0.11516  -0.11608
   6 2   O  1S         -0.00001   0.00000   0.00003  -0.15026   0.15263
   7        2S          0.00016   0.00000  -0.00038   0.52731  -0.53594
   8        2PX         0.00000   0.00000   0.00000   0.00000   0.00000
   9        2PY         0.00000  -0.00017   0.00000   0.00000   0.00000
  10        2PZ         0.00009   0.00000  -0.00020   0.11516  -0.11608
  11 3   C  1S          0.00205   0.00000   0.00153  -0.09125  -0.08871
  12        2S         -0.00600   0.00000  -0.00650   0.21186   0.20565
  13        2PX         0.00000   0.00000   0.00000   0.00000   0.00000
  14        2PY         0.00000  -0.00371   0.00000   0.00000   0.00000
  15        2PZ         0.00238   0.00000   0.00223   0.10175   0.10819
  16 4   C  1S          0.00205   0.00000  -0.00153  -0.09125   0.08871
  17        2S         -0.00600   0.00000   0.00650   0.21186  -0.20565
  18        2PX         0.00000   0.00000   0.00000   0.00000   0.00000
  19        2PY         0.00000   0.00371   0.00000   0.00000   0.00000
  20        2PZ        -0.00238   0.00000   0.00223  -0.10175   0.10819
  21 5   C  1S          0.49629   0.49596   0.49596  -0.02092  -0.01270
  22        2S          0.01416   0.02181   0.02206   0.05055   0.03081
  23        2PX         0.00000   0.00000   0.00000   0.00000   0.00000
  24        2PY        -0.00016  -0.00025  -0.00039  -0.01949  -0.01723
  25        2PZ         0.00168  -0.00297  -0.00299   0.00653   0.01652
  26 6   C  1S          0.49629  -0.49596   0.49596  -0.02092  -0.01270
  27        2S          0.01416  -0.02181   0.02206   0.05055   0.03081
  28        2PX         0.00000   0.00000   0.00000   0.00000   0.00000
  29        2PY         0.00016  -0.00025   0.00039   0.01949   0.01723
  30        2PZ         0.00168   0.00297  -0.00299   0.00653   0.01652
  31 7   C  1S          0.49629  -0.49596  -0.49596  -0.02092   0.01270
  32        2S          0.01416  -0.02181  -0.02206   0.05055  -0.03081
  33        2PX         0.00000   0.00000   0.00000   0.00000   0.00000
  34        2PY        -0.00016   0.00025   0.00039  -0.01949   0.01723
  35        2PZ        -0.00168  -0.00297  -0.00299  -0.00653   0.01652
  36 8   C  1S          0.49629   0.49596  -0.49596  -0.02092   0.01270
  37        2S          0.01416   0.02181  -0.02206   0.05055  -0.03081
  38        2PX         0.00000   0.00000   0.00000   0.00000   0.00000
  39        2PY         0.00016   0.00025  -0.00039   0.01949  -0.01723
  40        2PZ        -0.00168   0.00297  -0.00299  -0.00653   0.01652
  41 9   H  1S         -0.00334  -0.00336  -0.00339   0.00758   0.00561
  42 10  H  1S         -0.00334   0.00336  -0.00339   0.00758   0.00561
  43 11  H  1S         -0.00334   0.00336   0.00339   0.00758  -0.00561
  44 12  H  1S         -0.00334  -0.00336   0.00339   0.00758  -0.00561
                          11        12        13        14        15
                        (AG)--O  (B2U)--O  (B1U)--O  (B3G)--O   (AG)--O
     Eigenvalues --    -1.08208  -0.99705  -0.88763  -0.79611  -0.75332
   1 1   O  1S          0.05208   0.00000   0.06990   0.00000   0.04876
   2        2S         -0.19758   0.00000  -0.28996   0.00000  -0.21695
   3        2PX         0.00000   0.00000   0.00000   0.00000   0.00000
   4        2PY         0.00000   0.02933   0.00000   0.12183   0.00000
   5        2PZ         0.00241   0.00000  -0.06552   0.00000  -0.11175
   6 2   O  1S          0.05208   0.00000  -0.06990   0.00000   0.04876
   7        2S         -0.19758   0.00000   0.28996   0.00000  -0.21695
   8        2PX         0.00000   0.00000   0.00000   0.00000   0.00000
   9        2PY         0.00000   0.02933   0.00000  -0.12183   0.00000
  10        2PZ        -0.00241   0.00000  -0.06552   0.00000   0.11175
  11 3   C  1S         -0.05782   0.00000  -0.11131   0.00000  -0.10056
  12        2S          0.15920   0.00000   0.33169   0.00000   0.31828
  13        2PX         0.00000   0.00000   0.00000   0.00000   0.00000
  14        2PY         0.00000   0.12182   0.00000   0.24807   0.00000
  15        2PZ        -0.12988   0.00000  -0.15830   0.00000  -0.09943
  16 4   C  1S         -0.05782   0.00000   0.11131   0.00000  -0.10056
  17        2S          0.15920   0.00000  -0.33169   0.00000   0.31828
  18        2PX         0.00000   0.00000   0.00000   0.00000   0.00000
  19        2PY         0.00000   0.12182   0.00000  -0.24807   0.00000
  20        2PZ         0.12988   0.00000  -0.15830   0.00000   0.09943
  21 5   C  1S         -0.11092  -0.12829  -0.07852  -0.09156   0.04701
  22        2S          0.28503   0.34369   0.22558   0.27336  -0.13860
  23        2PX         0.00000   0.00000   0.00000   0.00000   0.00000
  24        2PY        -0.04149   0.00605  -0.06398  -0.00052  -0.20337
  25        2PZ        -0.06177  -0.08112   0.10472   0.13766   0.11642
  26 6   C  1S         -0.11092   0.12829  -0.07852   0.09156   0.04701
  27        2S          0.28503  -0.34369   0.22558  -0.27336  -0.13860
  28        2PX         0.00000   0.00000   0.00000   0.00000   0.00000
  29        2PY         0.04149   0.00605   0.06398  -0.00052   0.20337
  30        2PZ        -0.06177   0.08112   0.10472  -0.13766   0.11642
  31 7   C  1S         -0.11092  -0.12829   0.07852   0.09156   0.04701
  32        2S          0.28503   0.34369  -0.22558  -0.27336  -0.13860
  33        2PX         0.00000   0.00000   0.00000   0.00000   0.00000
  34        2PY        -0.04149   0.00605   0.06398   0.00052  -0.20337
  35        2PZ         0.06177   0.08112   0.10472   0.13766  -0.11642
  36 8   C  1S         -0.11092   0.12829   0.07852  -0.09156   0.04701
  37        2S          0.28503  -0.34369  -0.22558   0.27336  -0.13860
  38        2PX         0.00000   0.00000   0.00000   0.00000   0.00000
  39        2PY         0.04149   0.00605  -0.06398   0.00052   0.20337
  40        2PZ         0.06177  -0.08112   0.10472  -0.13766  -0.11642
  41 9   H  1S          0.04939   0.08392   0.07071   0.13975  -0.12154
  42 10  H  1S          0.04939  -0.08392   0.07071  -0.13975  -0.12154
  43 11  H  1S          0.04939   0.08392  -0.07071  -0.13975  -0.12154
  44 12  H  1S          0.04939  -0.08392  -0.07071   0.13975  -0.12154
                          16        17        18        19        20
                       (B2U)--O   (AG)--O  (B1U)--O  (B2U)--O  (B1U)--O
     Eigenvalues --    -0.63482  -0.62943  -0.59829  -0.56677  -0.52728
   1 1   O  1S          0.00000  -0.06404   0.04427   0.00000  -0.05706
   2        2S          0.00000   0.31493  -0.22077   0.00000   0.30680
   3        2PX         0.00000   0.00000   0.00000   0.00000   0.00000
   4        2PY         0.27296   0.00000   0.00000  -0.05733   0.00000
   5        2PZ         0.00000   0.25859  -0.24009   0.00000   0.41924
   6 2   O  1S          0.00000  -0.06404  -0.04427   0.00000   0.05706
   7        2S          0.00000   0.31493   0.22077   0.00000  -0.30680
   8        2PX         0.00000   0.00000   0.00000   0.00000   0.00000
   9        2PY         0.27296   0.00000   0.00000  -0.05733   0.00000
  10        2PZ         0.00000  -0.25859  -0.24009   0.00000   0.41924
  11 3   C  1S          0.00000   0.04825  -0.07820   0.00000  -0.00313
  12        2S          0.00000  -0.16204   0.27420   0.00000   0.01676
  13        2PX         0.00000   0.00000   0.00000   0.00000   0.00000
  14        2PY         0.31359   0.00000   0.00000  -0.13266   0.00000
  15        2PZ         0.00000  -0.13680   0.03267   0.00000  -0.33772
  16 4   C  1S          0.00000   0.04825   0.07820   0.00000   0.00313
  17        2S          0.00000  -0.16204  -0.27420   0.00000  -0.01676
  18        2PX         0.00000   0.00000   0.00000   0.00000   0.00000
  19        2PY         0.31359   0.00000   0.00000  -0.13266   0.00000
  20        2PZ         0.00000   0.13680   0.03267   0.00000  -0.33772
  21 5   C  1S          0.01140  -0.00295   0.05130   0.01626  -0.00652
  22        2S         -0.02686  -0.00524  -0.17403  -0.04525   0.02111
  23        2PX         0.00000   0.00000   0.00000   0.00000   0.00000
  24        2PY        -0.09502  -0.13589  -0.18031   0.26506  -0.15870
  25        2PZ         0.25933  -0.21531  -0.08131   0.17484  -0.01303
  26 6   C  1S         -0.01140  -0.00295   0.05130  -0.01626  -0.00652
  27        2S          0.02686  -0.00524  -0.17403   0.04525   0.02111
  28        2PX         0.00000   0.00000   0.00000   0.00000   0.00000
  29        2PY        -0.09502   0.13589   0.18031   0.26506   0.15870
  30        2PZ        -0.25933  -0.21531  -0.08131  -0.17484  -0.01303
  31 7   C  1S          0.01140  -0.00295  -0.05130   0.01626   0.00652
  32        2S         -0.02686  -0.00524   0.17403  -0.04525  -0.02111
  33        2PX         0.00000   0.00000   0.00000   0.00000   0.00000
  34        2PY        -0.09502  -0.13589   0.18031   0.26506   0.15870
  35        2PZ        -0.25933   0.21531  -0.08131  -0.17484  -0.01303
  36 8   C  1S         -0.01140  -0.00295  -0.05130  -0.01626   0.00652
  37        2S          0.02686  -0.00524   0.17403   0.04525  -0.02111
  38        2PX         0.00000   0.00000   0.00000   0.00000   0.00000
  39        2PY        -0.09502   0.13589  -0.18031   0.26506  -0.15870
  40        2PZ         0.25933   0.21531  -0.08131   0.17484  -0.01303
  41 9   H  1S          0.02972  -0.16329  -0.23936   0.23939  -0.11533
  42 10  H  1S         -0.02972  -0.16329  -0.23936  -0.23939  -0.11533
  43 11  H  1S          0.02972  -0.16329   0.23936   0.23939   0.11533
  44 12  H  1S         -0.02972  -0.16329   0.23936  -0.23939   0.11533
                          21        22        23        24        25
                       (B3U)--O  (B3G)--O   (AG)--O  (B2G)--O  (B2U)--O
     Eigenvalues --    -0.52191  -0.50399  -0.49507  -0.45613  -0.36202
   1 1   O  1S          0.00000   0.00000  -0.04113   0.00000   0.00000
   2        2S          0.00000   0.00000   0.22901   0.00000   0.00000
   3        2PX         0.28939   0.00000   0.00000   0.44096   0.00000
   4        2PY         0.00000   0.39838   0.00000   0.00000   0.63083
   5        2PZ         0.00000   0.00000   0.39972   0.00000   0.00000
   6 2   O  1S          0.00000   0.00000  -0.04113   0.00000   0.00000
   7        2S          0.00000   0.00000   0.22901   0.00000   0.00000
   8        2PX         0.28939   0.00000   0.00000  -0.44096   0.00000
   9        2PY         0.00000  -0.39838   0.00000   0.00000   0.63083
  10        2PZ         0.00000   0.00000  -0.39972   0.00000   0.00000
  11 3   C  1S          0.00000   0.00000   0.00649   0.00000   0.00000
  12        2S          0.00000   0.00000  -0.02381   0.00000   0.00000
  13        2PX         0.36909   0.00000   0.00000   0.43943   0.00000
  14        2PY         0.00000   0.26903   0.00000   0.00000  -0.07975
  15        2PZ         0.00000   0.00000  -0.27507   0.00000   0.00000
  16 4   C  1S          0.00000   0.00000   0.00649   0.00000   0.00000
  17        2S          0.00000   0.00000  -0.02381   0.00000   0.00000
  18        2PX         0.36909   0.00000   0.00000  -0.43943   0.00000
  19        2PY         0.00000  -0.26903   0.00000   0.00000  -0.07975
  20        2PZ         0.00000   0.00000   0.27507   0.00000   0.00000
  21 5   C  1S          0.00000   0.02396   0.00474   0.00000   0.01817
  22        2S          0.00000  -0.09453  -0.00293   0.00000  -0.08822
  23        2PX         0.24850   0.00000   0.00000   0.08328   0.00000
  24        2PY         0.00000  -0.19721  -0.01206   0.00000   0.14198
  25        2PZ         0.00000  -0.02489   0.26366   0.00000  -0.16982
  26 6   C  1S          0.00000  -0.02396   0.00474   0.00000  -0.01817
  27        2S          0.00000   0.09453  -0.00293   0.00000   0.08822
  28        2PX         0.24850   0.00000   0.00000   0.08328   0.00000
  29        2PY         0.00000  -0.19721   0.01206   0.00000   0.14198
  30        2PZ         0.00000   0.02489   0.26366   0.00000   0.16982
  31 7   C  1S          0.00000  -0.02396   0.00474   0.00000   0.01817
  32        2S          0.00000   0.09453  -0.00293   0.00000  -0.08822
  33        2PX         0.24850   0.00000   0.00000  -0.08328   0.00000
  34        2PY         0.00000   0.19721  -0.01206   0.00000   0.14198
  35        2PZ         0.00000  -0.02489  -0.26366   0.00000   0.16982
  36 8   C  1S          0.00000   0.02396   0.00474   0.00000  -0.01817
  37        2S          0.00000  -0.09453  -0.00293   0.00000   0.08822
  38        2PX         0.24850   0.00000   0.00000  -0.08328   0.00000
  39        2PY         0.00000   0.19721   0.01206   0.00000   0.14198
  40        2PZ         0.00000   0.02489  -0.26366   0.00000  -0.16982
  41 9   H  1S          0.00000  -0.21796   0.12337   0.00000  -0.00698
  42 10  H  1S          0.00000   0.21796   0.12337   0.00000   0.00698
  43 11  H  1S          0.00000   0.21796   0.12337   0.00000  -0.00698
  44 12  H  1S          0.00000  -0.21796   0.12337   0.00000   0.00698
                          26        27        28        29        30
                       (B1G)--O  (B3G)--O  (B3U)--O  (B2G)--V   (AU)--V
     Eigenvalues --    -0.34426  -0.33385  -0.29509   0.13273   0.28220
   1 1   O  1S          0.00000   0.00000   0.00000   0.00000   0.00000
   2        2S          0.00000   0.00000   0.00000   0.00000   0.00000
   3        2PX         0.00000   0.00000   0.44623   0.49202   0.00000
   4        2PY         0.00000   0.55352   0.00000   0.00000   0.00000
   5        2PZ         0.00000   0.00000   0.00000   0.00000   0.00000
   6 2   O  1S          0.00000   0.00000   0.00000   0.00000   0.00000
   7        2S          0.00000   0.00000   0.00000   0.00000   0.00000
   8        2PX         0.00000   0.00000   0.44623  -0.49202   0.00000
   9        2PY         0.00000  -0.55352   0.00000   0.00000   0.00000
  10        2PZ         0.00000   0.00000   0.00000   0.00000   0.00000
  11 3   C  1S          0.00000   0.00000   0.00000   0.00000   0.00000
  12        2S          0.00000   0.00000   0.00000   0.00000   0.00000
  13        2PX         0.00000   0.00000   0.19245  -0.30553   0.00000
  14        2PY         0.00000  -0.18864   0.00000   0.00000   0.00000
  15        2PZ         0.00000   0.00000   0.00000   0.00000   0.00000
  16 4   C  1S          0.00000   0.00000   0.00000   0.00000   0.00000
  17        2S          0.00000   0.00000   0.00000   0.00000   0.00000
  18        2PX         0.00000   0.00000   0.19245   0.30553   0.00000
  19        2PY         0.00000   0.18864   0.00000   0.00000   0.00000
  20        2PZ         0.00000   0.00000   0.00000   0.00000   0.00000
  21 5   C  1S          0.00000   0.03319   0.00000   0.00000   0.00000
  22        2S          0.00000  -0.13893   0.00000   0.00000   0.00000
  23        2PX         0.45479   0.00000  -0.33867  -0.33003   0.57725
  24        2PY         0.00000   0.23163   0.00000   0.00000   0.00000
  25        2PZ         0.00000  -0.05120   0.00000   0.00000   0.00000
  26 6   C  1S          0.00000  -0.03319   0.00000   0.00000   0.00000
  27        2S          0.00000   0.13893   0.00000   0.00000   0.00000
  28        2PX        -0.45479   0.00000  -0.33867  -0.33003  -0.57725
  29        2PY         0.00000   0.23163   0.00000   0.00000   0.00000
  30        2PZ         0.00000   0.05120   0.00000   0.00000   0.00000
  31 7   C  1S          0.00000  -0.03319   0.00000   0.00000   0.00000
  32        2S          0.00000   0.13893   0.00000   0.00000   0.00000
  33        2PX         0.45479   0.00000  -0.33867   0.33003  -0.57725
  34        2PY         0.00000  -0.23163   0.00000   0.00000   0.00000
  35        2PZ         0.00000  -0.05120   0.00000   0.00000   0.00000
  36 8   C  1S          0.00000   0.03319   0.00000   0.00000   0.00000
  37        2S          0.00000  -0.13893   0.00000   0.00000   0.00000
  38        2PX        -0.45479   0.00000  -0.33867   0.33003   0.57725
  39        2PY         0.00000  -0.23163   0.00000   0.00000   0.00000
  40        2PZ         0.00000   0.05120   0.00000   0.00000   0.00000
  41 9   H  1S          0.00000   0.15679   0.00000   0.00000   0.00000
  42 10  H  1S          0.00000  -0.15679   0.00000   0.00000   0.00000
  43 11  H  1S          0.00000  -0.15679   0.00000   0.00000   0.00000
  44 12  H  1S          0.00000   0.15679   0.00000   0.00000   0.00000
                          31        32        33        34        35
                       (B3U)--V  (B2G)--V   (AG)--V  (B2U)--V   (AG)--V
     Eigenvalues --     0.32517   0.48218   0.56940   0.57543   0.61105
   1 1   O  1S          0.00000   0.00000  -0.02764   0.00000   0.00847
   2        2S          0.00000   0.00000   0.18146   0.00000  -0.04113
   3        2PX        -0.48858  -0.29197   0.00000   0.00000   0.00000
   4        2PY         0.00000   0.00000   0.00000   0.12304   0.00000
   5        2PZ         0.00000   0.00000  -0.26019   0.00000   0.06643
   6 2   O  1S          0.00000   0.00000  -0.02764   0.00000   0.00847
   7        2S          0.00000   0.00000   0.18146   0.00000  -0.04113
   8        2PX        -0.48858   0.29197   0.00000   0.00000   0.00000
   9        2PY         0.00000   0.00000   0.00000   0.12304   0.00000
  10        2PZ         0.00000   0.00000   0.26019   0.00000  -0.06643
  11 3   C  1S          0.00000   0.00000   0.08542   0.00000  -0.13154
  12        2S          0.00000   0.00000  -0.51735   0.00000   0.79354
  13        2PX         0.61765   0.52656   0.00000   0.00000   0.00000
  14        2PY         0.00000   0.00000   0.00000  -0.42356   0.00000
  15        2PZ         0.00000   0.00000  -0.00973   0.00000  -0.38582
  16 4   C  1S          0.00000   0.00000   0.08542   0.00000  -0.13154
  17        2S          0.00000   0.00000  -0.51735   0.00000   0.79354
  18        2PX         0.61765  -0.52656   0.00000   0.00000   0.00000
  19        2PY         0.00000   0.00000   0.00000  -0.42356   0.00000
  20        2PZ         0.00000   0.00000   0.00973   0.00000   0.38582
  21 5   C  1S          0.00000   0.00000   0.02794   0.01631   0.08916
  22        2S          0.00000   0.00000  -0.18226  -0.11099  -0.55311
  23        2PX        -0.18784  -0.48083   0.00000   0.00000   0.00000
  24        2PY         0.00000   0.00000  -0.42802  -0.47337   0.21808
  25        2PZ         0.00000   0.00000  -0.09814  -0.05808  -0.33071
  26 6   C  1S          0.00000   0.00000   0.02794  -0.01631   0.08916
  27        2S          0.00000   0.00000  -0.18226   0.11099  -0.55311
  28        2PX        -0.18784  -0.48083   0.00000   0.00000   0.00000
  29        2PY         0.00000   0.00000   0.42802  -0.47337  -0.21808
  30        2PZ         0.00000   0.00000  -0.09814   0.05808  -0.33071
  31 7   C  1S          0.00000   0.00000   0.02794   0.01631   0.08916
  32        2S          0.00000   0.00000  -0.18226  -0.11099  -0.55311
  33        2PX        -0.18784   0.48083   0.00000   0.00000   0.00000
  34        2PY         0.00000   0.00000  -0.42802  -0.47337   0.21808
  35        2PZ         0.00000   0.00000   0.09814   0.05808   0.33071
  36 8   C  1S          0.00000   0.00000   0.02794  -0.01631   0.08916
  37        2S          0.00000   0.00000  -0.18226   0.11099  -0.55311
  38        2PX        -0.18784   0.48083   0.00000   0.00000   0.00000
  39        2PY         0.00000   0.00000   0.42802  -0.47337  -0.21808
  40        2PZ         0.00000   0.00000   0.09814  -0.05808   0.33071
  41 9   H  1S          0.00000   0.00000   0.52705   0.51315   0.27617
  42 10  H  1S          0.00000   0.00000   0.52705  -0.51315   0.27617
  43 11  H  1S          0.00000   0.00000   0.52705   0.51315   0.27617
  44 12  H  1S          0.00000   0.00000   0.52705  -0.51315   0.27617
                          36        37        38        39        40
                       (B1U)--V  (B3G)--V  (B1U)--V  (B2U)--V  (B3G)--V
     Eigenvalues --     0.62490   0.69867   0.77180   0.78895   0.85289
   1 1   O  1S         -0.00253   0.00000   0.06490   0.00000   0.00000
   2        2S          0.00390   0.00000  -0.45426   0.00000   0.00000
   3        2PX         0.00000   0.00000   0.00000   0.00000   0.00000
   4        2PY         0.00000   0.16187   0.00000  -0.18296  -0.11006
   5        2PZ        -0.00856   0.00000   0.53735   0.00000   0.00000
   6 2   O  1S          0.00253   0.00000  -0.06490   0.00000   0.00000
   7        2S         -0.00390   0.00000   0.45426   0.00000   0.00000
   8        2PX         0.00000   0.00000   0.00000   0.00000   0.00000
   9        2PY         0.00000  -0.16187   0.00000  -0.18296   0.11006
  10        2PZ        -0.00856   0.00000   0.53735   0.00000   0.00000
  11 3   C  1S          0.09387   0.00000  -0.09758   0.00000   0.00000
  12        2S         -0.56015   0.00000   0.61830   0.00000   0.00000
  13        2PX         0.00000   0.00000   0.00000   0.00000   0.00000
  14        2PY         0.00000  -0.53425   0.00000   0.73718   0.41939
  15        2PZ         0.32204   0.00000   0.43131   0.00000   0.00000
  16 4   C  1S         -0.09387   0.00000   0.09758   0.00000   0.00000
  17        2S          0.56015   0.00000  -0.61830   0.00000   0.00000
  18        2PX         0.00000   0.00000   0.00000   0.00000   0.00000
  19        2PY         0.00000   0.53425   0.00000   0.73718  -0.41939
  20        2PZ         0.32204   0.00000   0.43131   0.00000   0.00000
  21 5   C  1S         -0.10708  -0.13378   0.06771   0.08091   0.02038
  22        2S          0.63941   0.85738  -0.45798  -0.55186  -0.15342
  23        2PX         0.00000   0.00000   0.00000   0.00000   0.00000
  24        2PY        -0.00698   0.05096   0.14808   0.05516   0.61980
  25        2PZ         0.27451  -0.06164   0.39347  -0.38692   0.24868
  26 6   C  1S         -0.10708   0.13378   0.06771  -0.08091  -0.02038
  27        2S          0.63941  -0.85738  -0.45798   0.55186   0.15342
  28        2PX         0.00000   0.00000   0.00000   0.00000   0.00000
  29        2PY         0.00698   0.05096  -0.14808   0.05516   0.61980
  30        2PZ         0.27451   0.06164   0.39347   0.38692  -0.24868
  31 7   C  1S          0.10708   0.13378  -0.06771   0.08091  -0.02038
  32        2S         -0.63941  -0.85738   0.45798  -0.55186   0.15342
  33        2PX         0.00000   0.00000   0.00000   0.00000   0.00000
  34        2PY         0.00698  -0.05096  -0.14808   0.05516  -0.61980
  35        2PZ         0.27451  -0.06164   0.39347   0.38692   0.24868
  36 8   C  1S          0.10708  -0.13378  -0.06771  -0.08091   0.02038
  37        2S         -0.63941   0.85738   0.45798   0.55186  -0.15342
  38        2PX         0.00000   0.00000   0.00000   0.00000   0.00000
  39        2PY        -0.00698  -0.05096   0.14808   0.05516  -0.61980
  40        2PZ         0.27451   0.06164   0.39347  -0.38692  -0.24868
  41 9   H  1S         -0.49405  -0.41730  -0.08788   0.34392  -0.44955
  42 10  H  1S         -0.49405   0.41730  -0.08788  -0.34392   0.44955
  43 11  H  1S          0.49405   0.41730   0.08788   0.34392   0.44955
  44 12  H  1S          0.49405  -0.41730   0.08788  -0.34392  -0.44955
                          41        42        43        44
                       (B1U)--V   (AG)--V  (B3G)--V  (B1U)--V
     Eigenvalues --     0.88729   0.94674   1.04379   1.13614
   1 1   O  1S          0.01198   0.07717   0.00000   0.05029
   2        2S         -0.07949  -0.56922   0.00000  -0.38897
   3        2PX         0.00000   0.00000   0.00000   0.00000
   4        2PY         0.00000   0.00000   0.08526   0.00000
   5        2PZ         0.10336   0.61674   0.00000   0.39496
   6 2   O  1S         -0.01198   0.07717   0.00000  -0.05029
   7        2S          0.07949  -0.56922   0.00000   0.38897
   8        2PX         0.00000   0.00000   0.00000   0.00000
   9        2PY         0.00000   0.00000  -0.08526   0.00000
  10        2PZ         0.10336  -0.61674   0.00000   0.39496
  11 3   C  1S         -0.09058  -0.06332   0.00000  -0.01385
  12        2S          0.61403   0.41363   0.00000   0.09198
  13        2PX         0.00000   0.00000   0.00000   0.00000
  14        2PY         0.00000   0.00000  -0.50401   0.00000
  15        2PZ        -0.17279   0.81929   0.00000   0.71600
  16 4   C  1S          0.09058  -0.06332   0.00000   0.01385
  17        2S         -0.61403   0.41363   0.00000  -0.09198
  18        2PX         0.00000   0.00000   0.00000   0.00000
  19        2PY         0.00000   0.00000   0.50401   0.00000
  20        2PZ        -0.17279  -0.81929   0.00000   0.71600
  21 5   C  1S         -0.04080   0.00735   0.04129  -0.05936
  22        2S          0.31420  -0.05305  -0.35202   0.47838
  23        2PX         0.00000   0.00000   0.00000   0.00000
  24        2PY         0.58699  -0.20562  -0.18484  -0.33630
  25        2PZ        -0.40420  -0.11363   0.80839  -0.54167
  26 6   C  1S         -0.04080   0.00735  -0.04129  -0.05936
  27        2S          0.31420  -0.05305   0.35202   0.47838
  28        2PX         0.00000   0.00000   0.00000   0.00000
  29        2PY        -0.58699   0.20562  -0.18484   0.33630
  30        2PZ        -0.40420  -0.11363  -0.80839  -0.54167
  31 7   C  1S          0.04080   0.00735  -0.04129   0.05936
  32        2S         -0.31420  -0.05305   0.35202  -0.47838
  33        2PX         0.00000   0.00000   0.00000   0.00000
  34        2PY        -0.58699  -0.20562   0.18484   0.33630
  35        2PZ        -0.40420   0.11363   0.80839  -0.54167
  36 8   C  1S          0.04080   0.00735   0.04129   0.05936
  37        2S         -0.31420  -0.05305  -0.35202  -0.47838
  38        2PX         0.00000   0.00000   0.00000   0.00000
  39        2PY         0.58699   0.20562   0.18484  -0.33630
  40        2PZ        -0.40420   0.11363  -0.80839  -0.54167
  41 9   H  1S         -0.32385   0.17334  -0.06506   0.19759
  42 10  H  1S         -0.32385   0.17334   0.06506   0.19759
  43 11  H  1S          0.32385   0.17334   0.06506  -0.19759
  44 12  H  1S          0.32385   0.17334  -0.06506  -0.19759
     Density Matrix:
                           1         2         3         4         5
   1 1   O  1S          2.11099
   2        2S         -0.46695   2.06131
   3        2PX        -0.00000   0.00000   0.95463
   4        2PY        -0.00000   0.00000   0.00000   1.91307
   5        2PZ        -0.09568   0.54857   0.00000  -0.00000   1.00721
   6 2   O  1S          0.00013  -0.00072   0.00000   0.00000   0.00081
   7        2S         -0.00072   0.00323  -0.00000  -0.00000  -0.00477
   8        2PX        -0.00000   0.00000   0.17686   0.00000  -0.00000
   9        2PY        -0.00000   0.00000   0.00000  -0.00665   0.00000
  10        2PZ        -0.00081   0.00477  -0.00000   0.00000  -0.00247
  11 3   C  1S          0.01133  -0.00571   0.00000   0.00000   0.14707
  12        2S         -0.00129  -0.17401  -0.00000  -0.00000  -0.43062
  13        2PX        -0.00000  -0.00000   0.77291   0.00000  -0.00000
  14        2PY        -0.00000  -0.00000   0.00000   0.15890  -0.00000
  15        2PZ        -0.03979  -0.02458  -0.00000  -0.00000  -0.59566
  16 4   C  1S         -0.00006   0.00145   0.00000   0.00000   0.00330
  17        2S          0.00074  -0.00785  -0.00000  -0.00000  -0.01319
  18        2PX        -0.00000  -0.00000  -0.00216   0.00000  -0.00000
  19        2PY        -0.00000  -0.00000   0.00000   0.02698  -0.00000
  20        2PZ        -0.00015  -0.00349  -0.00000  -0.00000  -0.01073
  21 5   C  1S         -0.00260   0.00750  -0.00000   0.05356  -0.02111
  22        2S          0.00679  -0.01173   0.00000  -0.26313   0.08016
  23        2PX         0.00000  -0.00000  -0.08498  -0.00000   0.00000
  24        2PY        -0.00118  -0.00621  -0.00000   0.19638  -0.06427
  25        2PZ         0.01372  -0.04913   0.00000  -0.14045   0.08216
  26 6   C  1S         -0.00260   0.00750  -0.00000  -0.05356  -0.02111
  27        2S          0.00679  -0.01173   0.00000   0.26313   0.08016
  28        2PX         0.00000  -0.00000  -0.08498   0.00000   0.00000
  29        2PY         0.00118   0.00621   0.00000   0.19638   0.06427
  30        2PZ         0.01372  -0.04913   0.00000   0.14045   0.08216
  31 7   C  1S          0.00115  -0.00380   0.00000  -0.01381   0.01301
  32        2S         -0.00231   0.00416  -0.00000   0.06189  -0.04889
  33        2PX        -0.00000   0.00000  -0.23187   0.00000   0.00000
  34        2PY         0.00177  -0.00791   0.00000  -0.00194   0.00392
  35        2PZ        -0.00491   0.01895   0.00000   0.05451  -0.06104
  36 8   C  1S          0.00115  -0.00380   0.00000   0.01381   0.01301
  37        2S         -0.00231   0.00416  -0.00000  -0.06189  -0.04889
  38        2PX        -0.00000   0.00000  -0.23187  -0.00000   0.00000
  39        2PY        -0.00177   0.00791  -0.00000  -0.00194  -0.00392
  40        2PZ        -0.00491   0.01895   0.00000  -0.05451  -0.06104
  41 9   H  1S          0.00151  -0.00522   0.00000   0.01885   0.04751
  42 10  H  1S          0.00151  -0.00522   0.00000  -0.01885   0.04751
  43 11  H  1S          0.00160  -0.00505   0.00000  -0.04906   0.03217
  44 12  H  1S          0.00160  -0.00505   0.00000   0.04906   0.03217
                           6         7         8         9        10
   6 2   O  1S          2.11099
   7        2S         -0.46695   2.06131
   8        2PX         0.00000  -0.00000   0.95463
   9        2PY         0.00000  -0.00000   0.00000   1.91307
  10        2PZ         0.09568  -0.54857   0.00000  -0.00000   1.00721
  11 3   C  1S         -0.00006   0.00145  -0.00000  -0.00000  -0.00330
  12        2S          0.00074  -0.00785   0.00000   0.00000   0.01319
  13        2PX         0.00000   0.00000  -0.00216   0.00000  -0.00000
  14        2PY         0.00000   0.00000   0.00000   0.02698  -0.00000
  15        2PZ         0.00015   0.00349  -0.00000  -0.00000  -0.01073
  16 4   C  1S          0.01133  -0.00571  -0.00000  -0.00000  -0.14707
  17        2S         -0.00129  -0.17401   0.00000   0.00000   0.43062
  18        2PX         0.00000   0.00000   0.77291   0.00000  -0.00000
  19        2PY         0.00000   0.00000   0.00000   0.15890  -0.00000
  20        2PZ         0.03979   0.02458  -0.00000  -0.00000  -0.59566
  21 5   C  1S          0.00115  -0.00380  -0.00000  -0.01381  -0.01301
  22        2S         -0.00231   0.00416   0.00000   0.06189   0.04889
  23        2PX         0.00000  -0.00000  -0.23187  -0.00000   0.00000
  24        2PY         0.00177  -0.00791  -0.00000  -0.00194  -0.00392
  25        2PZ         0.00491  -0.01895   0.00000  -0.05451  -0.06104
  26 6   C  1S          0.00115  -0.00380  -0.00000   0.01381  -0.01301
  27        2S         -0.00231   0.00416   0.00000  -0.06189   0.04889
  28        2PX         0.00000  -0.00000  -0.23187   0.00000   0.00000
  29        2PY        -0.00177   0.00791   0.00000  -0.00194   0.00392
  30        2PZ         0.00491  -0.01895   0.00000   0.05451  -0.06104
  31 7   C  1S         -0.00260   0.00750   0.00000   0.05356   0.02111
  32        2S          0.00679  -0.01173  -0.00000  -0.26313  -0.08016
  33        2PX        -0.00000   0.00000  -0.08498   0.00000   0.00000
  34        2PY        -0.00118  -0.00621   0.00000   0.19638   0.06427
  35        2PZ        -0.01372   0.04913   0.00000   0.14045   0.08216
  36 8   C  1S         -0.00260   0.00750   0.00000  -0.05356   0.02111
  37        2S          0.00679  -0.01173  -0.00000   0.26313  -0.08016
  38        2PX        -0.00000   0.00000  -0.08498  -0.00000   0.00000
  39        2PY         0.00118   0.00621  -0.00000   0.19638  -0.06427
  40        2PZ        -0.01372   0.04913   0.00000  -0.14045   0.08216
  41 9   H  1S          0.00160  -0.00505  -0.00000  -0.04906  -0.03217
  42 10  H  1S          0.00160  -0.00505  -0.00000   0.04906  -0.03217
  43 11  H  1S          0.00151  -0.00522  -0.00000   0.01885  -0.04751
  44 12  H  1S          0.00151  -0.00522  -0.00000  -0.01885  -0.04751
                          11        12        13        14        15
  11 3   C  1S          2.07107
  12        2S         -0.22375   0.85478
  13        2PX         0.00000  -0.00000   0.73272
  14        2PY         0.00000  -0.00000   0.00000   0.61333
  15        2PZ         0.01268  -0.05800  -0.00000  -0.00000   0.56684
  16 4   C  1S         -0.00438   0.01610  -0.00000  -0.00000  -0.01306
  17        2S          0.01610  -0.05888   0.00000   0.00000   0.04983
  18        2PX         0.00000  -0.00000  -0.03967   0.00000   0.00000
  19        2PY         0.00000  -0.00000   0.00000  -0.06473   0.00000
  20        2PZ         0.01306  -0.04983   0.00000   0.00000   0.04079
  21 5   C  1S          0.02065  -0.05539   0.00000  -0.08354   0.04785
  22        2S         -0.05540   0.09250  -0.00000   0.22988  -0.12336
  23        2PX        -0.00000   0.00000   0.12627   0.00000  -0.00000
  24        2PY         0.08948  -0.25980   0.00000  -0.34485   0.20300
  25        2PZ        -0.05298   0.14552  -0.00000   0.19782  -0.11802
  26 6   C  1S          0.02065  -0.05539   0.00000   0.08354   0.04785
  27        2S         -0.05540   0.09250  -0.00000  -0.22988  -0.12336
  28        2PX        -0.00000   0.00000   0.12627  -0.00000  -0.00000
  29        2PY        -0.08948   0.25980  -0.00000  -0.34485  -0.20300
  30        2PZ        -0.05298   0.14552  -0.00000  -0.19782  -0.11802
  31 7   C  1S         -0.00471   0.01635  -0.00000   0.01393  -0.01631
  32        2S          0.01402  -0.04168   0.00000  -0.04415   0.05720
  33        2PX         0.00000  -0.00000  -0.02011  -0.00000   0.00000
  34        2PY        -0.01066   0.04741  -0.00000   0.04267  -0.02087
  35        2PZ         0.02137  -0.08314   0.00000  -0.04933   0.06581
  36 8   C  1S         -0.00471   0.01635  -0.00000  -0.01393  -0.01631
  37        2S          0.01402  -0.04168   0.00000   0.04415   0.05720
  38        2PX         0.00000  -0.00000  -0.02011   0.00000   0.00000
  39        2PY         0.01066  -0.04741   0.00000   0.04267   0.02087
  40        2PZ         0.02137  -0.08314   0.00000   0.04933   0.06581
  41 9   H  1S          0.02459  -0.09722   0.00000  -0.13036   0.03074
  42 10  H  1S          0.02459  -0.09722   0.00000   0.13036   0.03074
  43 11  H  1S         -0.01831   0.07452  -0.00000   0.08378  -0.05140
  44 12  H  1S         -0.01831   0.07452  -0.00000  -0.08378  -0.05140
                          16        17        18        19        20
  16 4   C  1S          2.07107
  17        2S         -0.22375   0.85478
  18        2PX        -0.00000   0.00000   0.73272
  19        2PY        -0.00000   0.00000   0.00000   0.61333
  20        2PZ        -0.01268   0.05800  -0.00000  -0.00000   0.56684
  21 5   C  1S         -0.00471   0.01635   0.00000   0.01393   0.01631
  22        2S          0.01402  -0.04168  -0.00000  -0.04415  -0.05720
  23        2PX        -0.00000   0.00000  -0.02011   0.00000   0.00000
  24        2PY        -0.01066   0.04741   0.00000   0.04267   0.02087
  25        2PZ        -0.02137   0.08314   0.00000   0.04933   0.06581
  26 6   C  1S         -0.00471   0.01635   0.00000  -0.01393   0.01631
  27        2S          0.01402  -0.04168  -0.00000   0.04415  -0.05720
  28        2PX        -0.00000   0.00000  -0.02011  -0.00000   0.00000
  29        2PY         0.01066  -0.04741  -0.00000   0.04267  -0.02087
  30        2PZ        -0.02137   0.08314   0.00000  -0.04933   0.06581
  31 7   C  1S          0.02065  -0.05539  -0.00000  -0.08354  -0.04785
  32        2S         -0.05540   0.09250   0.00000   0.22988   0.12336
  33        2PX         0.00000  -0.00000   0.12627  -0.00000  -0.00000
  34        2PY         0.08948  -0.25980  -0.00000  -0.34485  -0.20300
  35        2PZ         0.05298  -0.14552  -0.00000  -0.19782  -0.11802
  36 8   C  1S          0.02065  -0.05539  -0.00000   0.08354  -0.04785
  37        2S         -0.05540   0.09250   0.00000  -0.22988   0.12336
  38        2PX         0.00000  -0.00000   0.12627   0.00000  -0.00000
  39        2PY        -0.08948   0.25980   0.00000  -0.34485   0.20300
  40        2PZ         0.05298  -0.14552  -0.00000   0.19782  -0.11802
  41 9   H  1S         -0.01831   0.07452   0.00000   0.08378   0.05140
  42 10  H  1S         -0.01831   0.07452   0.00000  -0.08378   0.05140
  43 11  H  1S          0.02459  -0.09722  -0.00000  -0.13036  -0.03074
  44 12  H  1S          0.02459  -0.09722  -0.00000   0.13036  -0.03074
                          21        22        23        24        25
  21 5   C  1S          2.07145
  22        2S         -0.21847   0.83730
  23        2PX        -0.00000   0.00000   0.78044
  24        2PY         0.00056  -0.00884   0.00000   0.63239
  25        2PZ        -0.00321   0.04841  -0.00000   0.00931   0.61353
  26 6   C  1S         -0.00641   0.02495   0.00000  -0.03039   0.00681
  27        2S          0.02495  -0.09195  -0.00000   0.12547  -0.02871
  28        2PX         0.00000  -0.00000  -0.04691   0.00000   0.00000
  29        2PY         0.03039  -0.12547  -0.00000   0.13571  -0.04900
  30        2PZ         0.00681  -0.02871   0.00000   0.04900  -0.00823
  31 7   C  1S          0.02743  -0.06921   0.00000   0.00171   0.11829
  32        2S         -0.06921   0.09126  -0.00000  -0.00628  -0.29151
  33        2PX        -0.00000   0.00000   0.75270   0.00000  -0.00000
  34        2PY         0.00171  -0.00628  -0.00000   0.01384  -0.00157
  35        2PZ        -0.11829   0.29151  -0.00000   0.00157  -0.45261
  36 8   C  1S         -0.00218   0.00548  -0.00000  -0.00617  -0.00267
  37        2S          0.00548  -0.01048   0.00000   0.01855   0.00762
  38        2PX         0.00000  -0.00000  -0.07465   0.00000   0.00000
  39        2PY         0.00617  -0.01855   0.00000   0.01391   0.01805
  40        2PZ         0.00267  -0.00762   0.00000   0.01805  -0.00844
  41 9   H  1S         -0.10699   0.28352   0.00000   0.47888   0.27917
  42 10  H  1S         -0.01610   0.06458   0.00000  -0.07862   0.03685
  43 11  H  1S          0.02626  -0.08537   0.00000  -0.06541   0.09870
  44 12  H  1S          0.00131  -0.00870  -0.00000   0.01092  -0.01047
                          26        27        28        29        30
  26 6   C  1S          2.07145
  27        2S         -0.21847   0.83730
  28        2PX        -0.00000   0.00000   0.78044
  29        2PY        -0.00056   0.00884  -0.00000   0.63239
  30        2PZ        -0.00321   0.04841  -0.00000  -0.00931   0.61353
  31 7   C  1S         -0.00218   0.00548  -0.00000   0.00617  -0.00267
  32        2S          0.00548  -0.01048   0.00000  -0.01855   0.00762
  33        2PX         0.00000  -0.00000  -0.07465  -0.00000   0.00000
  34        2PY        -0.00617   0.01855  -0.00000   0.01391  -0.01805
  35        2PZ         0.00267  -0.00762   0.00000  -0.01805  -0.00844
  36 8   C  1S          0.02743  -0.06921   0.00000  -0.00171   0.11829
  37        2S         -0.06921   0.09126  -0.00000   0.00628  -0.29151
  38        2PX        -0.00000   0.00000   0.75270  -0.00000  -0.00000
  39        2PY        -0.00171   0.00628   0.00000   0.01384   0.00157
  40        2PZ        -0.11829   0.29151  -0.00000  -0.00157  -0.45261
  41 9   H  1S         -0.01610   0.06458   0.00000   0.07862   0.03685
  42 10  H  1S         -0.10699   0.28352   0.00000  -0.47888   0.27917
  43 11  H  1S          0.00131  -0.00870  -0.00000  -0.01092  -0.01047
  44 12  H  1S          0.02626  -0.08537   0.00000   0.06541   0.09870
                          31        32        33        34        35
  31 7   C  1S          2.07145
  32        2S         -0.21847   0.83730
  33        2PX         0.00000  -0.00000   0.78044
  34        2PY         0.00056  -0.00884  -0.00000   0.63239
  35        2PZ         0.00321  -0.04841  -0.00000  -0.00931   0.61353
  36 8   C  1S         -0.00641   0.02495  -0.00000  -0.03039  -0.00681
  37        2S          0.02495  -0.09195   0.00000   0.12547   0.02871
  38        2PX        -0.00000   0.00000  -0.04691  -0.00000   0.00000
  39        2PY         0.03039  -0.12547   0.00000   0.13571   0.04900
  40        2PZ        -0.00681   0.02871   0.00000  -0.04900  -0.00823
  41 9   H  1S          0.02626  -0.08537  -0.00000  -0.06541  -0.09870
  42 10  H  1S          0.00131  -0.00870   0.00000   0.01092   0.01047
  43 11  H  1S         -0.10699   0.28352  -0.00000   0.47888  -0.27917
  44 12  H  1S         -0.01610   0.06458  -0.00000  -0.07862  -0.03685
                          36        37        38        39        40
  36 8   C  1S          2.07145
  37        2S         -0.21847   0.83730
  38        2PX         0.00000  -0.00000   0.78044
  39        2PY        -0.00056   0.00884   0.00000   0.63239
  40        2PZ         0.00321  -0.04841  -0.00000   0.00931   0.61353
  41 9   H  1S          0.00131  -0.00870   0.00000  -0.01092   0.01047
  42 10  H  1S          0.02626  -0.08537  -0.00000   0.06541  -0.09870
  43 11  H  1S         -0.01610   0.06458  -0.00000   0.07862  -0.03685
  44 12  H  1S         -0.10699   0.28352  -0.00000  -0.47888  -0.27917
                          41        42        43        44
  41 9   H  1S          0.58345
  42 10  H  1S         -0.04424   0.58345
  43 11  H  1S         -0.08563   0.01973   0.58345
  44 12  H  1S          0.01973  -0.08563  -0.04424   0.58345
    Full Mulliken population analysis:
                           1         2         3         4         5
   1 1   O  1S          2.11099
   2        2S         -0.11053   2.06131
   3        2PX         0.00000   0.00000   0.95463
   4        2PY         0.00000   0.00000   0.00000   1.91307
   5        2PZ         0.00000   0.00000   0.00000   0.00000   1.00721
   6 2   O  1S          0.00000  -0.00000  -0.00000  -0.00000  -0.00000
   7        2S         -0.00000   0.00000   0.00000   0.00000   0.00000
   8        2PX         0.00000   0.00000   0.00000   0.00000   0.00000
   9        2PY        -0.00000   0.00000   0.00000  -0.00000  -0.00000
  10        2PZ        -0.00000   0.00000   0.00000  -0.00000   0.00000
  11 3   C  1S          0.00000  -0.00019  -0.00000  -0.00000  -0.00834
  12        2S         -0.00005  -0.06105   0.00000   0.00000   0.13531
  13        2PX        -0.00000  -0.00000   0.15514   0.00000   0.00000
  14        2PY        -0.00000  -0.00000   0.00000   0.03189   0.00000
  15        2PZ        -0.00233  -0.01060   0.00000   0.00000   0.18633
  16 4   C  1S          0.00000   0.00000  -0.00000  -0.00000  -0.00000
  17        2S          0.00000  -0.00000   0.00000   0.00000   0.00000
  18        2PX         0.00000   0.00000  -0.00000   0.00000   0.00000
  19        2PY        -0.00000  -0.00000   0.00000   0.00000   0.00000
  20        2PZ        -0.00000  -0.00000   0.00000   0.00000   0.00000
  21 5   C  1S         -0.00000   0.00000   0.00000   0.00001   0.00001
  22        2S          0.00001  -0.00039   0.00000  -0.00625  -0.00306
  23        2PX         0.00000  -0.00000  -0.00106   0.00000  -0.00000
  24        2PY         0.00000   0.00018   0.00000  -0.00209  -0.00240
  25        2PZ         0.00003  -0.00235   0.00000  -0.00523  -0.00390
  26 6   C  1S         -0.00000   0.00000   0.00000   0.00001   0.00001
  27        2S          0.00001  -0.00039  -0.00000  -0.00625  -0.00306
  28        2PX         0.00000  -0.00000  -0.00106  -0.00000  -0.00000
  29        2PY         0.00000   0.00018  -0.00000  -0.00209  -0.00240
  30        2PZ         0.00003  -0.00235  -0.00000  -0.00523  -0.00390
  31 7   C  1S          0.00000  -0.00000  -0.00000  -0.00000  -0.00000
  32        2S         -0.00000   0.00000   0.00000   0.00003   0.00006
  33        2PX         0.00000   0.00000  -0.00006   0.00000   0.00000
  34        2PY        -0.00000   0.00000   0.00000   0.00000   0.00000
  35        2PZ        -0.00000   0.00003   0.00000   0.00006   0.00016
  36 8   C  1S          0.00000  -0.00000  -0.00000  -0.00000  -0.00000
  37        2S         -0.00000   0.00000   0.00000   0.00003   0.00006
  38        2PX         0.00000   0.00000  -0.00006   0.00000   0.00000
  39        2PY        -0.00000   0.00000   0.00000   0.00000   0.00000
  40        2PZ        -0.00000   0.00003   0.00000   0.00006   0.00016
  41 9   H  1S          0.00000  -0.00010  -0.00000   0.00039  -0.00064
  42 10  H  1S          0.00000  -0.00010  -0.00000   0.00039  -0.00064
  43 11  H  1S          0.00000  -0.00000  -0.00000  -0.00000  -0.00000
  44 12  H  1S          0.00000  -0.00000  -0.00000  -0.00000  -0.00000
                           6         7         8         9        10
   6 2   O  1S          2.11099
   7        2S         -0.11053   2.06131
   8        2PX         0.00000   0.00000   0.95463
   9        2PY         0.00000   0.00000   0.00000   1.91307
  10        2PZ         0.00000   0.00000   0.00000   0.00000   1.00721
  11 3   C  1S          0.00000   0.00000   0.00000  -0.00000  -0.00000
  12        2S          0.00000  -0.00000   0.00000   0.00000   0.00000
  13        2PX        -0.00000  -0.00000  -0.00000   0.00000   0.00000
  14        2PY        -0.00000  -0.00000   0.00000   0.00000   0.00000
  15        2PZ        -0.00000  -0.00000   0.00000   0.00000   0.00000
  16 4   C  1S          0.00000  -0.00019   0.00000  -0.00000  -0.00834
  17        2S         -0.00005  -0.06105   0.00000   0.00000   0.13531
  18        2PX         0.00000   0.00000   0.15514   0.00000   0.00000
  19        2PY        -0.00000  -0.00000   0.00000   0.03189   0.00000
  20        2PZ        -0.00233  -0.01060   0.00000   0.00000   0.18633
  21 5   C  1S          0.00000  -0.00000   0.00000  -0.00000  -0.00000
  22        2S         -0.00000   0.00000   0.00000   0.00003   0.00006
  23        2PX        -0.00000   0.00000  -0.00006   0.00000  -0.00000
  24        2PY        -0.00000   0.00000   0.00000   0.00000   0.00000
  25        2PZ        -0.00000   0.00003   0.00000   0.00006   0.00016
  26 6   C  1S          0.00000  -0.00000   0.00000  -0.00000  -0.00000
  27        2S         -0.00000   0.00000   0.00000   0.00003   0.00006
  28        2PX        -0.00000   0.00000  -0.00006   0.00000  -0.00000
  29        2PY        -0.00000   0.00000   0.00000   0.00000   0.00000
  30        2PZ        -0.00000   0.00003  -0.00000   0.00006   0.00016
  31 7   C  1S         -0.00000   0.00000   0.00000   0.00001   0.00001
  32        2S          0.00001  -0.00039   0.00000  -0.00625  -0.00306
  33        2PX         0.00000   0.00000  -0.00106   0.00000   0.00000
  34        2PY         0.00000   0.00018   0.00000  -0.00209  -0.00240
  35        2PZ         0.00003  -0.00235   0.00000  -0.00523  -0.00390
  36 8   C  1S         -0.00000   0.00000   0.00000   0.00001   0.00001
  37        2S          0.00001  -0.00039   0.00000  -0.00625  -0.00306
  38        2PX         0.00000   0.00000  -0.00106   0.00000   0.00000
  39        2PY         0.00000   0.00018   0.00000  -0.00209  -0.00240
  40        2PZ         0.00003  -0.00235   0.00000  -0.00523  -0.00390
  41 9   H  1S          0.00000  -0.00000   0.00000  -0.00000  -0.00000
  42 10  H  1S          0.00000  -0.00000   0.00000  -0.00000  -0.00000
  43 11  H  1S          0.00000  -0.00010   0.00000   0.00039  -0.00064
  44 12  H  1S          0.00000  -0.00010   0.00000   0.00039  -0.00064
                          11        12        13        14        15
  11 3   C  1S          2.07107
  12        2S         -0.05557   0.85478
  13        2PX         0.00000   0.00000   0.73272
  14        2PY         0.00000   0.00000   0.00000   0.61333
  15        2PZ         0.00000   0.00000  -0.00000   0.00000   0.56684
  16 4   C  1S          0.00000   0.00000   0.00000   0.00000   0.00001
  17        2S          0.00000  -0.00117  -0.00000  -0.00000  -0.00164
  18        2PX         0.00000  -0.00000  -0.00030   0.00000  -0.00000
  19        2PY         0.00000  -0.00000   0.00000  -0.00049  -0.00000
  20        2PZ         0.00001  -0.00164  -0.00000  -0.00000  -0.00206
  21 5   C  1S          0.00000  -0.00171  -0.00000  -0.00365  -0.00131
  22        2S         -0.00171   0.03017   0.00000   0.06995   0.02345
  23        2PX        -0.00000   0.00000   0.02325  -0.00000   0.00000
  24        2PY        -0.00391   0.07905  -0.00000   0.06205   0.04617
  25        2PZ        -0.00145   0.02766   0.00000   0.04499  -0.00496
  26 6   C  1S          0.00000  -0.00171  -0.00000  -0.00365  -0.00131
  27        2S         -0.00171   0.03017   0.00000   0.06995   0.02345
  28        2PX        -0.00000   0.00000   0.02325   0.00000   0.00000
  29        2PY        -0.00391   0.07905   0.00000   0.06205   0.04617
  30        2PZ        -0.00145   0.02766   0.00000   0.04499  -0.00496
  31 7   C  1S         -0.00000   0.00003   0.00000   0.00003   0.00005
  32        2S          0.00002  -0.00230   0.00000  -0.00185  -0.00405
  33        2PX         0.00000   0.00000  -0.00046   0.00000   0.00000
  34        2PY         0.00002  -0.00198   0.00000  -0.00051  -0.00123
  35        2PZ         0.00007  -0.00588   0.00000  -0.00291  -0.00506
  36 8   C  1S         -0.00000   0.00003   0.00000   0.00003   0.00005
  37        2S          0.00002  -0.00230   0.00000  -0.00185  -0.00405
  38        2PX         0.00000   0.00000  -0.00046   0.00000   0.00000
  39        2PY         0.00002  -0.00198   0.00000  -0.00051  -0.00123
  40        2PZ         0.00007  -0.00588   0.00000  -0.00291  -0.00506
  41 9   H  1S          0.00012  -0.00879   0.00000  -0.01528  -0.00032
  42 10  H  1S          0.00012  -0.00879  -0.00000  -0.01528  -0.00032
  43 11  H  1S         -0.00000   0.00040   0.00000   0.00048   0.00036
  44 12  H  1S         -0.00000   0.00040   0.00000   0.00048   0.00036
                          16        17        18        19        20
  16 4   C  1S          2.07107
  17        2S         -0.05557   0.85478
  18        2PX         0.00000   0.00000   0.73272
  19        2PY         0.00000   0.00000   0.00000   0.61333
  20        2PZ         0.00000   0.00000   0.00000   0.00000   0.56684
  21 5   C  1S         -0.00000   0.00003   0.00000   0.00003   0.00005
  22        2S          0.00002  -0.00230   0.00000  -0.00185  -0.00405
  23        2PX         0.00000  -0.00000  -0.00046  -0.00000  -0.00000
  24        2PY         0.00002  -0.00198   0.00000  -0.00051  -0.00123
  25        2PZ         0.00007  -0.00588   0.00000  -0.00291  -0.00506
  26 6   C  1S         -0.00000   0.00003   0.00000   0.00003   0.00005
  27        2S          0.00002  -0.00230  -0.00000  -0.00185  -0.00405
  28        2PX         0.00000  -0.00000  -0.00046  -0.00000  -0.00000
  29        2PY         0.00002  -0.00198  -0.00000  -0.00051  -0.00123
  30        2PZ         0.00007  -0.00588  -0.00000  -0.00291  -0.00506
  31 7   C  1S          0.00000  -0.00171   0.00000  -0.00365  -0.00131
  32        2S         -0.00171   0.03017   0.00000   0.06995   0.02345
  33        2PX         0.00000   0.00000   0.02325   0.00000   0.00000
  34        2PY        -0.00391   0.07905   0.00000   0.06205   0.04617
  35        2PZ        -0.00145   0.02766   0.00000   0.04499  -0.00496
  36 8   C  1S          0.00000  -0.00171   0.00000  -0.00365  -0.00131
  37        2S         -0.00171   0.03017   0.00000   0.06995   0.02345
  38        2PX         0.00000   0.00000   0.02325   0.00000   0.00000
  39        2PY        -0.00391   0.07905   0.00000   0.06205   0.04617
  40        2PZ        -0.00145   0.02766   0.00000   0.04499  -0.00496
  41 9   H  1S         -0.00000   0.00040   0.00000   0.00048   0.00036
  42 10  H  1S         -0.00000   0.00040   0.00000   0.00048   0.00036
  43 11  H  1S          0.00012  -0.00879   0.00000  -0.01528  -0.00032
  44 12  H  1S          0.00012  -0.00879   0.00000  -0.01528  -0.00032
                          21        22        23        24        25
  21 5   C  1S          2.07145
  22        2S         -0.05426   0.83730
  23        2PX         0.00000   0.00000   0.78044
  24        2PY         0.00000   0.00000   0.00000   0.63239
  25        2PZ         0.00000   0.00000  -0.00000   0.00000   0.61353
  26 6   C  1S         -0.00000   0.00003   0.00000   0.00009   0.00000
  27        2S          0.00003  -0.00461   0.00000  -0.00946  -0.00000
  28        2PX         0.00000   0.00000  -0.00096   0.00000   0.00000
  29        2PY         0.00009  -0.00946   0.00000  -0.01411  -0.00000
  30        2PZ        -0.00000   0.00000   0.00000   0.00000  -0.00017
  31 7   C  1S          0.00000  -0.00301  -0.00000  -0.00000  -0.00853
  32        2S         -0.00301   0.03617   0.00000   0.00000   0.11951
  33        2PX         0.00000   0.00000   0.17919   0.00000  -0.00000
  34        2PY         0.00000  -0.00000   0.00000   0.00329   0.00000
  35        2PZ        -0.00853   0.11951   0.00000  -0.00000   0.14849
  36 8   C  1S          0.00000   0.00000   0.00000   0.00000   0.00000
  37        2S          0.00000  -0.00024  -0.00000  -0.00062  -0.00014
  38        2PX         0.00000   0.00000  -0.00066   0.00000   0.00000
  39        2PY         0.00000  -0.00062  -0.00000  -0.00059  -0.00049
  40        2PZ         0.00000  -0.00014   0.00000  -0.00049   0.00005
  41 9   H  1S         -0.00647   0.13706   0.00000   0.18742   0.06899
  42 10  H  1S         -0.00000   0.00034   0.00000   0.00069   0.00006
  43 11  H  1S          0.00015  -0.00854  -0.00000  -0.00366  -0.01142
  44 12  H  1S          0.00000  -0.00001   0.00000  -0.00003   0.00001
                          26        27        28        29        30
  26 6   C  1S          2.07145
  27        2S         -0.05426   0.83730
  28        2PX         0.00000   0.00000   0.78044
  29        2PY         0.00000   0.00000   0.00000   0.63239
  30        2PZ         0.00000   0.00000   0.00000   0.00000   0.61353
  31 7   C  1S          0.00000   0.00000   0.00000   0.00000   0.00000
  32        2S          0.00000  -0.00024  -0.00000  -0.00062  -0.00014
  33        2PX         0.00000  -0.00000  -0.00066  -0.00000  -0.00000
  34        2PY         0.00000  -0.00062  -0.00000  -0.00059  -0.00049
  35        2PZ         0.00000  -0.00014  -0.00000  -0.00049   0.00005
  36 8   C  1S          0.00000  -0.00301  -0.00000   0.00000  -0.00853
  37        2S         -0.00301   0.03617   0.00000   0.00000   0.11951
  38        2PX         0.00000   0.00000   0.17919   0.00000   0.00000
  39        2PY         0.00000   0.00000   0.00000   0.00329   0.00000
  40        2PZ        -0.00853   0.11951   0.00000   0.00000   0.14849
  41 9   H  1S         -0.00000   0.00034   0.00000   0.00069   0.00006
  42 10  H  1S         -0.00647   0.13706   0.00000   0.18742   0.06899
  43 11  H  1S          0.00000  -0.00001   0.00000  -0.00003   0.00001
  44 12  H  1S          0.00015  -0.00854  -0.00000  -0.00366  -0.01142
                          31        32        33        34        35
  31 7   C  1S          2.07145
  32        2S         -0.05426   0.83730
  33        2PX         0.00000   0.00000   0.78044
  34        2PY         0.00000   0.00000   0.00000   0.63239
  35        2PZ         0.00000   0.00000   0.00000   0.00000   0.61353
  36 8   C  1S         -0.00000   0.00003   0.00000   0.00009  -0.00000
  37        2S          0.00003  -0.00461   0.00000  -0.00946   0.00000
  38        2PX         0.00000   0.00000  -0.00096   0.00000   0.00000
  39        2PY         0.00009  -0.00946   0.00000  -0.01411   0.00000
  40        2PZ        -0.00000   0.00000   0.00000   0.00000  -0.00017
  41 9   H  1S          0.00015  -0.00854   0.00000  -0.00366  -0.01142
  42 10  H  1S          0.00000  -0.00001   0.00000  -0.00003   0.00001
  43 11  H  1S         -0.00647   0.13706   0.00000   0.18742   0.06899
  44 12  H  1S         -0.00000   0.00034   0.00000   0.00069   0.00006
                          36        37        38        39        40
  36 8   C  1S          2.07145
  37        2S         -0.05426   0.83730
  38        2PX         0.00000   0.00000   0.78044
  39        2PY         0.00000   0.00000   0.00000   0.63239
  40        2PZ         0.00000   0.00000   0.00000   0.00000   0.61353
  41 9   H  1S          0.00000  -0.00001   0.00000  -0.00003   0.00001
  42 10  H  1S          0.00015  -0.00854   0.00000  -0.00366  -0.01142
  43 11  H  1S         -0.00000   0.00034   0.00000   0.00069   0.00006
  44 12  H  1S         -0.00647   0.13706   0.00000   0.18742   0.06899
                          41        42        43        44
  41 9   H  1S          0.58345
  42 10  H  1S         -0.00003   0.58345
  43 11  H  1S         -0.00412   0.00000   0.58345
  44 12  H  1S          0.00000  -0.00412  -0.00003   0.58345
     Gross orbital populations:
                           1
   1 1   O  1S          1.99818
   2        2S          1.87370
   3        2PX         1.10753
   4        2PY         1.91880
   5        2PZ         1.30100
   6 2   O  1S          1.99818
   7        2S          1.87370
   8        2PX         1.10753
   9        2PY         1.91880
  10        2PZ         1.30100
  11 3   C  1S          1.99330
  12        2S          1.10392
  13        2PX         0.93314
  14        2PY         0.95132
  15        2PZ         0.84277
  16 4   C  1S          1.99330
  17        2S          1.10392
  18        2PX         0.93314
  19        2PY         0.95132
  20        2PZ         0.84277
  21 5   C  1S          1.99293
  22        2S          1.15362
  23        2PX         0.97967
  24        2PY         0.97029
  25        2PZ         0.97116
  26 6   C  1S          1.99293
  27        2S          1.15362
  28        2PX         0.97967
  29        2PY         0.97029
  30        2PZ         0.97116
  31 7   C  1S          1.99293
  32        2S          1.15362
  33        2PX         0.97967
  34        2PY         0.97029
  35        2PZ         0.97116
  36 8   C  1S          1.99293
  37        2S          1.15362
  38        2PX         0.97967
  39        2PY         0.97029
  40        2PZ         0.97116
  41 9   H  1S          0.92050
  42 10  H  1S          0.92050
  43 11  H  1S          0.92050
  44 12  H  1S          0.92050
          Condensed to atoms (all electrons):
               1          2          3          4          5          6
     1  O    7.826152   0.000000   0.426116   0.000006  -0.026478  -0.026478
     2  O    0.000000   7.826152   0.000006   0.426116   0.000305   0.000305
     3  C    0.426116   0.000006   4.727602  -0.007259   0.388039   0.388039
     4  C    0.000006   0.426116  -0.007259   4.727602  -0.026017  -0.026017
     5  C   -0.026478   0.000305   0.388039  -0.026017   4.826586  -0.038524
     6  C   -0.026478   0.000305   0.388039  -0.026017  -0.038524   4.826586
     7  C    0.000305  -0.026478  -0.026017   0.388039   0.583100  -0.003919
     8  C    0.000305  -0.026478  -0.026017   0.388039  -0.003919   0.583100
     9  H   -0.000354  -0.000006  -0.024271   0.001242   0.386995   0.001084
    10  H   -0.000354  -0.000006  -0.024271   0.001242   0.001084   0.386995
    11  H   -0.000006  -0.000354   0.001242  -0.024271  -0.023473  -0.000026
    12  H   -0.000006  -0.000354   0.001242  -0.024271  -0.000026  -0.023473
               7          8          9         10         11         12
     1  O    0.000305   0.000305  -0.000354  -0.000354  -0.000006  -0.000006
     2  O   -0.026478  -0.026478  -0.000006  -0.000006  -0.000354  -0.000354
     3  C   -0.026017  -0.026017  -0.024271  -0.024271   0.001242   0.001242
     4  C    0.388039   0.388039   0.001242   0.001242  -0.024271  -0.024271
     5  C    0.583100  -0.003919   0.386995   0.001084  -0.023473  -0.000026
     6  C   -0.003919   0.583100   0.001084   0.386995  -0.000026  -0.023473
     7  C    4.826586  -0.038524  -0.023473  -0.000026   0.386995   0.001084
     8  C   -0.038524   4.826586  -0.000026  -0.023473   0.001084   0.386995
     9  H   -0.023473  -0.000026   0.583453  -0.000029  -0.004117   0.000002
    10  H   -0.000026  -0.023473  -0.000029   0.583453   0.000002  -0.004117
    11  H    0.386995   0.001084  -0.004117   0.000002   0.583453  -0.000029
    12  H    0.001084   0.386995   0.000002  -0.004117  -0.000029   0.583453
 Mulliken charges:
               1
     1  O   -0.199208
     2  O   -0.199208
     3  C    0.175548
     4  C    0.175548
     5  C   -0.067671
     6  C   -0.067671
     7  C   -0.067671
     8  C   -0.067671
     9  H    0.079501
    10  H    0.079501
    11  H    0.079501
    12  H    0.079501
 Sum of Mulliken charges =   0.00000
 Mulliken charges with hydrogens summed into heavy atoms:
               1
     1  O   -0.199208
     2  O   -0.199208
     3  C    0.175548
     4  C    0.175548
     5  C    0.011830
     6  C    0.011830
     7  C    0.011830
     8  C    0.011830
 Electronic spatial extent (au):  <R**2>=            865.3785
 Charge=              0.0000 electrons
 Dipole moment (field-independent basis, Debye):
    X=             -0.0000    Y=             -0.0000    Z=             -0.0000  Tot=              0.0000
 Quadrupole moment (field-independent basis, Debye-Ang):
   XX=            -40.6623   YY=            -37.4694   ZZ=            -53.2662
   XY=              0.0000   XZ=              0.0000   YZ=              0.0000
 Traceless Quadrupole moment (field-independent basis, Debye-Ang):
   XX=              3.1370   YY=              6.3299   ZZ=             -9.4669
   XY=              0.0000   XZ=              0.0000   YZ=              0.0000
 Octapole moment (field-independent basis, Debye-Ang**2):
  XXX=             -0.0000  YYY=             -0.0000  ZZZ=             -0.0000  XYY=             -0.0000
  XXY=             -0.0000  XXZ=              0.0000  XZZ=             -0.0000  YZZ=             -0.0000
  YYZ=             -0.0000  XYZ=             -0.0000
 Hexadecapole moment (field-independent basis, Debye-Ang**3):
 XXXX=            -29.9077 YYYY=           -271.6440 ZZZZ=           -765.5484 XXXY=             -0.0000
 XXXZ=              0.0000 YYYX=             -0.0000 YYYZ=              0.0000 ZZZX=              0.0000
 ZZZY=              0.0000 XXYY=            -57.4382 XXZZ=           -102.2140 YYZZ=           -143.4020
 XXYZ=             -0.0000 YYXZ=              0.0000 ZZXY=             -0.0000
 N-N= 3.216256687281D+02 E-N=-1.521902355048D+03  KE= 3.710581944960D+02
 Symmetry AG   KE= 1.376525443933D+02
 Symmetry B1G  KE= 2.609480506570D+00
 Symmetry B2G  KE= 3.356971928273D+00
 Symmetry B3G  KE= 4.157209679846D+01
 Symmetry AU   KE=-2.415764515946D-16
 Symmetry B1U  KE= 1.353939244550D+02
 Symmetry B2U  KE= 4.422004899410D+01
 Symmetry B3U  KE= 6.253127420270D+00
 Orbital energies and kinetic energies (alpha):
                                 1                 2
   1         (B1U)--O        -20.295692         28.665634
   2         (AG)--O         -20.295689         28.665844
   3         (B1U)--O        -11.137565         15.647516
   4         (AG)--O         -11.137524         15.648808
   5         (B2U)--O        -11.059424         15.648324
   6         (AG)--O         -11.059300         15.651769
   7         (B3G)--O        -11.058626         15.629598
   8         (B1U)--O        -11.058620         15.629458
   9         (AG)--O          -1.333307          2.362644
  10         (B1U)--O         -1.330686          2.395581
  11         (AG)--O          -1.082084          1.498350
  12         (B2U)--O         -0.997054          1.537735
  13         (B1U)--O         -0.887635          1.791913
  14         (B3G)--O         -0.796113          1.296731
  15         (AG)--O          -0.753318          1.491910
  16         (B2U)--O         -0.634822          1.393942
  17         (AG)--O          -0.629427          1.570399
  18         (B1U)--O         -0.598294          1.580455
  19         (B2U)--O         -0.566771          1.118196
  20         (B1U)--O         -0.527279          1.986405
  21         (B3U)--O         -0.521906          1.283700
  22         (B3G)--O         -0.503991          1.620884
  23         (AG)--O          -0.495068          1.936547
  24         (B2G)--O         -0.456134          1.678486
  25         (B2U)--O         -0.362021          2.411828
  26         (B1G)--O         -0.344265          1.304740
  27         (B3G)--O         -0.333849          2.238835
  28         (B3U)--O         -0.295094          1.842864
  29         (B2G)--V          0.132733          2.102935
  30         (AU)--V           0.282200          1.847993
  31         (B3U)--V          0.325166          2.395663
  32         (B2G)--V          0.482183          2.355346
  33         (AG)--V           0.569400          2.366988
  34         (B2U)--V          0.575426          2.147896
  35         (AG)--V           0.611048          3.141926
  36         (B1U)--V          0.624905          2.865147
  37         (B3G)--V          0.698666          3.198418
  38         (B1U)--V          0.771804          3.770539
  39         (B2U)--V          0.788946          3.057479
  40         (B3G)--V          0.852893          2.780368
  41         (B1U)--V          0.887291          3.150468
  42         (AG)--V           0.946739          3.981697
  43         (B3G)--V          1.043793          3.420423
  44         (B1U)--V          1.136145          3.934587
 Total kinetic energy from orbitals= 3.710581944960D+02
 1\1\GINC-GTX1080DELTA\SP\RHF\STO-3G\C6H4O2\MVEROT\11-Apr-2022\0\\#n SP
  pop=full gfinput\\UV-spectra\\0,1\O,0,2.6884949,0.,0.\O,0,-2.6884949,
 0.,0.\C,0,1.4529083,0.,0.\C,0,-1.4529083,0.,0.\C,0,0.6690595,0.,-1.254
 776\C,0,0.6690595,0.,1.254776\C,0,-0.6690595,0.,-1.254776\C,0,-0.66905
 95,0.,1.254776\H,0,1.2578352,0.,-2.18723\H,0,1.2578352,0.,2.18723\H,0,
 -1.2578352,0.,-2.18723\H,0,-1.2578352,0.,2.18723\\Version=AM64L-G09Rev
 D.01\State=1-AG\HF=-374.3479685\RMSD=1.281e-09\Dipole=0.,0.,0.\Quadrup
 ole=-7.0384052,2.3323003,4.706105,0.,0.,0.\PG=D02H [C2"(O1C1.C1O1),SG(
 C4H4)]\\@


 IF THERE IS ONE WAY BETTER THAN ANOTHER IT IS THE WAY OF NATURE.

                          -- ARISTOTLE
 Job cpu time:       0 days  0 hours  0 minutes  1.4 seconds.
 File lengths (MBytes):  RWF=     67 Int=      0 D2E=      0 Chk=      2 Scr=      2
 Normal termination of Gaussian 09 at Mon Apr 11 20:40:59 2022.
