 Entering Gaussian System, Link 0=g09
 Input=/scratch/mverot/1-but-ene-opt/1-but-ene-opt.com
 Output=/scratch/mverot/1-but-ene-opt/1-but-ene-opt.log
 Initial command:
 /opt/g09/l1.exe "/scratch/mverot/1-but-ene-opt/Gau-747398.inp" -scrdir="/scratch/mverot/1-but-ene-opt/"
 Entering Link 1 = /opt/g09/l1.exe PID=    747400.
  
 Copyright (c) 1988,1990,1992,1993,1995,1998,2003,2009,2013,
            Gaussian, Inc.  All Rights Reserved.
  
 This is part of the Gaussian(R) 09 program.  It is based on
 the Gaussian(R) 03 system (copyright 2003, Gaussian, Inc.),
 the Gaussian(R) 98 system (copyright 1998, Gaussian, Inc.),
 the Gaussian(R) 94 system (copyright 1995, Gaussian, Inc.),
 the Gaussian 92(TM) system (copyright 1992, Gaussian, Inc.),
 the Gaussian 90(TM) system (copyright 1990, Gaussian, Inc.),
 the Gaussian 88(TM) system (copyright 1988, Gaussian, Inc.),
 the Gaussian 86(TM) system (copyright 1986, Carnegie Mellon
 University), and the Gaussian 82(TM) system (copyright 1983,
 Carnegie Mellon University). Gaussian is a federally registered
 trademark of Gaussian, Inc.
  
 This software contains proprietary and confidential information,
 including trade secrets, belonging to Gaussian, Inc.
  
 This software is provided under written license and may be
 used, copied, transmitted, or stored only in accord with that
 written license.
  
 The following legend is applicable only to US Government
 contracts under FAR:
  
                    RESTRICTED RIGHTS LEGEND
  
 Use, reproduction and disclosure by the US Government is
 subject to restrictions as set forth in subparagraphs (a)
 and (c) of the Commercial Computer Software - Restricted
 Rights clause in FAR 52.227-19.
  
 Gaussian, Inc.
 340 Quinnipiac St., Bldg. 40, Wallingford CT 06492
  
  
 ---------------------------------------------------------------
 Warning -- This program may not be used in any manner that
 competes with the business of Gaussian, Inc. or will provide
 assistance to any competitor of Gaussian, Inc.  The licensee
 of this program is prohibited from giving any competitor of
 Gaussian, Inc. access to this program.  By using this program,
 the user acknowledges that Gaussian, Inc. is engaged in the
 business of creating and licensing software in the field of
 computational chemistry and represents and warrants to the
 licensee that it is not a competitor of Gaussian, Inc. and that
 it will not use this program in any manner prohibited above.
 ---------------------------------------------------------------
  

 Cite this work as:
 Gaussian 09, Revision D.01,
 M. J. Frisch, G. W. Trucks, H. B. Schlegel, G. E. Scuseria, 
 M. A. Robb, J. R. Cheeseman, G. Scalmani, V. Barone, B. Mennucci, 
 G. A. Petersson, H. Nakatsuji, M. Caricato, X. Li, H. P. Hratchian, 
 A. F. Izmaylov, J. Bloino, G. Zheng, J. L. Sonnenberg, M. Hada, 
 M. Ehara, K. Toyota, R. Fukuda, J. Hasegawa, M. Ishida, T. Nakajima, 
 Y. Honda, O. Kitao, H. Nakai, T. Vreven, J. A. Montgomery, Jr., 
 J. E. Peralta, F. Ogliaro, M. Bearpark, J. J. Heyd, E. Brothers, 
 K. N. Kudin, V. N. Staroverov, T. Keith, R. Kobayashi, J. Normand, 
 K. Raghavachari, A. Rendell, J. C. Burant, S. S. Iyengar, J. Tomasi, 
 M. Cossi, N. Rega, J. M. Millam, M. Klene, J. E. Knox, J. B. Cross, 
 V. Bakken, C. Adamo, J. Jaramillo, R. Gomperts, R. E. Stratmann, 
 O. Yazyev, A. J. Austin, R. Cammi, C. Pomelli, J. W. Ochterski, 
 R. L. Martin, K. Morokuma, V. G. Zakrzewski, G. A. Voth, 
 P. Salvador, J. J. Dannenberg, S. Dapprich, A. D. Daniels, 
 O. Farkas, J. B. Foresman, J. V. Ortiz, J. Cioslowski, 
 and D. J. Fox, Gaussian, Inc., Wallingford CT, 2013.
 
 ******************************************
 Gaussian 09:  AM64L-G09RevD.01 24-Apr-2013
                16-Apr-2022 
 ******************************************
 %chk=1-but-ene-opt
 --------------------
 # hf/6-31G* opt freq
 --------------------
 1/18=20,19=15,38=1/1,3;
 2/9=110,12=2,17=6,18=5,40=1/2;
 3/5=1,6=6,7=1,11=9,16=1,25=1,30=1,71=1/1,2,3;
 4//1;
 5/5=2,38=5/2;
 6/7=2,8=2,9=2,10=2,28=1/1;
 7//1,2,3,16;
 1/18=20,19=15/3(2);
 2/9=110/2;
 99//99;
 2/9=110/2;
 3/5=1,6=6,7=1,11=9,16=1,25=1,30=1,71=1/1,2,3;
 4/5=5,16=3,69=1/1;
 5/5=2,38=5/2;
 7//1,2,3,16;
 1/18=20,19=15/3(-5);
 2/9=110/2;
 6/7=2,8=2,9=2,10=2,19=2,28=1/1;
 99/9=1/99;
 -------------------------
 Optimisation de geometrie
 -------------------------
 Symbolic Z-matrix:
 Charge =  0 Multiplicity = 1
 C                     1.3072    2.1408    1.6685 
 C                     0.4723    2.8866    0.9441 
 C                     1.9672    0.8703    1.2054 
 C                     3.503     0.9581    1.2204 
 H                     1.5603    2.4625    2.6811 
 H                     0.033     3.8007    1.3349 
 H                     0.1933    2.6089   -0.0708 
 H                     1.6555    0.0408    1.858 
 H                     1.6179    0.621     0.1954 
 H                     3.9542    0.0095    0.9081 
 H                     3.8566    1.7437    0.5435 
 H                     3.8766    1.1913    2.2248 
 

 GradGradGradGradGradGradGradGradGradGradGradGradGradGradGradGradGradGrad
 Berny optimization.
 Initialization pass.
                           ----------------------------
                           !    Initial Parameters    !
                           ! (Angstroms and Degrees)  !
 --------------------------                            --------------------------
 ! Name  Definition              Value          Derivative Info.                !
 --------------------------------------------------------------------------------
 ! R1    R(1,2)                  1.3334         estimate D2E/DX2                !
 ! R2    R(1,3)                  1.5047         estimate D2E/DX2                !
 ! R3    R(1,5)                  1.0922         estimate D2E/DX2                !
 ! R4    R(2,6)                  1.0869         estimate D2E/DX2                !
 ! R5    R(2,7)                  1.0886         estimate D2E/DX2                !
 ! R6    R(3,4)                  1.5384         estimate D2E/DX2                !
 ! R7    R(3,8)                  1.1005         estimate D2E/DX2                !
 ! R8    R(3,9)                  1.0974         estimate D2E/DX2                !
 ! R9    R(4,10)                 1.0959         estimate D2E/DX2                !
 ! R10   R(4,11)                 1.0956         estimate D2E/DX2                !
 ! R11   R(4,12)                 1.0967         estimate D2E/DX2                !
 ! A1    A(2,1,3)              125.428          estimate D2E/DX2                !
 ! A2    A(2,1,5)              118.9484         estimate D2E/DX2                !
 ! A3    A(3,1,5)              115.6188         estimate D2E/DX2                !
 ! A4    A(1,2,6)              121.8797         estimate D2E/DX2                !
 ! A5    A(1,2,7)              121.6205         estimate D2E/DX2                !
 ! A6    A(6,2,7)              116.4996         estimate D2E/DX2                !
 ! A7    A(1,3,4)              112.7487         estimate D2E/DX2                !
 ! A8    A(1,3,8)              109.2493         estimate D2E/DX2                !
 ! A9    A(1,3,9)              109.6002         estimate D2E/DX2                !
 ! A10   A(4,3,8)              108.6626         estimate D2E/DX2                !
 ! A11   A(4,3,9)              109.859          estimate D2E/DX2                !
 ! A12   A(8,3,9)              106.5225         estimate D2E/DX2                !
 ! A13   A(3,4,10)             111.0297         estimate D2E/DX2                !
 ! A14   A(3,4,11)             110.922          estimate D2E/DX2                !
 ! A15   A(3,4,12)             111.1707         estimate D2E/DX2                !
 ! A16   A(10,4,11)            108.1632         estimate D2E/DX2                !
 ! A17   A(10,4,12)            107.7457         estimate D2E/DX2                !
 ! A18   A(11,4,12)            107.6625         estimate D2E/DX2                !
 ! D1    D(3,1,2,6)           -179.5347         estimate D2E/DX2                !
 ! D2    D(3,1,2,7)              0.6161         estimate D2E/DX2                !
 ! D3    D(5,1,2,6)             -0.3733         estimate D2E/DX2                !
 ! D4    D(5,1,2,7)            179.7775         estimate D2E/DX2                !
 ! D5    D(2,1,3,4)            119.8742         estimate D2E/DX2                !
 ! D6    D(2,1,3,8)           -119.198          estimate D2E/DX2                !
 ! D7    D(2,1,3,9)             -2.8318         estimate D2E/DX2                !
 ! D8    D(5,1,3,4)            -59.3119         estimate D2E/DX2                !
 ! D9    D(5,1,3,8)             61.6158         estimate D2E/DX2                !
 ! D10   D(5,1,3,9)            177.982          estimate D2E/DX2                !
 ! D11   D(1,3,4,10)           178.259          estimate D2E/DX2                !
 ! D12   D(1,3,4,11)           -61.4414         estimate D2E/DX2                !
 ! D13   D(1,3,4,12)            58.3204         estimate D2E/DX2                !
 ! D14   D(8,3,4,10)            56.9971         estimate D2E/DX2                !
 ! D15   D(8,3,4,11)           177.2967         estimate D2E/DX2                !
 ! D16   D(8,3,4,12)           -62.9415         estimate D2E/DX2                !
 ! D17   D(9,3,4,10)           -59.18           estimate D2E/DX2                !
 ! D18   D(9,3,4,11)            61.1197         estimate D2E/DX2                !
 ! D19   D(9,3,4,12)          -179.1185         estimate D2E/DX2                !
 --------------------------------------------------------------------------------
 Trust Radius=3.00D-01 FncErr=1.00D-07 GrdErr=1.00D-07
 Number of steps in this run=     58 maximum allowed number of steps=    100.
 GradGradGradGradGradGradGradGradGradGradGradGradGradGradGradGradGradGrad

                          Input orientation:                          
 ---------------------------------------------------------------------
 Center     Atomic      Atomic             Coordinates (Angstroms)
 Number     Number       Type             X           Y           Z
 ---------------------------------------------------------------------
      1          6           0        1.307200    2.140800    1.668500
      2          6           0        0.472300    2.886600    0.944100
      3          6           0        1.967200    0.870300    1.205400
      4          6           0        3.503000    0.958100    1.220400
      5          1           0        1.560300    2.462500    2.681100
      6          1           0        0.033000    3.800700    1.334900
      7          1           0        0.193300    2.608900   -0.070800
      8          1           0        1.655500    0.040800    1.858000
      9          1           0        1.617900    0.621000    0.195400
     10          1           0        3.954200    0.009500    0.908100
     11          1           0        3.856600    1.743700    0.543500
     12          1           0        3.876600    1.191300    2.224800
 ---------------------------------------------------------------------
                    Distance matrix (angstroms):
                    1          2          3          4          5
     1  C    0.000000
     2  C    1.333428   0.000000
     3  C    1.504736   2.523583   0.000000
     4  C    2.533991   3.602859   1.538381   0.000000
     5  H    1.092204   2.093030   2.208701   2.858487   0.000000
     6  H    2.118996   1.086871   3.513566   4.487136   2.436325
     7  H    2.117795   1.088568   2.792515   3.917455   3.076211
     8  H    2.137106   3.214616   1.100506   2.158988   2.559529
     9  H    2.139241   2.646865   1.097388   2.172064   3.094050
    10  H    3.482421   4.516927   2.185757   1.095881   3.858950
    11  H    2.814739   3.594466   2.184210   1.095625   3.218540
    12  H    2.795145   4.012916   2.188156   1.096713   2.681307
                    6          7          8          9         10
     6  H    0.000000
     7  H    1.849885   0.000000
     8  H    4.128315   3.528943   0.000000
     9  H    3.731067   2.460100   1.761330   0.000000
    10  H    5.470938   4.675414   2.487431   2.517970   0.000000
    11  H    4.413330   3.813883   3.077762   2.528519   1.774798
    12  H    4.730132   4.565749   2.528137   3.089568   1.770980
                   11         12
    11  H    0.000000
    12  H    1.769835   0.000000
 Stoichiometry    C4H8
 Framework group  C1[X(C4H8)]
 Deg. of freedom    30
 Full point group                 C1      NOp   1
 Largest Abelian subgroup         C1      NOp   1
 Largest concise Abelian subgroup C1      NOp   1
                         Standard orientation:                         
 ---------------------------------------------------------------------
 Center     Atomic      Atomic             Coordinates (Angstroms)
 Number     Number       Type             X           Y           Z
 ---------------------------------------------------------------------
      1          6           0        0.723110   -0.296636    0.338379
      2          6           0        1.862862    0.017963   -0.278082
      3          6           0       -0.539840    0.520811    0.307268
      4          6           0       -1.730264   -0.246226   -0.293699
      5          1           0        0.670261   -1.225837    0.909958
      6          1           0        2.740668   -0.620526   -0.222603
      7          1           0        1.962585    0.931110   -0.862202
      8          1           0       -0.799277    0.826843    1.332036
      9          1           0       -0.366785    1.444229   -0.259840
     10          1           0       -2.640849    0.363217   -0.274505
     11          1           0       -1.529596   -0.527795   -1.333336
     12          1           0       -1.932216   -1.166707    0.267291
 ---------------------------------------------------------------------
 Rotational constants (GHZ):     22.6735639      4.1155898      4.0199109
 Standard basis: 6-31G(d) (6D, 7F)
 There are    76 symmetry adapted cartesian basis functions of A   symmetry.
 There are    76 symmetry adapted basis functions of A   symmetry.
    76 basis functions,   144 primitive gaussians,    76 cartesian basis functions
    16 alpha electrons       16 beta electrons
       nuclear repulsion energy       116.7846427542 Hartrees.
 NAtoms=   12 NActive=   12 NUniq=   12 SFac= 1.00D+00 NAtFMM=   60 NAOKFM=F Big=F
 Integral buffers will be    131072 words long.
 Raffenetti 1 integral format.
 Two-electron integral symmetry is turned on.
 One-electron integrals computed using PRISM.
 NBasis=    76 RedAO= T EigKep=  4.59D-03  NBF=    76
 NBsUse=    76 1.00D-06 EigRej= -1.00D+00 NBFU=    76
 ExpMin= 1.61D-01 ExpMax= 3.05D+03 ExpMxC= 4.57D+02 IAcc=1 IRadAn=         1 AccDes= 0.00D+00
 Harris functional with IExCor=  205 and IRadAn=       1 diagonalized for initial guess.
 HarFok:  IExCor=  205 AccDes= 0.00D+00 IRadAn=         1 IDoV= 1 UseB2=F ITyADJ=14
 ICtDFT=  3500011 ScaDFX=  1.000000  1.000000  1.000000  1.000000
 FoFCou: FMM=F IPFlag=           0 FMFlag=      100000 FMFlg1=           0
         NFxFlg=           0 DoJE=T BraDBF=F KetDBF=T FulRan=T
         wScrn=  0.000000 ICntrl=     500 IOpCl=  0 I1Cent=   200000004 NGrid=           0
         NMat0=    1 NMatS0=      1 NMatT0=    0 NMatD0=    1 NMtDS0=    0 NMtDT0=    0
 Petite list used in FoFCou.
 Keep R1 ints in memory in canonical form, NReq=5181415.
 Requested convergence on RMS density matrix=1.00D-08 within 128 cycles.
 Requested convergence on MAX density matrix=1.00D-06.
 Requested convergence on             energy=1.00D-06.
 No special actions if energy rises.
 SCF Done:  E(RHF) =  -156.105070842     A.U. after   12 cycles
            NFock= 12  Conv=0.32D-08     -V/T= 2.0017

 **********************************************************************

            Population analysis using the SCF density.

 **********************************************************************

 Orbital symmetries:
       Occupied  (A) (A) (A) (A) (A) (A) (A) (A) (A) (A) (A) (A)
                 (A) (A) (A) (A)
       Virtual   (A) (A) (A) (A) (A) (A) (A) (A) (A) (A) (A) (A)
                 (A) (A) (A) (A) (A) (A) (A) (A) (A) (A) (A) (A)
                 (A) (A) (A) (A) (A) (A) (A) (A) (A) (A) (A) (A)
                 (A) (A) (A) (A) (A) (A) (A) (A) (A) (A) (A) (A)
                 (A) (A) (A) (A) (A) (A) (A) (A) (A) (A) (A) (A)
 The electronic state is 1-A.
 Alpha  occ. eigenvalues --  -11.23036 -11.22689 -11.21833 -11.21735  -1.07395
 Alpha  occ. eigenvalues --   -0.98396  -0.85234  -0.75054  -0.63703  -0.60172
 Alpha  occ. eigenvalues --   -0.58110  -0.53169  -0.51405  -0.48379  -0.47160
 Alpha  occ. eigenvalues --   -0.35361
 Alpha virt. eigenvalues --    0.18404   0.24902   0.27359   0.28161   0.30729
 Alpha virt. eigenvalues --    0.33095   0.33141   0.33903   0.35506   0.40399
 Alpha virt. eigenvalues --    0.47087   0.54496   0.69556   0.72383   0.74142
 Alpha virt. eigenvalues --    0.76379   0.80128   0.82713   0.88399   0.91987
 Alpha virt. eigenvalues --    0.94840   0.98359   1.06384   1.10326   1.12548
 Alpha virt. eigenvalues --    1.14983   1.17236   1.17295   1.19884   1.22862
 Alpha virt. eigenvalues --    1.24552   1.25869   1.33579   1.44933   1.55666
 Alpha virt. eigenvalues --    1.66709   1.72977   1.83748   1.91363   1.98227
 Alpha virt. eigenvalues --    2.11851   2.21077   2.25786   2.26407   2.29367
 Alpha virt. eigenvalues --    2.41153   2.47062   2.55968   2.63099   2.63784
 Alpha virt. eigenvalues --    2.69212   2.80205   2.87762   2.95463   3.14628
 Alpha virt. eigenvalues --    3.24413   4.53903   4.59866   4.75532   4.89316
          Condensed to atoms (all electrons):
               1          2          3          4          5          6
     1  C    4.943596   0.659648   0.355301  -0.060158   0.388741  -0.037211
     2  C    0.659648   5.034089  -0.045132  -0.001176  -0.036668   0.393985
     3  C    0.355301  -0.045132   5.053394   0.328032  -0.041694   0.002867
     4  C   -0.060158  -0.001176   0.328032   5.127401  -0.000711  -0.000114
     5  H    0.388741  -0.036668  -0.041694  -0.000711   0.510883  -0.003278
     6  H   -0.037211   0.393985   0.002867  -0.000114  -0.003278   0.497780
     7  H   -0.043243   0.395496  -0.004004   0.000137   0.003287  -0.028009
     8  H   -0.044030  -0.000452   0.400171  -0.046859  -0.000717  -0.000124
     9  H   -0.048149   0.000499   0.402615  -0.036615   0.003284   0.000098
    10  H    0.004614  -0.000030  -0.035241   0.390227  -0.000096   0.000002
    11  H   -0.000701   0.000884  -0.037143   0.387417   0.000228  -0.000018
    12  H   -0.002506   0.000237  -0.038701   0.390364   0.001889   0.000002
               7          8          9         10         11         12
     1  C   -0.043243  -0.044030  -0.048149   0.004614  -0.000701  -0.002506
     2  C    0.395496  -0.000452   0.000499  -0.000030   0.000884   0.000237
     3  C   -0.004004   0.400171   0.402615  -0.035241  -0.037143  -0.038701
     4  C    0.000137  -0.046859  -0.036615   0.390227   0.387417   0.390364
     5  H    0.003287  -0.000717   0.003284  -0.000096   0.000228   0.001889
     6  H   -0.028009  -0.000124   0.000098   0.000002  -0.000018   0.000002
     7  H    0.504031   0.000093   0.002891  -0.000003   0.000035   0.000004
     8  H    0.000093   0.554511  -0.028153  -0.002146   0.004256  -0.002339
     9  H    0.002891  -0.028153   0.537641  -0.002602  -0.002402   0.003806
    10  H   -0.000003  -0.002146  -0.002602   0.537387  -0.026099  -0.027965
    11  H    0.000035   0.004256  -0.002402  -0.026099   0.535477  -0.027947
    12  H    0.000004  -0.002339   0.003806  -0.027965  -0.027947   0.546463
 Mulliken charges:
               1
     1  C   -0.115901
     2  C   -0.401381
     3  C   -0.340465
     4  C   -0.477945
     5  H    0.174852
     6  H    0.174021
     7  H    0.169285
     8  H    0.165788
     9  H    0.167086
    10  H    0.161952
    11  H    0.166014
    12  H    0.156693
 Sum of Mulliken charges =  -0.00000
 Mulliken charges with hydrogens summed into heavy atoms:
               1
     1  C    0.058951
     2  C   -0.058075
     3  C   -0.007590
     4  C    0.006715
 Electronic spatial extent (au):  <R**2>=            369.6277
 Charge=              0.0000 electrons
 Dipole moment (field-independent basis, Debye):
    X=             -0.2828    Y=              0.0143    Z=              0.0808  Tot=              0.2945
 Quadrupole moment (field-independent basis, Debye-Ang):
   XX=            -26.6218   YY=            -26.4467   ZZ=            -27.4513
   XY=             -0.4859   XZ=             -0.8799   YZ=             -1.2972
 Traceless Quadrupole moment (field-independent basis, Debye-Ang):
   XX=              0.2181   YY=              0.3933   ZZ=             -0.6113
   XY=             -0.4859   XZ=             -0.8799   YZ=             -1.2972
 Octapole moment (field-independent basis, Debye-Ang**2):
  XXX=              2.8883  YYY=              0.0204  ZZZ=              0.3221  XYY=              0.3570
  XXY=             -0.6712  XXZ=             -1.7245  XZZ=             -1.5188  YZZ=              0.1874
  YYZ=              0.3632  XYZ=             -1.4349
 Hexadecapole moment (field-independent basis, Debye-Ang**3):
 XXXX=           -364.2327 YYYY=            -72.7597 ZZZZ=            -63.7335 XXXY=             -8.6428
 XXXZ=             -6.0753 YYYX=              0.0878 YYYZ=             -3.7222 ZZZX=             -0.6646
 ZZZY=             -0.5873 XXYY=            -72.8246 XXZZ=            -76.2853 YYZZ=            -22.0822
 XXYZ=             -2.8653 YYXZ=             -0.9811 ZZXY=              0.7353
 N-N= 1.167846427542D+02 E-N=-5.961598129690D+02  KE= 1.558370234293D+02
 Calling FoFJK, ICntrl=      2127 FMM=F ISym2X=0 I1Cent= 0 IOpClX= 0 NMat=1 NMatS=1 NMatT=0.
 ***** Axes restored to original set *****
 -------------------------------------------------------------------
 Center     Atomic                   Forces (Hartrees/Bohr)
 Number     Number              X              Y              Z
 -------------------------------------------------------------------
      1        6          -0.008973914    0.013191096   -0.002542133
      2        6           0.006800679   -0.006534434    0.005593600
      3        6          -0.001644330   -0.007923936   -0.002555254
      4        6           0.004041705    0.001099099   -0.000015159
      5        1          -0.002561913   -0.002208553   -0.008214569
      6        1           0.003640767   -0.007311441   -0.002695116
      7        1           0.002231286    0.002176897    0.008017026
      8        1           0.001992713    0.006348781   -0.004653636
      9        1           0.002761671    0.001831349    0.007208086
     10        1          -0.003242856    0.006353686    0.002061353
     11        1          -0.002412060   -0.005318348    0.004428368
     12        1          -0.002633748   -0.001704195   -0.006632566
 -------------------------------------------------------------------
 Cartesian Forces:  Max     0.013191096 RMS     0.005242026

 GradGradGradGradGradGradGradGradGradGradGradGradGradGradGradGradGradGrad
 Berny optimization.
 FormGI is forming the generalized inverse of G from B-inverse, IUseBI=4.
 Internal  Forces:  Max     0.020391336 RMS     0.004461288
 Search for a local minimum.
 Step number   1 out of a maximum of   58
 All quantities printed in internal units (Hartrees-Bohrs-Radians)
 Mixed Optimization -- RFO/linear search
 Second derivative matrix not updated -- first step.
 ITU=  0
     Eigenvalues ---    0.00258   0.00703   0.01643   0.02969   0.02969
     Eigenvalues ---    0.04040   0.05386   0.05436   0.05451   0.09401
     Eigenvalues ---    0.12865   0.15999   0.16000   0.16000   0.16000
     Eigenvalues ---    0.16000   0.16000   0.21940   0.22000   0.28663
     Eigenvalues ---    0.31885   0.33626   0.33973   0.34048   0.34142
     Eigenvalues ---    0.34171   0.34559   0.34979   0.35177   0.58703
 RFO step:  Lambda=-2.28974634D-03 EMin= 2.58243058D-03
 Linear search not attempted -- first point.
 Iteration  1 RMS(Cart)=  0.01609277 RMS(Int)=  0.00003062
 Iteration  2 RMS(Cart)=  0.00002855 RMS(Int)=  0.00000459
 Iteration  3 RMS(Cart)=  0.00000000 RMS(Int)=  0.00000459
 Variable       Old X    -DE/DX   Delta X   Delta X   Delta X     New X
                                 (Linear)    (Quad)   (Total)
    R1        2.51981  -0.02039   0.00000  -0.03460  -0.03460   2.48521
    R2        2.84354  -0.00103   0.00000  -0.00321  -0.00321   2.84033
    R3        2.06397  -0.00886   0.00000  -0.02547  -0.02547   2.03850
    R4        2.05389  -0.00859   0.00000  -0.02426  -0.02426   2.02963
    R5        2.05710  -0.00860   0.00000  -0.02443  -0.02443   2.03266
    R6        2.90712  -0.00422   0.00000  -0.01460  -0.01460   2.89252
    R7        2.07966  -0.00811   0.00000  -0.02395  -0.02395   2.05570
    R8        2.07376  -0.00793   0.00000  -0.02318  -0.02318   2.05058
    R9        2.07091  -0.00742   0.00000  -0.02160  -0.02160   2.04932
   R10        2.07043  -0.00733   0.00000  -0.02130  -0.02130   2.04913
   R11        2.07249  -0.00733   0.00000  -0.02140  -0.02140   2.05109
    A1        2.18913  -0.00035   0.00000  -0.00156  -0.00157   2.18756
    A2        2.07604  -0.00047   0.00000  -0.00313  -0.00313   2.07291
    A3        2.01793   0.00082   0.00000   0.00478   0.00477   2.02270
    A4        2.12720  -0.00057   0.00000  -0.00353  -0.00353   2.12367
    A5        2.12268   0.00026   0.00000   0.00158   0.00158   2.12426
    A6        2.03330   0.00032   0.00000   0.00195   0.00195   2.03525
    A7        1.96784  -0.00083   0.00000  -0.00437  -0.00437   1.96346
    A8        1.90676  -0.00007   0.00000  -0.00157  -0.00157   1.90519
    A9        1.91288   0.00043   0.00000   0.00155   0.00155   1.91443
   A10        1.89652   0.00059   0.00000   0.00410   0.00410   1.90062
   A11        1.91740  -0.00004   0.00000  -0.00132  -0.00132   1.91608
   A12        1.85917  -0.00004   0.00000   0.00199   0.00199   1.86115
   A13        1.93783  -0.00029   0.00000  -0.00233  -0.00234   1.93550
   A14        1.93595   0.00003   0.00000   0.00051   0.00051   1.93646
   A15        1.94030  -0.00014   0.00000  -0.00067  -0.00067   1.93963
   A16        1.88780   0.00009   0.00000   0.00019   0.00019   1.88799
   A17        1.88052   0.00016   0.00000   0.00034   0.00033   1.88085
   A18        1.87906   0.00018   0.00000   0.00211   0.00211   1.88118
    D1       -3.13347  -0.00013   0.00000  -0.00551  -0.00550  -3.13897
    D2        0.01075  -0.00009   0.00000  -0.00436  -0.00435   0.00640
    D3       -0.00651   0.00003   0.00000   0.00255   0.00254  -0.00398
    D4        3.13771   0.00007   0.00000   0.00370   0.00369   3.14140
    D5        2.09220  -0.00009   0.00000   0.00147   0.00147   2.09367
    D6       -2.08040   0.00006   0.00000   0.00269   0.00270  -2.07770
    D7       -0.04942   0.00022   0.00000   0.00506   0.00507  -0.04435
    D8       -1.03519  -0.00023   0.00000  -0.00630  -0.00631  -1.04150
    D9        1.07540  -0.00008   0.00000  -0.00507  -0.00508   1.07032
   D10        3.10637   0.00008   0.00000  -0.00270  -0.00271   3.10367
   D11        3.11121  -0.00005   0.00000   0.00280   0.00280   3.11401
   D12       -1.07235  -0.00011   0.00000   0.00183   0.00182  -1.07053
   D13        1.01788   0.00004   0.00000   0.00438   0.00438   1.02226
   D14        0.99479   0.00016   0.00000   0.00478   0.00478   0.99957
   D15        3.09441   0.00011   0.00000   0.00380   0.00381   3.09822
   D16       -1.09854   0.00025   0.00000   0.00636   0.00636  -1.09217
   D17       -1.03289  -0.00010   0.00000   0.00080   0.00080  -1.03208
   D18        1.06674  -0.00016   0.00000  -0.00018  -0.00018   1.06656
   D19       -3.12621  -0.00001   0.00000   0.00238   0.00238  -3.12383
         Item               Value     Threshold  Converged?
 Maximum Force            0.020391     0.000450     NO 
 RMS     Force            0.004461     0.000300     NO 
 Maximum Displacement     0.042009     0.001800     NO 
 RMS     Displacement     0.016093     0.001200     NO 
 Predicted change in Energy=-1.151913D-03
 GradGradGradGradGradGradGradGradGradGradGradGradGradGradGradGradGradGrad

                          Input orientation:                          
 ---------------------------------------------------------------------
 Center     Atomic      Atomic             Coordinates (Angstroms)
 Number     Number       Type             X           Y           Z
 ---------------------------------------------------------------------
      1          6           0        1.309879    2.143096    1.664576
      2          6           0        0.485954    2.876415    0.948388
      3          6           0        1.966370    0.871848    1.204056
      4          6           0        3.494246    0.962804    1.219395
      5          1           0        1.553721    2.463419    2.665368
      6          1           0        0.051085    3.778470    1.336630
      7          1           0        0.210660    2.601646   -0.054465
      8          1           0        1.655554    0.054711    1.851403
      9          1           0        1.623195    0.624356    0.204825
     10          1           0        3.940720    0.024357    0.909531
     11          1           0        3.843095    1.740814    0.549451
     12          1           0        3.862622    1.192263    2.214242
 ---------------------------------------------------------------------
                    Distance matrix (angstroms):
                    1          2          3          4          5
     1  C    0.000000
     2  C    1.315118   0.000000
     3  C    1.503040   2.505053   0.000000
     4  C    2.522445   3.575636   1.530657   0.000000
     5  H    1.078726   2.063665   2.199730   2.847511   0.000000
     6  H    2.089632   1.074032   3.483439   4.449390   2.398504
     7  H    2.091328   1.075639   2.767417   3.884644   3.036513
     8  H    2.125028   3.185187   1.087831   2.145892   2.544559
     9  H    2.129697   2.630204   1.085120   2.155163   3.072662
    10  H    3.461281   4.480084   2.168650   1.084453   3.837936
    11  H    2.796876   3.566390   2.169264   1.084352   3.200077
    12  H    2.778976   3.980030   2.172305   1.085390   2.674018
                    6          7          8          9         10
     6  H    0.000000
     7  H    1.829078   0.000000
     8  H    4.087260   3.493841   0.000000
     9  H    3.701479   2.443800   1.742631   0.000000
    10  H    5.422641   4.635198   2.471846   2.495502   0.000000
    11  H    4.376189   3.781578   3.053417   2.508625   1.756535
    12  H    4.688974   4.524402   2.509347   3.061912   1.752819
                   11         12
    11  H    0.000000
    12  H    1.752946   0.000000
 Stoichiometry    C4H8
 Framework group  C1[X(C4H8)]
 Deg. of freedom    30
 Full point group                 C1      NOp   1
 Largest Abelian subgroup         C1      NOp   1
 Largest concise Abelian subgroup C1      NOp   1
                         Standard orientation:                         
 ---------------------------------------------------------------------
 Center     Atomic      Atomic             Coordinates (Angstroms)
 Number     Number       Type             X           Y           Z
 ---------------------------------------------------------------------
      1          6           0        0.724253   -0.290986    0.337117
      2          6           0        1.846299    0.014458   -0.277092
      3          6           0       -0.537527    0.524861    0.299236
      4          6           0       -1.719438   -0.251233   -0.287002
      5          1           0        0.680468   -1.199611    0.916887
      6          1           0        2.714459   -0.614466   -0.211521
      7          1           0        1.942355    0.908294   -0.867710
      8          1           0       -0.789327    0.840082    1.309487
      9          1           0       -0.370700    1.429693   -0.276033
     10          1           0       -2.621113    0.351189   -0.276568
     11          1           0       -1.520586   -0.544693   -1.311775
     12          1           0       -1.917080   -1.153084    0.283678
 ---------------------------------------------------------------------
 Rotational constants (GHZ):     23.0029447      4.1770030      4.0760336
 Standard basis: 6-31G(d) (6D, 7F)
 There are    76 symmetry adapted cartesian basis functions of A   symmetry.
 There are    76 symmetry adapted basis functions of A   symmetry.
    76 basis functions,   144 primitive gaussians,    76 cartesian basis functions
    16 alpha electrons       16 beta electrons
       nuclear repulsion energy       117.7267249494 Hartrees.
 NAtoms=   12 NActive=   12 NUniq=   12 SFac= 1.00D+00 NAtFMM=   60 NAOKFM=F Big=F
 Integral buffers will be    131072 words long.
 Raffenetti 1 integral format.
 Two-electron integral symmetry is turned on.
 One-electron integrals computed using PRISM.
 NBasis=    76 RedAO= T EigKep=  4.36D-03  NBF=    76
 NBsUse=    76 1.00D-06 EigRej= -1.00D+00 NBFU=    76
 Initial guess from the checkpoint file:  "1-but-ene-opt.chk"
 B after Tr=     0.000000   -0.000000   -0.000000
         Rot=    0.999973    0.007315   -0.000639   -0.000509 Ang=   0.84 deg.
 ExpMin= 1.61D-01 ExpMax= 3.05D+03 ExpMxC= 4.57D+02 IAcc=1 IRadAn=         1 AccDes= 0.00D+00
 Harris functional with IExCor=  205 and IRadAn=       1 diagonalized for initial guess.
 HarFok:  IExCor=  205 AccDes= 0.00D+00 IRadAn=         1 IDoV= 1 UseB2=F ITyADJ=14
 ICtDFT=  3500011 ScaDFX=  1.000000  1.000000  1.000000  1.000000
 FoFCou: FMM=F IPFlag=           0 FMFlag=      100000 FMFlg1=           0
         NFxFlg=           0 DoJE=T BraDBF=F KetDBF=T FulRan=T
         wScrn=  0.000000 ICntrl=     500 IOpCl=  0 I1Cent=   200000004 NGrid=           0
         NMat0=    1 NMatS0=      1 NMatT0=    0 NMatD0=    1 NMtDS0=    0 NMtDT0=    0
 Petite list used in FoFCou.
 Keep R1 ints in memory in canonical form, NReq=5181578.
 Requested convergence on RMS density matrix=1.00D-08 within 128 cycles.
 Requested convergence on MAX density matrix=1.00D-06.
 Requested convergence on             energy=1.00D-06.
 No special actions if energy rises.
 SCF Done:  E(RHF) =  -156.106050594     A.U. after   10 cycles
            NFock= 10  Conv=0.49D-08     -V/T= 2.0003
 Calling FoFJK, ICntrl=      2127 FMM=F ISym2X=0 I1Cent= 0 IOpClX= 0 NMat=1 NMatS=1 NMatT=0.
 ***** Axes restored to original set *****
 -------------------------------------------------------------------
 Center     Atomic                   Forces (Hartrees/Bohr)
 Number     Number              X              Y              Z
 -------------------------------------------------------------------
      1        6           0.001770489   -0.001785957    0.001955483
      2        6          -0.002184293    0.001668232   -0.002038938
      3        6           0.000298651   -0.000751264    0.000143178
      4        6           0.000251417   -0.000005518    0.000136415
      5        1           0.000574319   -0.000090763    0.000982485
      6        1          -0.000582718    0.001149095    0.000175469
      7        1          -0.000510240    0.000060921   -0.001106235
      8        1          -0.000165157   -0.000268725    0.000364464
      9        1          -0.000342127    0.000093115   -0.000529481
     10        1           0.000460329   -0.000605646   -0.000228815
     11        1           0.000161986    0.000434327   -0.000402743
     12        1           0.000267344    0.000102183    0.000548718
 -------------------------------------------------------------------
 Cartesian Forces:  Max     0.002184293 RMS     0.000899491

 GradGradGradGradGradGradGradGradGradGradGradGradGradGradGradGradGradGrad
 Berny optimization.
 Using GEDIIS/GDIIS optimizer.
 FormGI is forming the generalized inverse of G from B-inverse, IUseBI=4.
 Internal  Forces:  Max     0.005275384 RMS     0.000888921
 Search for a local minimum.
 Step number   2 out of a maximum of   58
 All quantities printed in internal units (Hartrees-Bohrs-Radians)
 Mixed Optimization -- En-DIIS/RFO-DIIS
 Update second derivatives using D2CorX and points    1    2
 DE= -9.80D-04 DEPred=-1.15D-03 R= 8.51D-01
 TightC=F SS=  1.41D+00  RLast= 7.84D-02 DXNew= 5.0454D-01 2.3520D-01
 Trust test= 8.51D-01 RLast= 7.84D-02 DXMaxT set to 3.00D-01
 ITU=  1  0
 Use linear search instead of GDIIS.
     Eigenvalues ---    0.00258   0.00703   0.01640   0.02969   0.02970
     Eigenvalues ---    0.04069   0.05385   0.05449   0.05456   0.09361
     Eigenvalues ---    0.12842   0.15983   0.16000   0.16000   0.16000
     Eigenvalues ---    0.16000   0.16054   0.21949   0.22008   0.28827
     Eigenvalues ---    0.31681   0.33559   0.33953   0.34051   0.34157
     Eigenvalues ---    0.34215   0.34652   0.35061   0.36143   0.66136
 RFO step:  Lambda=-1.98936921D-05 EMin= 2.58238217D-03
 Quartic linear search produced a step of -0.13270.
 Iteration  1 RMS(Cart)=  0.00404877 RMS(Int)=  0.00000516
 Iteration  2 RMS(Cart)=  0.00000542 RMS(Int)=  0.00000053
 Iteration  3 RMS(Cart)=  0.00000000 RMS(Int)=  0.00000053
 Variable       Old X    -DE/DX   Delta X   Delta X   Delta X     New X
                                 (Linear)    (Quad)   (Total)
    R1        2.48521   0.00528   0.00459   0.00279   0.00738   2.49259
    R2        2.84033   0.00124   0.00043   0.00291   0.00334   2.84367
    R3        2.03850   0.00101   0.00338  -0.00121   0.00217   2.04067
    R4        2.02963   0.00126   0.00322  -0.00045   0.00277   2.03239
    R5        2.03266   0.00115   0.00324  -0.00075   0.00249   2.03515
    R6        2.89252   0.00114   0.00194   0.00127   0.00320   2.89573
    R7        2.05570   0.00047   0.00318  -0.00233   0.00085   2.05655
    R8        2.05058   0.00057   0.00308  -0.00195   0.00113   2.05170
    R9        2.04932   0.00078   0.00287  -0.00120   0.00166   2.05098
   R10        2.04913   0.00061   0.00283  -0.00159   0.00124   2.05037
   R11        2.05109   0.00062   0.00284  -0.00159   0.00125   2.05234
    A1        2.18756   0.00033   0.00021   0.00107   0.00128   2.18884
    A2        2.07291   0.00037   0.00042   0.00173   0.00215   2.07506
    A3        2.02270  -0.00070  -0.00063  -0.00281  -0.00344   2.01926
    A4        2.12367   0.00011   0.00047   0.00005   0.00052   2.12419
    A5        2.12426   0.00037  -0.00021   0.00224   0.00203   2.12628
    A6        2.03525  -0.00048  -0.00026  -0.00228  -0.00254   2.03271
    A7        1.96346   0.00023   0.00058   0.00006   0.00064   1.96410
    A8        1.90519  -0.00009   0.00021  -0.00081  -0.00060   1.90459
    A9        1.91443  -0.00027  -0.00021  -0.00206  -0.00226   1.91217
   A10        1.90062  -0.00004  -0.00054   0.00105   0.00051   1.90113
   A11        1.91608   0.00009   0.00018   0.00060   0.00078   1.91685
   A12        1.86115   0.00008  -0.00026   0.00123   0.00097   1.86212
   A13        1.93550   0.00022   0.00031   0.00086   0.00117   1.93667
   A14        1.93646  -0.00011  -0.00007  -0.00066  -0.00073   1.93573
   A15        1.93963   0.00007   0.00009   0.00034   0.00043   1.94006
   A16        1.88799  -0.00007  -0.00003  -0.00051  -0.00053   1.88746
   A17        1.88085  -0.00012  -0.00004  -0.00032  -0.00036   1.88049
   A18        1.88118   0.00001  -0.00028   0.00026  -0.00002   1.88115
    D1       -3.13897   0.00011   0.00073   0.00240   0.00313  -3.13584
    D2        0.00640   0.00000   0.00058  -0.00044   0.00014   0.00654
    D3       -0.00398   0.00005  -0.00034   0.00156   0.00123  -0.00275
    D4        3.14140  -0.00006  -0.00049  -0.00127  -0.00176   3.13963
    D5        2.09367  -0.00001  -0.00020  -0.00149  -0.00168   2.09199
    D6       -2.07770   0.00002  -0.00036  -0.00068  -0.00104  -2.07873
    D7       -0.04435  -0.00009  -0.00067  -0.00082  -0.00149  -0.04585
    D8       -1.04150   0.00004   0.00084  -0.00069   0.00015  -1.04135
    D9        1.07032   0.00007   0.00067   0.00012   0.00080   1.07112
   D10        3.10367  -0.00004   0.00036  -0.00002   0.00034   3.10400
   D11        3.11401   0.00007  -0.00037   0.00625   0.00588   3.11988
   D12       -1.07053   0.00005  -0.00024   0.00575   0.00550  -1.06503
   D13        1.02226   0.00003  -0.00058   0.00585   0.00527   1.02753
   D14        0.99957   0.00007  -0.00063   0.00650   0.00587   1.00544
   D15        3.09822   0.00005  -0.00051   0.00600   0.00549   3.10371
   D16       -1.09217   0.00003  -0.00084   0.00611   0.00526  -1.08691
   D17       -1.03208  -0.00006  -0.00011   0.00408   0.00398  -1.02811
   D18        1.06656  -0.00008   0.00002   0.00358   0.00360   1.07016
   D19       -3.12383  -0.00010  -0.00032   0.00369   0.00337  -3.12046
         Item               Value     Threshold  Converged?
 Maximum Force            0.005275     0.000450     NO 
 RMS     Force            0.000889     0.000300     NO 
 Maximum Displacement     0.009119     0.001800     NO 
 RMS     Displacement     0.004049     0.001200     NO 
 Predicted change in Energy=-3.437549D-05
 GradGradGradGradGradGradGradGradGradGradGradGradGradGradGradGradGradGrad

                          Input orientation:                          
 ---------------------------------------------------------------------
 Center     Atomic      Atomic             Coordinates (Angstroms)
 Number     Number       Type             X           Y           Z
 ---------------------------------------------------------------------
      1          6           0        1.308595    2.142720    1.664980
      2          6           0        0.482470    2.878372    0.946542
      3          6           0        1.966910    0.869928    1.205566
      4          6           0        3.496453    0.961571    1.219844
      5          1           0        1.555107    2.462243    2.666614
      6          1           0        0.048810    3.783142    1.333867
      7          1           0        0.205834    2.605201   -0.057791
      8          1           0        1.656133    0.053418    1.854473
      9          1           0        1.622118    0.622575    0.206209
     10          1           0        3.944548    0.024418    0.905361
     11          1           0        3.843804    1.743035    0.552082
     12          1           0        3.866318    1.187578    2.215652
 ---------------------------------------------------------------------
                    Distance matrix (angstroms):
                    1          2          3          4          5
     1  C    0.000000
     2  C    1.319022   0.000000
     3  C    1.504806   2.510877   0.000000
     4  C    2.525862   3.582305   1.532352   0.000000
     5  H    1.079877   2.069387   2.199934   2.848505   0.000000
     6  H    2.094679   1.075496   3.490328   4.456513   2.406225
     7  H    2.097119   1.076956   2.776442   3.893846   3.043576
     8  H    2.126470   3.190955   1.088279   2.148085   2.544056
     9  H    2.130058   2.633535   1.085715   2.157662   3.072858
    10  H    3.465902   4.486952   2.171649   1.085332   3.841150
    11  H    2.797423   3.569756   2.170734   1.085009   3.197912
    12  H    2.785226   3.989969   2.174609   1.086053   2.677655
                    6          7          8          9         10
     6  H    0.000000
     7  H    1.830004   0.000000
     8  H    4.094553   3.503101   0.000000
     9  H    3.706223   2.450787   1.744096   0.000000
    10  H    5.430323   4.643930   2.477599   2.498057   0.000000
    11  H    4.378950   3.788152   3.055639   2.512160   1.757442
    12  H    4.699773   4.536225   2.510316   3.064885   1.753831
                   11         12
    11  H    0.000000
    12  H    1.753997   0.000000
 Stoichiometry    C4H8
 Framework group  C1[X(C4H8)]
 Deg. of freedom    30
 Full point group                 C1      NOp   1
 Largest Abelian subgroup         C1      NOp   1
 Largest concise Abelian subgroup C1      NOp   1
                         Standard orientation:                         
 ---------------------------------------------------------------------
 Center     Atomic      Atomic             Coordinates (Angstroms)
 Number     Number       Type             X           Y           Z
 ---------------------------------------------------------------------
      1          6           0        0.724563   -0.290328    0.338885
      2          6           0        1.850412    0.013933   -0.277320
      3          6           0       -0.539154    0.525699    0.299375
      4          6           0       -1.722024   -0.251593   -0.287769
      5          1           0        0.677227   -1.198880    0.920629
      6          1           0        2.718826   -0.617189   -0.212256
      7          1           0        1.949436    0.906863   -0.871210
      8          1           0       -0.791158    0.841866    1.309763
      9          1           0       -0.370046    1.429939   -0.277280
     10          1           0       -2.623749    0.352413   -0.284144
     11          1           0       -1.519504   -0.550231   -1.311022
     12          1           0       -1.923816   -1.151045    0.286495
 ---------------------------------------------------------------------
 Rotational constants (GHZ):     22.9469155      4.1618894      4.0623293
 Standard basis: 6-31G(d) (6D, 7F)
 There are    76 symmetry adapted cartesian basis functions of A   symmetry.
 There are    76 symmetry adapted basis functions of A   symmetry.
    76 basis functions,   144 primitive gaussians,    76 cartesian basis functions
    16 alpha electrons       16 beta electrons
       nuclear repulsion energy       117.5500887418 Hartrees.
 NAtoms=   12 NActive=   12 NUniq=   12 SFac= 1.00D+00 NAtFMM=   60 NAOKFM=F Big=F
 Integral buffers will be    131072 words long.
 Raffenetti 1 integral format.
 Two-electron integral symmetry is turned on.
 One-electron integrals computed using PRISM.
 NBasis=    76 RedAO= T EigKep=  4.41D-03  NBF=    76
 NBsUse=    76 1.00D-06 EigRej= -1.00D+00 NBFU=    76
 Initial guess from the checkpoint file:  "1-but-ene-opt.chk"
 B after Tr=     0.000000    0.000000    0.000000
         Rot=    0.999999    0.000966    0.000262    0.000152 Ang=   0.12 deg.
 Keep R1 ints in memory in canonical form, NReq=5181517.
 Requested convergence on RMS density matrix=1.00D-08 within 128 cycles.
 Requested convergence on MAX density matrix=1.00D-06.
 Requested convergence on             energy=1.00D-06.
 No special actions if energy rises.
 SCF Done:  E(RHF) =  -156.106082543     A.U. after    9 cycles
            NFock=  9  Conv=0.43D-08     -V/T= 2.0005
 Calling FoFJK, ICntrl=      2127 FMM=F ISym2X=0 I1Cent= 0 IOpClX= 0 NMat=1 NMatS=1 NMatT=0.
 ***** Axes restored to original set *****
 -------------------------------------------------------------------
 Center     Atomic                   Forces (Hartrees/Bohr)
 Number     Number              X              Y              Z
 -------------------------------------------------------------------
      1        6          -0.000307342    0.000360785   -0.000211169
      2        6           0.000493815   -0.000371551    0.000254773
      3        6           0.000025606   -0.000106717   -0.000129735
      4        6          -0.000083372    0.000099940    0.000041852
      5        1           0.000012627    0.000050489    0.000106102
      6        1          -0.000075608    0.000080431    0.000071106
      7        1          -0.000049253   -0.000038649   -0.000082205
      8        1          -0.000029891   -0.000037921    0.000094005
      9        1          -0.000009547   -0.000025820   -0.000137647
     10        1           0.000000279   -0.000130623   -0.000028009
     11        1           0.000011562    0.000087710   -0.000101106
     12        1           0.000011125    0.000031926    0.000122034
 -------------------------------------------------------------------
 Cartesian Forces:  Max     0.000493815 RMS     0.000157081

 GradGradGradGradGradGradGradGradGradGradGradGradGradGradGradGradGradGrad
 Berny optimization.
 Using GEDIIS/GDIIS optimizer.
 FormGI is forming the generalized inverse of G from B-inverse, IUseBI=4.
 Internal  Forces:  Max     0.000547725 RMS     0.000101479
 Search for a local minimum.
 Step number   3 out of a maximum of   58
 All quantities printed in internal units (Hartrees-Bohrs-Radians)
 Mixed Optimization -- En-DIIS/RFO-DIIS
 Swapping is turned off.
 Update second derivatives using D2CorX and points    1    2    3
 DE= -3.19D-05 DEPred=-3.44D-05 R= 9.29D-01
 TightC=F SS=  1.41D+00  RLast= 1.97D-02 DXNew= 5.0454D-01 5.9076D-02
 Trust test= 9.29D-01 RLast= 1.97D-02 DXMaxT set to 3.00D-01
 ITU=  1  1  0
     Eigenvalues ---    0.00259   0.00703   0.01647   0.02969   0.02988
     Eigenvalues ---    0.04076   0.05344   0.05449   0.05452   0.09375
     Eigenvalues ---    0.12865   0.15868   0.16000   0.16000   0.16000
     Eigenvalues ---    0.16000   0.16188   0.21949   0.22210   0.28961
     Eigenvalues ---    0.31516   0.33512   0.33868   0.34026   0.34123
     Eigenvalues ---    0.34158   0.34584   0.35040   0.35269   0.72977
 En-DIIS/RFO-DIIS IScMMF=        0 using points:     3    2
 RFO step:  Lambda=-7.59851125D-07.
 DidBck=F Rises=F RFO-DIIS coefs:    0.94953    0.05047
 Iteration  1 RMS(Cart)=  0.00150792 RMS(Int)=  0.00000183
 Iteration  2 RMS(Cart)=  0.00000197 RMS(Int)=  0.00000013
 Iteration  3 RMS(Cart)=  0.00000000 RMS(Int)=  0.00000013
 Variable       Old X    -DE/DX   Delta X   Delta X   Delta X     New X
                                 (Linear)    (Quad)   (Total)
    R1        2.49259  -0.00055  -0.00037  -0.00033  -0.00071   2.49188
    R2        2.84367   0.00008  -0.00017   0.00047   0.00030   2.84397
    R3        2.04067   0.00012  -0.00011   0.00049   0.00038   2.04105
    R4        2.03239   0.00012  -0.00014   0.00055   0.00041   2.03280
    R5        2.03515   0.00010  -0.00013   0.00046   0.00034   2.03549
    R6        2.89573  -0.00005  -0.00016   0.00006  -0.00010   2.89562
    R7        2.05655   0.00009  -0.00004   0.00034   0.00030   2.05685
    R8        2.05170   0.00014  -0.00006   0.00048   0.00042   2.05213
    R9        2.05098   0.00012  -0.00008   0.00047   0.00039   2.05137
   R10        2.05037   0.00013  -0.00006   0.00046   0.00040   2.05077
   R11        2.05234   0.00012  -0.00006   0.00045   0.00038   2.05273
    A1        2.18884  -0.00009  -0.00006  -0.00030  -0.00037   2.18848
    A2        2.07506   0.00002  -0.00011   0.00022   0.00011   2.07517
    A3        2.01926   0.00007   0.00017   0.00008   0.00025   2.01951
    A4        2.12419  -0.00002  -0.00003  -0.00008  -0.00010   2.12409
    A5        2.12628   0.00001  -0.00010   0.00021   0.00011   2.12639
    A6        2.03271   0.00001   0.00013  -0.00013  -0.00001   2.03271
    A7        1.96410  -0.00016  -0.00003  -0.00075  -0.00079   1.96332
    A8        1.90459   0.00001   0.00003  -0.00040  -0.00037   1.90421
    A9        1.91217   0.00009   0.00011   0.00043   0.00055   1.91272
   A10        1.90113   0.00006  -0.00003   0.00010   0.00008   1.90121
   A11        1.91685   0.00002  -0.00004   0.00017   0.00013   1.91699
   A12        1.86212  -0.00000  -0.00005   0.00051   0.00046   1.86258
   A13        1.93667  -0.00007  -0.00006  -0.00035  -0.00041   1.93626
   A14        1.93573  -0.00002   0.00004  -0.00017  -0.00013   1.93560
   A15        1.94006  -0.00002  -0.00002  -0.00010  -0.00012   1.93994
   A16        1.88746   0.00004   0.00003   0.00019   0.00021   1.88768
   A17        1.88049   0.00004   0.00002   0.00018   0.00020   1.88068
   A18        1.88115   0.00004   0.00000   0.00029   0.00029   1.88144
    D1       -3.13584  -0.00004  -0.00016  -0.00101  -0.00117  -3.13701
    D2        0.00654   0.00002  -0.00001   0.00072   0.00071   0.00725
    D3       -0.00275  -0.00003  -0.00006  -0.00096  -0.00102  -0.00378
    D4        3.13963   0.00003   0.00009   0.00077   0.00085   3.14049
    D5        2.09199   0.00000   0.00009   0.00005   0.00014   2.09212
    D6       -2.07873  -0.00003   0.00005  -0.00059  -0.00054  -2.07927
    D7       -0.04585   0.00003   0.00008   0.00004   0.00011  -0.04574
    D8       -1.04135  -0.00000  -0.00001   0.00001  -0.00000  -1.04135
    D9        1.07112  -0.00003  -0.00004  -0.00064  -0.00067   1.07044
   D10        3.10400   0.00002  -0.00002  -0.00001  -0.00002   3.10398
   D11        3.11988  -0.00003  -0.00030  -0.00314  -0.00344   3.11644
   D12       -1.06503  -0.00004  -0.00028  -0.00326  -0.00353  -1.06856
   D13        1.02753  -0.00003  -0.00027  -0.00307  -0.00334   1.02420
   D14        1.00544   0.00002  -0.00030  -0.00222  -0.00251   1.00293
   D15        3.10371   0.00002  -0.00028  -0.00233  -0.00260   3.10111
   D16       -1.08691   0.00003  -0.00027  -0.00214  -0.00241  -1.08932
   D17       -1.02811  -0.00002  -0.00020  -0.00298  -0.00319  -1.03129
   D18        1.07016  -0.00002  -0.00018  -0.00309  -0.00328   1.06689
   D19       -3.12046  -0.00001  -0.00017  -0.00291  -0.00308  -3.12354
         Item               Value     Threshold  Converged?
 Maximum Force            0.000548     0.000450     NO 
 RMS     Force            0.000101     0.000300     YES
 Maximum Displacement     0.005699     0.001800     NO 
 RMS     Displacement     0.001508     0.001200     NO 
 Predicted change in Energy=-7.689056D-07
 GradGradGradGradGradGradGradGradGradGradGradGradGradGradGradGradGradGrad

                          Input orientation:                          
 ---------------------------------------------------------------------
 Center     Atomic      Atomic             Coordinates (Angstroms)
 Number     Number       Type             X           Y           Z
 ---------------------------------------------------------------------
      1          6           0        1.308821    2.142556    1.665066
      2          6           0        0.483290    2.878478    0.946908
      3          6           0        1.966782    0.869710    1.204778
      4          6           0        3.496232    0.961861    1.219813
      5          1           0        1.555156    2.461512    2.667142
      6          1           0        0.048875    3.782800    1.335033
      7          1           0        0.206240    2.605480   -0.057550
      8          1           0        1.655822    0.053107    1.853748
      9          1           0        1.622332    0.622690    0.204980
     10          1           0        3.944503    0.023653    0.908026
     11          1           0        3.843718    1.741759    0.549949
     12          1           0        3.865329    1.190594    2.215505
 ---------------------------------------------------------------------
                    Distance matrix (angstroms):
                    1          2          3          4          5
     1  C    0.000000
     2  C    1.318648   0.000000
     3  C    1.504964   2.510458   0.000000
     4  C    2.525285   3.581302   1.532297   0.000000
     5  H    1.080079   2.069291   2.200404   2.848068   0.000000
     6  H    2.094465   1.075712   3.490190   4.455923   2.406076
     7  H    2.096995   1.077135   2.775947   3.893224   3.043723
     8  H    2.126454   3.190597   1.088438   2.148213   2.544044
     9  H    2.130759   2.633715   1.085938   2.157875   3.073764
    10  H    3.465499   4.486818   2.171463   1.085537   3.840133
    11  H    2.798183   3.569619   2.170750   1.085221   3.199698
    12  H    2.782975   3.987039   2.174629   1.086256   2.675090
                    6          7          8          9         10
     6  H    0.000000
     7  H    1.830336   0.000000
     8  H    4.094136   3.502707   0.000000
     9  H    3.706627   2.450653   1.744701   0.000000
    10  H    5.430418   4.644651   2.476554   2.499119   0.000000
    11  H    4.379844   3.787653   3.055867   2.511150   1.757915
    12  H    4.696816   4.534051   2.511307   3.065250   1.754286
                   11         12
    11  H    0.000000
    12  H    1.754516   0.000000
 Stoichiometry    C4H8
 Framework group  C1[X(C4H8)]
 Deg. of freedom    30
 Full point group                 C1      NOp   1
 Largest Abelian subgroup         C1      NOp   1
 Largest concise Abelian subgroup C1      NOp   1
                         Standard orientation:                         
 ---------------------------------------------------------------------
 Center     Atomic      Atomic             Coordinates (Angstroms)
 Number     Number       Type             X           Y           Z
 ---------------------------------------------------------------------
      1          6           0        0.724451   -0.290414    0.338800
      2          6           0        1.849859    0.013835   -0.277416
      3          6           0       -0.539149    0.526087    0.299329
      4          6           0       -1.721561   -0.251823   -0.287777
      5          1           0        0.677138   -1.199124    0.920675
      6          1           0        2.718724   -0.616965   -0.211677
      7          1           0        1.949097    0.907294   -0.870798
      8          1           0       -0.791047    0.841697    1.310089
      9          1           0       -0.370336    1.430588   -0.277422
     10          1           0       -2.624266    0.351061   -0.281106
     11          1           0       -1.520014   -0.547588   -1.312280
     12          1           0       -1.920897   -1.153073    0.284907
 ---------------------------------------------------------------------
 Rotational constants (GHZ):     22.9356680      4.1637411      4.0637787
 Standard basis: 6-31G(d) (6D, 7F)
 There are    76 symmetry adapted cartesian basis functions of A   symmetry.
 There are    76 symmetry adapted basis functions of A   symmetry.
    76 basis functions,   144 primitive gaussians,    76 cartesian basis functions
    16 alpha electrons       16 beta electrons
       nuclear repulsion energy       117.5546512984 Hartrees.
 NAtoms=   12 NActive=   12 NUniq=   12 SFac= 1.00D+00 NAtFMM=   60 NAOKFM=F Big=F
 Integral buffers will be    131072 words long.
 Raffenetti 1 integral format.
 Two-electron integral symmetry is turned on.
 One-electron integrals computed using PRISM.
 NBasis=    76 RedAO= T EigKep=  4.41D-03  NBF=    76
 NBsUse=    76 1.00D-06 EigRej= -1.00D+00 NBFU=    76
 Initial guess from the checkpoint file:  "1-but-ene-opt.chk"
 B after Tr=    -0.000000   -0.000000   -0.000000
         Rot=    1.000000   -0.000211   -0.000026   -0.000054 Ang=  -0.03 deg.
 Keep R1 ints in memory in canonical form, NReq=5181532.
 Requested convergence on RMS density matrix=1.00D-08 within 128 cycles.
 Requested convergence on MAX density matrix=1.00D-06.
 Requested convergence on             energy=1.00D-06.
 No special actions if energy rises.
 SCF Done:  E(RHF) =  -156.106083196     A.U. after    8 cycles
            NFock=  8  Conv=0.36D-08     -V/T= 2.0005
 Calling FoFJK, ICntrl=      2127 FMM=F ISym2X=0 I1Cent= 0 IOpClX= 0 NMat=1 NMatS=1 NMatT=0.
 ***** Axes restored to original set *****
 -------------------------------------------------------------------
 Center     Atomic                   Forces (Hartrees/Bohr)
 Number     Number              X              Y              Z
 -------------------------------------------------------------------
      1        6          -0.000038181    0.000040597   -0.000003934
      2        6          -0.000031524   -0.000019712    0.000023278
      3        6           0.000000317   -0.000032238    0.000017570
      4        6           0.000029420   -0.000009450   -0.000015819
      5        1           0.000003730   -0.000025178   -0.000039958
      6        1           0.000021714   -0.000011649   -0.000031721
      7        1           0.000017160    0.000024439    0.000028666
      8        1           0.000004756    0.000014620   -0.000016384
      9        1           0.000009215    0.000022057    0.000038845
     10        1           0.000009166    0.000024404    0.000007592
     11        1          -0.000011276   -0.000020621    0.000021747
     12        1          -0.000014496   -0.000007269   -0.000029882
 -------------------------------------------------------------------
 Cartesian Forces:  Max     0.000040597 RMS     0.000022775

 GradGradGradGradGradGradGradGradGradGradGradGradGradGradGradGradGradGrad
 Berny optimization.
 Using GEDIIS/GDIIS optimizer.
 FormGI is forming the generalized inverse of G from B-inverse, IUseBI=4.
 Internal  Forces:  Max     0.000043703 RMS     0.000017484
 Search for a local minimum.
 Step number   4 out of a maximum of   58
 All quantities printed in internal units (Hartrees-Bohrs-Radians)
 Mixed Optimization -- En-DIIS/RFO-DIIS
 Swapping is turned off.
 Update second derivatives using D2CorX and points    1    2    3    4
 DE= -6.54D-07 DEPred=-7.69D-07 R= 8.50D-01
 Trust test= 8.50D-01 RLast= 9.63D-03 DXMaxT set to 3.00D-01
 ITU=  0  1  1  0
     Eigenvalues ---    0.00259   0.00701   0.01649   0.02970   0.03166
     Eigenvalues ---    0.04174   0.05249   0.05452   0.05477   0.09371
     Eigenvalues ---    0.12859   0.15609   0.15976   0.16000   0.16000
     Eigenvalues ---    0.16010   0.16474   0.21852   0.22582   0.29030
     Eigenvalues ---    0.31003   0.33566   0.33998   0.34077   0.34142
     Eigenvalues ---    0.34353   0.34797   0.35077   0.38088   0.70747
 En-DIIS/RFO-DIIS IScMMF=        0 using points:     4    3    2
 RFO step:  Lambda=-3.08009314D-08.
 DidBck=F Rises=F RFO-DIIS coefs:    0.85188    0.13947    0.00865
 Iteration  1 RMS(Cart)=  0.00028875 RMS(Int)=  0.00000007
 Iteration  2 RMS(Cart)=  0.00000008 RMS(Int)=  0.00000001
 Variable       Old X    -DE/DX   Delta X   Delta X   Delta X     New X
                                 (Linear)    (Quad)   (Total)
    R1        2.49188  -0.00002   0.00004  -0.00010  -0.00006   2.49183
    R2        2.84397   0.00001  -0.00007   0.00012   0.00004   2.84401
    R3        2.04105  -0.00004  -0.00008  -0.00002  -0.00010   2.04096
    R4        2.03280  -0.00003  -0.00008   0.00002  -0.00006   2.03274
    R5        2.03549  -0.00004  -0.00007  -0.00001  -0.00008   2.03541
    R6        2.89562   0.00001  -0.00001   0.00004   0.00003   2.89565
    R7        2.05685  -0.00002  -0.00005   0.00000  -0.00005   2.05680
    R8        2.05213  -0.00004  -0.00007  -0.00003  -0.00010   2.05203
    R9        2.05137  -0.00002  -0.00007   0.00003  -0.00004   2.05133
   R10        2.05077  -0.00003  -0.00007   0.00000  -0.00007   2.05070
   R11        2.05273  -0.00003  -0.00007  -0.00001  -0.00007   2.05265
    A1        2.18848   0.00002   0.00004   0.00002   0.00006   2.18854
    A2        2.07517   0.00001  -0.00004   0.00010   0.00006   2.07523
    A3        2.01951  -0.00003  -0.00001  -0.00012  -0.00013   2.01938
    A4        2.12409   0.00002   0.00001   0.00007   0.00008   2.12416
    A5        2.12639   0.00000  -0.00003   0.00004   0.00001   2.12640
    A6        2.03271  -0.00002   0.00002  -0.00011  -0.00009   2.03262
    A7        1.96332   0.00001   0.00011  -0.00010   0.00001   1.96332
    A8        1.90421   0.00000   0.00006   0.00001   0.00007   1.90428
    A9        1.91272  -0.00001  -0.00006  -0.00009  -0.00015   1.91257
   A10        1.90121   0.00000  -0.00002   0.00010   0.00009   1.90129
   A11        1.91699  -0.00000  -0.00003  -0.00002  -0.00005   1.91694
   A12        1.86258   0.00000  -0.00008   0.00011   0.00003   1.86262
   A13        1.93626   0.00003   0.00005   0.00012   0.00017   1.93643
   A14        1.93560  -0.00001   0.00003  -0.00007  -0.00004   1.93556
   A15        1.93994  -0.00001   0.00001  -0.00009  -0.00007   1.93986
   A16        1.88768  -0.00001  -0.00003   0.00002  -0.00001   1.88767
   A17        1.88068  -0.00001  -0.00003   0.00001  -0.00002   1.88066
   A18        1.88144   0.00000  -0.00004   0.00002  -0.00003   1.88141
    D1       -3.13701   0.00002   0.00015   0.00054   0.00068  -3.13633
    D2        0.00725  -0.00001  -0.00011  -0.00008  -0.00019   0.00707
    D3       -0.00378   0.00002   0.00014   0.00019   0.00033  -0.00345
    D4        3.14049  -0.00002  -0.00011  -0.00043  -0.00054   3.13994
    D5        2.09212  -0.00001  -0.00001  -0.00047  -0.00048   2.09164
    D6       -2.07927  -0.00000   0.00009  -0.00041  -0.00032  -2.07959
    D7       -0.04574  -0.00000  -0.00000  -0.00032  -0.00032  -0.04606
    D8       -1.04135  -0.00000  -0.00000  -0.00013  -0.00014  -1.04149
    D9        1.07044   0.00001   0.00009  -0.00007   0.00003   1.07047
   D10        3.10398   0.00000   0.00000   0.00002   0.00002   3.10400
   D11        3.11644   0.00001   0.00046  -0.00020   0.00026   3.11670
   D12       -1.06856   0.00001   0.00048  -0.00014   0.00033  -1.06823
   D13        1.02420   0.00000   0.00045  -0.00023   0.00022   1.02442
   D14        1.00293  -0.00000   0.00032  -0.00021   0.00011   1.00303
   D15        3.10111   0.00000   0.00034  -0.00016   0.00018   3.10129
   D16       -1.08932  -0.00000   0.00031  -0.00024   0.00007  -1.08925
   D17       -1.03129  -0.00000   0.00044  -0.00040   0.00004  -1.03125
   D18        1.06689   0.00000   0.00045  -0.00034   0.00011   1.06700
   D19       -3.12354  -0.00001   0.00043  -0.00042   0.00000  -3.12353
         Item               Value     Threshold  Converged?
 Maximum Force            0.000044     0.000450     YES
 RMS     Force            0.000017     0.000300     YES
 Maximum Displacement     0.000733     0.001800     YES
 RMS     Displacement     0.000289     0.001200     YES
 Predicted change in Energy=-4.203684D-08
 Optimization completed.
    -- Stationary point found.
                           ----------------------------
                           !   Optimized Parameters   !
                           ! (Angstroms and Degrees)  !
 --------------------------                            --------------------------
 ! Name  Definition              Value          Derivative Info.                !
 --------------------------------------------------------------------------------
 ! R1    R(1,2)                  1.3186         -DE/DX =    0.0                 !
 ! R2    R(1,3)                  1.505          -DE/DX =    0.0                 !
 ! R3    R(1,5)                  1.0801         -DE/DX =    0.0                 !
 ! R4    R(2,6)                  1.0757         -DE/DX =    0.0                 !
 ! R5    R(2,7)                  1.0771         -DE/DX =    0.0                 !
 ! R6    R(3,4)                  1.5323         -DE/DX =    0.0                 !
 ! R7    R(3,8)                  1.0884         -DE/DX =    0.0                 !
 ! R8    R(3,9)                  1.0859         -DE/DX =    0.0                 !
 ! R9    R(4,10)                 1.0855         -DE/DX =    0.0                 !
 ! R10   R(4,11)                 1.0852         -DE/DX =    0.0                 !
 ! R11   R(4,12)                 1.0863         -DE/DX =    0.0                 !
 ! A1    A(2,1,3)              125.3904         -DE/DX =    0.0                 !
 ! A2    A(2,1,5)              118.8985         -DE/DX =    0.0                 !
 ! A3    A(3,1,5)              115.7094         -DE/DX =    0.0                 !
 ! A4    A(1,2,6)              121.7011         -DE/DX =    0.0                 !
 ! A5    A(1,2,7)              121.8332         -DE/DX =    0.0                 !
 ! A6    A(6,2,7)              116.4655         -DE/DX =    0.0                 !
 ! A7    A(1,3,4)              112.4897         -DE/DX =    0.0                 !
 ! A8    A(1,3,8)              109.1035         -DE/DX =    0.0                 !
 ! A9    A(1,3,9)              109.5907         -DE/DX =    0.0                 !
 ! A10   A(4,3,8)              108.9312         -DE/DX =    0.0                 !
 ! A11   A(4,3,9)              109.8352         -DE/DX =    0.0                 !
 ! A12   A(8,3,9)              106.7181         -DE/DX =    0.0                 !
 ! A13   A(3,4,10)             110.9397         -DE/DX =    0.0                 !
 ! A14   A(3,4,11)             110.9017         -DE/DX =    0.0                 !
 ! A15   A(3,4,12)             111.1502         -DE/DX =    0.0                 !
 ! A16   A(10,4,11)            108.1559         -DE/DX =    0.0                 !
 ! A17   A(10,4,12)            107.7551         -DE/DX =    0.0                 !
 ! A18   A(11,4,12)            107.7986         -DE/DX =    0.0                 !
 ! D1    D(3,1,2,6)           -179.7374         -DE/DX =    0.0                 !
 ! D2    D(3,1,2,7)              0.4156         -DE/DX =    0.0                 !
 ! D3    D(5,1,2,6)             -0.2163         -DE/DX =    0.0                 !
 ! D4    D(5,1,2,7)            179.9367         -DE/DX =    0.0                 !
 ! D5    D(2,1,3,4)            119.8697         -DE/DX =    0.0                 !
 ! D6    D(2,1,3,8)           -119.1335         -DE/DX =    0.0                 !
 ! D7    D(2,1,3,9)             -2.6205         -DE/DX =    0.0                 !
 ! D8    D(5,1,3,4)            -59.665          -DE/DX =    0.0                 !
 ! D9    D(5,1,3,8)             61.3319         -DE/DX =    0.0                 !
 ! D10   D(5,1,3,9)            177.8448         -DE/DX =    0.0                 !
 ! D11   D(1,3,4,10)           178.5589         -DE/DX =    0.0                 !
 ! D12   D(1,3,4,11)           -61.2241         -DE/DX =    0.0                 !
 ! D13   D(1,3,4,12)            58.6821         -DE/DX =    0.0                 !
 ! D14   D(8,3,4,10)            57.4634         -DE/DX =    0.0                 !
 ! D15   D(8,3,4,11)           177.6804         -DE/DX =    0.0                 !
 ! D16   D(8,3,4,12)           -62.4134         -DE/DX =    0.0                 !
 ! D17   D(9,3,4,10)           -59.0888         -DE/DX =    0.0                 !
 ! D18   D(9,3,4,11)            61.1282         -DE/DX =    0.0                 !
 ! D19   D(9,3,4,12)          -178.9656         -DE/DX =    0.0                 !
 --------------------------------------------------------------------------------
 GradGradGradGradGradGradGradGradGradGradGradGradGradGradGradGradGradGrad

                          Input orientation:                          
 ---------------------------------------------------------------------
 Center     Atomic      Atomic             Coordinates (Angstroms)
 Number     Number       Type             X           Y           Z
 ---------------------------------------------------------------------
      1          6           0        1.308821    2.142556    1.665066
      2          6           0        0.483290    2.878478    0.946908
      3          6           0        1.966782    0.869710    1.204778
      4          6           0        3.496232    0.961861    1.219813
      5          1           0        1.555156    2.461512    2.667142
      6          1           0        0.048875    3.782800    1.335033
      7          1           0        0.206240    2.605480   -0.057550
      8          1           0        1.655822    0.053107    1.853748
      9          1           0        1.622332    0.622690    0.204980
     10          1           0        3.944503    0.023653    0.908026
     11          1           0        3.843718    1.741759    0.549949
     12          1           0        3.865329    1.190594    2.215505
 ---------------------------------------------------------------------
                    Distance matrix (angstroms):
                    1          2          3          4          5
     1  C    0.000000
     2  C    1.318648   0.000000
     3  C    1.504964   2.510458   0.000000
     4  C    2.525285   3.581302   1.532297   0.000000
     5  H    1.080079   2.069291   2.200404   2.848068   0.000000
     6  H    2.094465   1.075712   3.490190   4.455923   2.406076
     7  H    2.096995   1.077135   2.775947   3.893224   3.043723
     8  H    2.126454   3.190597   1.088438   2.148213   2.544044
     9  H    2.130759   2.633715   1.085938   2.157875   3.073764
    10  H    3.465499   4.486818   2.171463   1.085537   3.840133
    11  H    2.798183   3.569619   2.170750   1.085221   3.199698
    12  H    2.782975   3.987039   2.174629   1.086256   2.675090
                    6          7          8          9         10
     6  H    0.000000
     7  H    1.830336   0.000000
     8  H    4.094136   3.502707   0.000000
     9  H    3.706627   2.450653   1.744701   0.000000
    10  H    5.430418   4.644651   2.476554   2.499119   0.000000
    11  H    4.379844   3.787653   3.055867   2.511150   1.757915
    12  H    4.696816   4.534051   2.511307   3.065250   1.754286
                   11         12
    11  H    0.000000
    12  H    1.754516   0.000000
 Stoichiometry    C4H8
 Framework group  C1[X(C4H8)]
 Deg. of freedom    30
 Full point group                 C1      NOp   1
 Largest Abelian subgroup         C1      NOp   1
 Largest concise Abelian subgroup C1      NOp   1
                         Standard orientation:                         
 ---------------------------------------------------------------------
 Center     Atomic      Atomic             Coordinates (Angstroms)
 Number     Number       Type             X           Y           Z
 ---------------------------------------------------------------------
      1          6           0        0.724451   -0.290414    0.338800
      2          6           0        1.849859    0.013835   -0.277416
      3          6           0       -0.539149    0.526087    0.299329
      4          6           0       -1.721561   -0.251823   -0.287777
      5          1           0        0.677138   -1.199124    0.920675
      6          1           0        2.718724   -0.616965   -0.211677
      7          1           0        1.949097    0.907294   -0.870798
      8          1           0       -0.791047    0.841697    1.310089
      9          1           0       -0.370336    1.430588   -0.277422
     10          1           0       -2.624266    0.351061   -0.281106
     11          1           0       -1.520014   -0.547588   -1.312280
     12          1           0       -1.920897   -1.153073    0.284907
 ---------------------------------------------------------------------
 Rotational constants (GHZ):     22.9356680      4.1637411      4.0637787

 **********************************************************************

            Population analysis using the SCF density.

 **********************************************************************

 Orbital symmetries:
       Occupied  (A) (A) (A) (A) (A) (A) (A) (A) (A) (A) (A) (A)
                 (A) (A) (A) (A)
       Virtual   (A) (A) (A) (A) (A) (A) (A) (A) (A) (A) (A) (A)
                 (A) (A) (A) (A) (A) (A) (A) (A) (A) (A) (A) (A)
                 (A) (A) (A) (A) (A) (A) (A) (A) (A) (A) (A) (A)
                 (A) (A) (A) (A) (A) (A) (A) (A) (A) (A) (A) (A)
                 (A) (A) (A) (A) (A) (A) (A) (A) (A) (A) (A) (A)
 The electronic state is 1-A.
 Alpha  occ. eigenvalues --  -11.22552 -11.22249 -11.21271 -11.21253  -1.07768
 Alpha  occ. eigenvalues --   -0.98867  -0.85502  -0.75377  -0.64095  -0.60501
 Alpha  occ. eigenvalues --   -0.58443  -0.53426  -0.51569  -0.48613  -0.47111
 Alpha  occ. eigenvalues --   -0.35649
 Alpha virt. eigenvalues --    0.18836   0.25060   0.27684   0.28441   0.31027
 Alpha virt. eigenvalues --    0.33361   0.33444   0.34271   0.35818   0.40613
 Alpha virt. eigenvalues --    0.47135   0.54757   0.69323   0.72259   0.73962
 Alpha virt. eigenvalues --    0.76306   0.79929   0.82774   0.88660   0.92533
 Alpha virt. eigenvalues --    0.95450   0.98359   1.06942   1.10874   1.13165
 Alpha virt. eigenvalues --    1.15804   1.18065   1.18312   1.21069   1.23978
 Alpha virt. eigenvalues --    1.25806   1.26293   1.34482   1.45578   1.56667
 Alpha virt. eigenvalues --    1.66966   1.73129   1.84080   1.91534   1.98349
 Alpha virt. eigenvalues --    2.12457   2.21573   2.26793   2.27505   2.30419
 Alpha virt. eigenvalues --    2.41996   2.48481   2.57786   2.64757   2.65414
 Alpha virt. eigenvalues --    2.71111   2.81607   2.89134   2.96340   3.16346
 Alpha virt. eigenvalues --    3.26459   4.55186   4.60711   4.75968   4.89884
          Condensed to atoms (all electrons):
               1          2          3          4          5          6
     1  C    4.935067   0.666014   0.358721  -0.061074   0.390633  -0.038091
     2  C    0.666014   5.025697  -0.045752  -0.001279  -0.038042   0.395994
     3  C    0.358721  -0.045752   5.047349   0.331006  -0.041793   0.003085
     4  C   -0.061074  -0.001279   0.331006   5.123249  -0.000743  -0.000124
     5  H    0.390633  -0.038042  -0.041793  -0.000743   0.510628  -0.003725
     6  H   -0.038091   0.395994   0.003085  -0.000124  -0.003725   0.498207
     7  H   -0.043517   0.397245  -0.004535   0.000154   0.003543  -0.028608
     8  H   -0.044123  -0.000461   0.401640  -0.046821  -0.000741  -0.000135
     9  H   -0.048392   0.000529   0.404173  -0.037170   0.003373   0.000097
    10  H    0.004822  -0.000033  -0.035771   0.391862  -0.000100   0.000002
    11  H   -0.000866   0.000919  -0.037462   0.389101   0.000235  -0.000021
    12  H   -0.002697   0.000252  -0.038949   0.392004   0.001888   0.000002
               7          8          9         10         11         12
     1  C   -0.043517  -0.044123  -0.048392   0.004822  -0.000866  -0.002697
     2  C    0.397245  -0.000461   0.000529  -0.000033   0.000919   0.000252
     3  C   -0.004535   0.401640   0.404173  -0.035771  -0.037462  -0.038949
     4  C    0.000154  -0.046821  -0.037170   0.391862   0.389101   0.392004
     5  H    0.003543  -0.000741   0.003373  -0.000100   0.000235   0.001888
     6  H   -0.028608  -0.000135   0.000097   0.000002  -0.000021   0.000002
     7  H    0.503470   0.000107   0.002953  -0.000004   0.000039   0.000004
     8  H    0.000107   0.552135  -0.028481  -0.002220   0.004412  -0.002460
     9  H    0.002953  -0.028481   0.536336  -0.002764  -0.002481   0.003981
    10  H   -0.000004  -0.002220  -0.002764   0.536356  -0.026453  -0.028327
    11  H    0.000039   0.004412  -0.002481  -0.026453   0.533844  -0.028166
    12  H    0.000004  -0.002460   0.003981  -0.028327  -0.028166   0.544848
 Mulliken charges:
               1
     1  C   -0.116497
     2  C   -0.401083
     3  C   -0.341711
     4  C   -0.480165
     5  H    0.174844
     6  H    0.173316
     7  H    0.169150
     8  H    0.167149
     9  H    0.167846
    10  H    0.162630
    11  H    0.166900
    12  H    0.157621
 Sum of Mulliken charges =   0.00000
 Mulliken charges with hydrogens summed into heavy atoms:
               1
     1  C    0.058348
     2  C   -0.058617
     3  C   -0.006716
     4  C    0.006986
 Electronic spatial extent (au):  <R**2>=            365.7674
 Charge=              0.0000 electrons
 Dipole moment (field-independent basis, Debye):
    X=             -0.2805    Y=              0.0177    Z=              0.0865  Tot=              0.2941
 Quadrupole moment (field-independent basis, Debye-Ang):
   XX=            -26.5745   YY=            -26.4037   ZZ=            -27.2825
   XY=             -0.4963   XZ=             -0.8407   YZ=             -1.2853
 Traceless Quadrupole moment (field-independent basis, Debye-Ang):
   XX=              0.1791   YY=              0.3498   ZZ=             -0.5290
   XY=             -0.4963   XZ=             -0.8407   YZ=             -1.2853
 Octapole moment (field-independent basis, Debye-Ang**2):
  XXX=              2.7630  YYY=              0.0459  ZZZ=              0.3326  XYY=              0.3036
  XXY=             -0.6567  XXZ=             -1.6286  XZZ=             -1.4228  YZZ=              0.1812
  YYZ=              0.3624  XYZ=             -1.4203
 Hexadecapole moment (field-independent basis, Debye-Ang**3):
 XXXX=           -359.6178 YYYY=            -72.0821 ZZZZ=            -62.7434 XXXY=             -8.3287
[...]
   A11        1.91699  -0.00000   0.00000  -0.00003  -0.00003   1.91696
   A12        1.86258   0.00000   0.00000   0.00003   0.00003   1.86262
   A13        1.93626   0.00003   0.00000   0.00018   0.00018   1.93645
   A14        1.93560  -0.00001   0.00000  -0.00006  -0.00006   1.93553
   A15        1.93994  -0.00001   0.00000  -0.00006  -0.00006   1.93988
   A16        1.88768  -0.00001   0.00000  -0.00001  -0.00001   1.88767
   A17        1.88068  -0.00001   0.00000  -0.00003  -0.00003   1.88065
   A18        1.88144   0.00000   0.00000  -0.00003  -0.00003   1.88141
    D1       -3.13701   0.00002   0.00000   0.00057   0.00057  -3.13644
    D2        0.00725  -0.00001   0.00000  -0.00007  -0.00007   0.00719
    D3       -0.00378   0.00002   0.00000   0.00031   0.00031  -0.00347
    D4        3.14049  -0.00002   0.00000  -0.00033  -0.00033   3.14016
    D5        2.09212  -0.00001   0.00000  -0.00091  -0.00091   2.09121
    D6       -2.07927  -0.00000   0.00000  -0.00076  -0.00076  -2.08003
    D7       -0.04574  -0.00000   0.00000  -0.00074  -0.00074  -0.04648
    D8       -1.04135  -0.00000   0.00000  -0.00065  -0.00065  -1.04200
    D9        1.07044   0.00001   0.00000  -0.00051  -0.00051   1.06994
   D10        3.10398   0.00000   0.00000  -0.00049  -0.00049   3.10349
   D11        3.11644   0.00001   0.00000   0.00032   0.00032   3.11676
   D12       -1.06856   0.00001   0.00000   0.00039   0.00039  -1.06817
   D13        1.02420   0.00000   0.00000   0.00027   0.00027   1.02447
   D14        1.00293  -0.00000   0.00000   0.00017   0.00017   1.00309
   D15        3.10111   0.00000   0.00000   0.00024   0.00024   3.10135
   D16       -1.08932  -0.00000   0.00000   0.00012   0.00012  -1.08920
   D17       -1.03129  -0.00000   0.00000   0.00009   0.00009  -1.03120
   D18        1.06689   0.00000   0.00000   0.00016   0.00016   1.06705
   D19       -3.12354  -0.00001   0.00000   0.00004   0.00004  -3.12349
         Item               Value     Threshold  Converged?
 Maximum Force            0.000044     0.000450     YES
 RMS     Force            0.000017     0.000300     YES
 Maximum Displacement     0.001291     0.001800     YES
 RMS     Displacement     0.000481     0.001200     YES
 Predicted change in Energy=-4.215235D-08
 Optimization completed.
    -- Stationary point found.
                           ----------------------------
                           !   Optimized Parameters   !
                           ! (Angstroms and Degrees)  !
 --------------------------                            --------------------------
 ! Name  Definition              Value          Derivative Info.                !
 --------------------------------------------------------------------------------
 ! R1    R(1,2)                  1.3186         -DE/DX =    0.0                 !
 ! R2    R(1,3)                  1.505          -DE/DX =    0.0                 !
 ! R3    R(1,5)                  1.0801         -DE/DX =    0.0                 !
 ! R4    R(2,6)                  1.0757         -DE/DX =    0.0                 !
 ! R5    R(2,7)                  1.0771         -DE/DX =    0.0                 !
 ! R6    R(3,4)                  1.5323         -DE/DX =    0.0                 !
 ! R7    R(3,8)                  1.0884         -DE/DX =    0.0                 !
 ! R8    R(3,9)                  1.0859         -DE/DX =    0.0                 !
 ! R9    R(4,10)                 1.0855         -DE/DX =    0.0                 !
 ! R10   R(4,11)                 1.0852         -DE/DX =    0.0                 !
 ! R11   R(4,12)                 1.0863         -DE/DX =    0.0                 !
 ! A1    A(2,1,3)              125.3904         -DE/DX =    0.0                 !
 ! A2    A(2,1,5)              118.8985         -DE/DX =    0.0                 !
 ! A3    A(3,1,5)              115.7094         -DE/DX =    0.0                 !
 ! A4    A(1,2,6)              121.7011         -DE/DX =    0.0                 !
 ! A5    A(1,2,7)              121.8332         -DE/DX =    0.0                 !
 ! A6    A(6,2,7)              116.4655         -DE/DX =    0.0                 !
 ! A7    A(1,3,4)              112.4897         -DE/DX =    0.0                 !
 ! A8    A(1,3,8)              109.1035         -DE/DX =    0.0                 !
 ! A9    A(1,3,9)              109.5907         -DE/DX =    0.0                 !
 ! A10   A(4,3,8)              108.9312         -DE/DX =    0.0                 !
 ! A11   A(4,3,9)              109.8352         -DE/DX =    0.0                 !
 ! A12   A(8,3,9)              106.7181         -DE/DX =    0.0                 !
 ! A13   A(3,4,10)             110.9397         -DE/DX =    0.0                 !
 ! A14   A(3,4,11)             110.9017         -DE/DX =    0.0                 !
 ! A15   A(3,4,12)             111.1502         -DE/DX =    0.0                 !
 ! A16   A(10,4,11)            108.1559         -DE/DX =    0.0                 !
 ! A17   A(10,4,12)            107.7551         -DE/DX =    0.0                 !
 ! A18   A(11,4,12)            107.7986         -DE/DX =    0.0                 !
 ! D1    D(3,1,2,6)           -179.7374         -DE/DX =    0.0                 !
 ! D2    D(3,1,2,7)              0.4156         -DE/DX =    0.0                 !
 ! D3    D(5,1,2,6)             -0.2163         -DE/DX =    0.0                 !
 ! D4    D(5,1,2,7)            179.9367         -DE/DX =    0.0                 !
 ! D5    D(2,1,3,4)            119.8697         -DE/DX =    0.0                 !
 ! D6    D(2,1,3,8)           -119.1335         -DE/DX =    0.0                 !
 ! D7    D(2,1,3,9)             -2.6205         -DE/DX =    0.0                 !
 ! D8    D(5,1,3,4)            -59.665          -DE/DX =    0.0                 !
 ! D9    D(5,1,3,8)             61.3319         -DE/DX =    0.0                 !
 ! D10   D(5,1,3,9)            177.8448         -DE/DX =    0.0                 !
 ! D11   D(1,3,4,10)           178.5589         -DE/DX =    0.0                 !
 ! D12   D(1,3,4,11)           -61.2241         -DE/DX =    0.0                 !
 ! D13   D(1,3,4,12)            58.6821         -DE/DX =    0.0                 !
 ! D14   D(8,3,4,10)            57.4634         -DE/DX =    0.0                 !
 ! D15   D(8,3,4,11)           177.6804         -DE/DX =    0.0                 !
 ! D16   D(8,3,4,12)           -62.4134         -DE/DX =    0.0                 !
 ! D17   D(9,3,4,10)           -59.0888         -DE/DX =    0.0                 !
 ! D18   D(9,3,4,11)            61.1282         -DE/DX =    0.0                 !
 ! D19   D(9,3,4,12)          -178.9656         -DE/DX =    0.0                 !
 --------------------------------------------------------------------------------
 GradGradGradGradGradGradGradGradGradGradGradGradGradGradGradGradGradGrad

 1\1\GINC-GTX1080DELTA\Freq\RHF\6-31G(d)\C4H8\MVEROT\16-Apr-2022\0\\#N 
 Geom=AllCheck Guess=TCheck SCRF=Check GenChk RHF/6-31G(d) Freq\\Optimi
 sation de geometrie\\0,1\C,1.3088207795,2.1425564603,1.6650658983\C,0.
 4832896016,2.8784779145,0.9469078124\C,1.9667824715,0.8697098034,1.204
 7783582\C,3.4962324926,0.9618606675,1.219813278\H,1.5551564391,2.46151
 2245,2.6671424759\H,0.048875072,3.7827999689,1.3350327006\H,0.20623953
 47,2.6054801238,-0.0575495438\H,1.6558219098,0.0531072981,1.8537483595
 \H,1.622332171,0.6226896609,0.2049801979\H,3.9445028903,0.023653111,0.
 9080263375\H,3.8437178238,1.7417592049,0.5499492672\H,3.8653288139,1.1
 905935418,2.2155048583\\Version=AM64L-G09RevD.01\State=1-A\HF=-156.106
 0832\RMSD=5.074e-10\RMSF=2.278e-05\ZeroPoint=0.1162755\Thermal=0.12131
 09\Dipole=0.0735656,-0.0849225,0.0276059\DipoleDeriv=-0.0787648,-0.144
 2326,0.1219716,-0.2179155,0.1022757,0.0355646,0.0579044,0.0912185,0.12
 31276,-0.2584215,-0.0849218,0.0702428,-0.0594095,-0.1064471,0.147621,0
 .0846826,0.1438454,0.0333212,0.1504551,0.0611759,-0.0297114,0.0261542,
 0.1917645,-0.0593134,-0.0414955,-0.0178404,0.1483131,0.1104551,-0.0283
 267,0.0095975,0.0467691,0.1092468,0.0204171,0.0276486,-0.0253185,0.191
 1882,0.0699359,0.0309971,-0.0729903,0.0474579,0.0132452,-0.0675385,-0.
 0618431,-0.0670728,-0.1184973,0.0730935,0.1070099,-0.0163401,0.1296531
 ,-0.0603076,-0.0584339,-0.0043791,-0.0823482,0.0331244,0.0935479,0.042
 0936,-0.0475083,0.0208759,0.0496231,-0.088709,-0.0776381,-0.0467184,-0
 .0902309,-0.0362363,-0.0241629,0.0389336,-0.006311,-0.142876,0.1067608
 ,0.0757216,0.1012094,-0.0264123,-0.0372931,-0.0076299,-0.0763064,0.014
 7163,0.0044795,-0.0269718,-0.057407,-0.0865056,-0.1374503,-0.0647654,0
 .1065113,0.0146025,0.1206204,-0.1440753,-0.0575455,0.0366003,-0.064206
 8,0.0380149,-0.0114169,-0.0387264,0.0266823,-0.0864641,-0.0601432,0.10
 12653,0.0582909,0.0975795,-0.0378639,-0.0105895,-0.0197875,-0.0391737,
 -0.0361468,0.0432143,-0.0531167,-0.0980857,-0.0438421,-0.1566349\Polar
 =41.7079345,-11.9513627,42.3491358,6.7919963,-2.0359233,39.1667441\Pol
 arDeriv=10.4168425,-4.9263088,0.3123919,3.3446738,-0.7153526,-1.958352
 6,-0.9509997,3.4206732,-5.925971,-2.318439,4.2723916,-3.6499121,1.1263
 585,-2.6863519,4.0532268,0.242742,-4.9646782,-1.8317568,-10.8443743,4.
 066203,1.7079412,-3.2692561,0.6861784,1.4307977,-0.6836815,-1.6416965,
 3.6390656,2.6724774,-5.1410202,3.1580257,-1.3478205,3.6422006,-5.87300
 89,-0.8170223,4.2865208,0.6500944,-8.0399542,2.4136681,1.4829477,-0.28
 85365,0.1197,2.7457406,-0.0044166,1.494684,3.8102759,0.2448957,-3.5940
 472,2.4164065,0.1986815,0.1385379,-3.3511431,2.9348395,3.9963181,3.702
 5719,5.8850692,-0.8410012,-2.1135616,0.290508,-0.264114,-1.9034544,1.3
 244103,-4.8994336,2.5796074,-0.0588903,3.0353316,-2.4332839,0.2229679,
 -0.3378837,3.4496627,-3.6183624,-2.3580948,-3.3268551,0.2305988,0.3455
 16,1.1182763,1.6513656,0.0271411,1.1289138,-0.767667,0.9107902,0.93223
 56,0.333018,1.7199899,1.7494606,1.0331953,-0.0291302,0.6848695,1.23313
 02,1.9291717,7.5242591,-1.9655548,2.8085832,-2.3987458,0.6313529,-0.18
 9509,-0.9014278,2.3449239,-3.5402108,7.2273441,-0.4254535,1.6052357,0.
 3394877,0.287278,-0.9807294,1.966785,-1.5878383,1.736727,0.4408447,-1.
 2143461,0.0660777,-1.1030781,-2.0609969,0.1077245,-1.2488635,0.3315094
 ,-1.2087752,-0.0446678,-0.5381318,-1.2262649,-1.1082429,-1.410717,0.13
 86294,-0.171522,-2.4199931,-0.3723423,-7.0298027,-0.3490307,-2.2800036
 ,-1.2130754,1.5828438,0.4781912,-0.7526497,-0.7442225,-1.1926339,-7.25
 36499,0.3127407,3.2549903,-1.3787152,1.1401707,0.114345,2.8371203,-1.3
 081965,-3.2248461,2.6698274,-0.7906575,-0.7048933,-0.844321,-1.9568613
 ,-0.4141125,-0.9975552,0.0348428,-1.1972086,-1.5793619,-0.1702373,-1.5
 906858,-0.9175359,-0.981837,-0.1883306,-0.9089523,-1.4381048,-2.339554
 3,-5.7449837,3.0471891,-3.4394401,2.041152,-0.9597699,0.388753,0.42022
 41,-2.4625897,3.8451304,-7.2667448,0.4410922,-1.5519979,-0.2111978,-0.
 7357267,0.6539621,-1.3804867,1.8841368,-1.8791923,-0.8326009,1.7281713
 ,2.0117678,0.6245766,-1.8296553,-0.3036128,0.6722471,1.2952364,2.37818
 49,3.4340332,-0.7563956,-2.3640019,1.275054,-1.2522589,-0.6431626,-1.3
 377865,2.1079187,2.2132706,-2.8085909,1.8960465,0.4798311,0.3854963,2.
 8643319,0.0790128,1.3643801,0.2826542,1.6304959,0.4478335,0.2633234,1.
 5800788,0.7604531,1.7197081,0.1779133,0.0312352,2.7867503,0.9766998,6.
 5869926\HyperPolar=11.0388411,1.2076825,-0.2696473,-14.6273917,-4.1147
 651,1.245701,4.1220843,2.7848256,1.3366323,6.7522254\PG=C01 [X(C4H8)]\
 NImag=0\\0.51238563,-0.29440995,0.60968172,0.26468761,-0.01781782,0.73
 481134,-0.30193856,0.21447884,-0.20301327,0.48143346,0.21474076,-0.280
 66611,0.14745652,-0.33835955,0.65324199,-0.20276668,0.14721244,-0.2888
 2906,0.25496770,0.02597672,0.72957874,-0.11963107,0.05636326,0.0134794
 2,-0.00453022,0.02393282,0.00663922,0.53388822,0.05709672,-0.20911960,
 -0.04375060,0.01230481,-0.01470436,-0.00521445,0.01535831,0.60307884,0
 .01626187,-0.04833040,-0.12468009,-0.00963186,0.01836228,0.01368833,0.
 02325332,-0.00928598,0.67566954,-0.02052433,0.00747718,0.00095183,0.00
 099725,-0.00192520,0.00147421,-0.21916972,-0.01310641,-0.00233867,0.54
 084556,0.03846169,0.00407163,0.00309319,0.00114679,-0.00432790,-0.0027
 8081,-0.00904532,-0.09397778,-0.00313248,-0.00733230,0.65202536,0.0122
 7371,0.00278055,0.00218707,-0.00001337,-0.00121560,-0.00102058,-0.0008
 3807,-0.00160857,-0.09777500,-0.00254373,-0.00076219,0.64559520,-0.073
 64149,-0.01117166,-0.06416710,0.00130127,-0.00629210,-0.02470177,0.006
 78030,0.00513881,0.01375878,0.00164852,-0.00094685,0.00035537,0.063693
 34,-0.01263026,-0.09185560,-0.08726914,0.00739392,0.01152667,0.0207170
 0,-0.00703816,-0.00422257,-0.02937713,-0.00106361,0.00049984,-0.000076
 45,0.00595963,0.08723067,-0.06642009,-0.08347742,-0.31967735,-0.004787
 21,-0.00904300,-0.01545058,-0.00458457,-0.00146211,-0.00693113,-0.0005
 9933,0.00026550,0.00013179,0.07756362,0.09407676,0.33873818,-0.0039732
 2,0.02073805,0.01038787,-0.10247283,0.11182225,0.03685570,0.00808997,0
 .00682176,-0.00748084,0.00068878,-0.00147752,-0.00019712,-0.00525038,-
 0.00445799,0.00277206,0.09734881,0.00710262,-0.01217169,-0.01042308,0.
 11397655,-0.27960109,-0.09972661,0.00736224,0.00527082,-0.00009509,0.0
 0036759,-0.00222514,-0.00037211,-0.00419264,-0.00161815,0.00248746,-0.
 12790930,0.29207097,-0.01034070,0.02009104,0.01248618,0.04023944,-0.10
 465589,-0.11043300,-0.00587075,-0.00259043,-0.00037488,-0.00032194,0.0
 0157830,0.00058293,0.00312947,0.00190866,0.00017966,-0.03978808,0.1094
 7667,0.10388807,0.00084845,-0.00638540,-0.02355133,-0.07390907,-0.0081
 3889,-0.07532065,-0.00504089,-0.00543838,0.00213842,-0.00031731,0.0011
 0061,0.00002471,0.00600340,0.00820776,-0.00603911,0.00710526,0.0033784
 1,0.01274629,0.06472999,0.00623010,0.01122688,0.01937214,-0.01041613,-
 0.08514639,-0.08217372,-0.00407614,-0.00153554,0.00313509,-0.00008269,
 0.00077559,0.00000332,0.00815577,0.00210285,-0.00004297,-0.00761311,-0
 .00272881,-0.02571849,0.00761558,0.07601329,-0.00490961,-0.00825055,-0
 .01528591,-0.07837550,-0.07733036,-0.32937051,0.00383549,0.00048863,-0
 .00058798,0.00014409,-0.00024039,0.00030761,-0.00601209,-0.00005576,0.
 00116333,-0.00346434,-0.00188476,-0.00671869,0.08914330,0.08582019,0.3
 4916310,0.00463595,0.01522396,-0.01275280,-0.00065271,0.00179825,0.001
 43785,-0.07689898,-0.05704296,0.04479627,-0.01283113,-0.03111400,0.025
 68694,0.00022068,-0.00096477,0.00026977,-0.00175650,-0.00059039,0.0005
 9205,0.00085314,0.00054327,-0.00032500,0.08741899,-0.00607519,-0.02522
 220,0.02268736,0.00097722,-0.00297033,-0.00380324,-0.06000405,-0.21307
 668,0.12189143,-0.00065485,-0.00042220,0.00107961,0.00009045,0.0010000
 2,-0.00101221,0.00252249,0.00060717,-0.00032582,-0.00099027,-0.0005343
 1,0.00051846,0.06145785,0.23054699,-0.00528370,-0.00985908,0.01008112,
 0.00076355,-0.00084379,-0.00009754,0.04622038,0.12078049,-0.16212329,-
 0.00104584,-0.00106367,0.00117926,-0.00036540,0.00112032,0.00042833,0.
 00065196,0.00034428,0.00000920,0.00030018,0.00005738,0.00021237,-0.052
 09683,-0.13581434,0.16870020,0.00533217,0.00380333,0.01707687,0.000194
 28,-0.00048282,0.00071551,-0.08663384,-0.02004309,-0.08124037,-0.01185
 287,-0.00813620,-0.03757321,-0.00045963,0.00359925,0.00060923,0.000052
 58,-0.00025803,0.00010560,0.00010001,0.00010842,-0.00032886,0.00375260
 ,0.00359167,0.00997826,0.09436896,-0.01099370,-0.00740919,-0.03348379,
 -0.00130620,0.00143848,-0.00013020,-0.01857123,-0.07504394,-0.05356463
 ,-0.00067129,-0.00029866,-0.00203004,0.00341884,-0.00497591,-0.0019374
 3,-0.00024079,0.00035430,0.00031374,0.00067267,-0.00008824,0.00098070,
 0.00997095,0.00810162,0.02629093,0.01801014,0.07696112,-0.00372176,-0.
 00192767,-0.01177883,-0.00022542,0.00140907,0.00115611,-0.08063336,-0.
 05734804,-0.30050283,0.00097596,0.00067384,0.00254670,0.00088794,-0.00
 204235,0.00087655,0.00016034,0.00010350,0.00047292,0.00054247,-0.00024
 927,0.00103027,-0.00646112,-0.00451506,-0.02048480,0.08921647,0.063645
 93,0.32391156,-0.00812013,-0.00338993,-0.00211585,-0.00044990,0.001695
 79,0.00105858,-0.01380689,0.03551826,0.01272046,-0.10472440,0.09828223
 ,0.03305999,0.00025737,0.00008104,0.00029332,0.00036788,0.00075732,-0.
 00055697,-0.00034437,-0.00027550,0.00005753,0.00199353,-0.00046446,0.0
 0055551,0.00159761,-0.00001415,-0.00078066,0.11204537,-0.00014594,0.00
 066787,0.00020357,0.00001707,0.00062521,-0.00031667,-0.00378233,0.0048
 2959,0.00212326,0.10029734,-0.27498606,-0.07127118,-0.00017092,0.00005
 049,0.00014986,-0.00005998,0.00000700,-0.00003677,-0.00003053,-0.00004
 603,0.00003800,0.00081187,0.00081610,-0.00020111,0.00077944,0.00020006
 ,0.00042011,-0.10975226,0.29546952,0.00009124,-0.00028925,0.00077525,0
 .00003216,-0.00005396,0.00020214,-0.00129346,0.00138512,-0.00005017,0.
 03367511,-0.07088067,-0.08364574,-0.00023534,0.00039263,0.00026423,0.0
 0006331,0.00002230,-0.00002391,-0.00003978,-0.00005716,0.00005631,0.00
 023480,-0.00018307,-0.00023989,0.00028247,0.00049378,0.00028374,-0.036
 69390,0.07960174,0.08211678,0.00257653,-0.00168156,0.00033960,0.000133
 22,0.00080477,-0.00062981,-0.01152832,-0.02848410,0.02580974,-0.085467
 14,-0.06192656,0.05381230,-0.00022737,0.00008958,0.00013524,-0.0001675
 7,-0.00006518,-0.00000314,-0.00008122,-0.00005075,-0.00004468,-0.00867
 718,-0.00018281,-0.00022326,0.00196462,0.00011940,-0.00062858,0.005385
 97,0.01034319,-0.01131511,0.09184943,0.00030611,0.00067558,-0.00105074
 ,-0.00016325,0.00053173,0.00020494,0.00022472,-0.00069688,0.00058348,-
 0.06394873,-0.20865546,0.12770728,-0.00006153,0.00004991,0.00003355,-0
 .00016133,0.00000018,-0.00001004,0.00002890,0.00002718,-0.00004706,-0.
 00015750,0.00134749,-0.00048187,-0.00043670,-0.00017446,-0.00035778,-0
 .01032548,-0.02214658,0.02093730,0.07054210,0.22111711,-0.00010685,0.0
 0027578,-0.00017044,0.00008650,-0.00045368,0.00017567,-0.00101368,-0.0
 0188171,0.00161077,0.05541973,0.12735105,-0.17080335,0.00009123,0.0000
 4898,-0.00012258,0.00002931,-0.00005107,-0.00000560,0.00002525,0.00001
 027,-0.00003377,-0.00066272,-0.00023613,0.00147068,0.00058036,-0.00043
 853,0.00077293,-0.00530655,-0.00866403,0.00895132,-0.06024894,-0.14205
 016,0.17881250,0.00205006,-0.00104612,-0.00132284,-0.00010619,0.000403
 93,0.00027015,-0.01151855,-0.00812373,-0.03804711,-0.08929320,-0.01901
 257,-0.08404751,-0.00032601,0.00082360,0.00078706,-0.00003276,0.000070
 82,0.00006873,0.00005261,-0.00013882,0.00027966,0.00194161,-0.00026806
 ,0.00054521,-0.00841649,-0.00039463,0.00066770,0.00579796,0.00169305,0
 .01519851,0.00423904,0.00415270,0.01110635,0.09561193,0.00031704,0.000
 12070,0.00098238,-0.00005005,0.00005210,0.00003460,-0.00072410,-0.0008
 0189,-0.00230983,-0.01935702,-0.07247921,-0.05423463,0.00007220,0.0002
 1179,-0.00003799,0.00001545,0.00003443,-0.00003094,-0.00002047,-0.0000
 6647,-0.00003710,0.00006347,-0.00019367,-0.00032955,-0.00053540,0.0009
 3483,0.00018772,-0.01211286,-0.00548716,-0.03136875,0.01049192,0.00792
 420,0.02608923,0.02183983,0.06975035,0.00023496,-0.00040762,0.00008073
 ,-0.00004273,0.00039168,0.00040028,0.00080607,0.00048765,0.00205673,-0
 .08579143,-0.05410168,-0.29928590,-0.00030471,0.00055648,0.00039956,0.
 00000983,0.00011853,-0.00006287,0.00003025,-0.00015677,0.00006388,-0.0
 0071921,-0.00028698,0.00086437,0.00057766,-0.00014045,0.00171567,-0.00
 229146,-0.00204678,-0.00869008,-0.00700334,-0.00546892,-0.02065814,0.0
 9449410,0.06105486,0.32311577\\0.00003819,-0.00004060,0.00000394,0.000
 03151,0.00001972,-0.00002328,-0.00000031,0.00003223,-0.00001757,-0.000
 02942,0.00000945,0.00001582,-0.00000373,0.00002518,0.00003996,-0.00002
 171,0.00001165,0.00003172,-0.00001716,-0.00002444,-0.00002867,-0.00000
 476,-0.00001462,0.00001638,-0.00000922,-0.00002206,-0.00003885,-0.0000
 0917,-0.00002440,-0.00000759,0.00001128,0.00002062,-0.00002175,0.00001
 450,0.00000727,0.00002988\\\@


 SOME PEOPLE TRY TO PULL THE WOOL OVER YOUR EYES
 USING THE WRONG YARN.
 Job cpu time:       0 days  0 hours  0 minutes  6.7 seconds.
 File lengths (MBytes):  RWF=    132 Int=      0 D2E=      0 Chk=      3 Scr=      2
 Normal termination of Gaussian 09 at Sat Apr 16 11:53:23 2022.
