 Entering Gaussian System, Link 0=g09
 Input=/scratch/mverot/binap-dedoubl-opt-am1-freq/binap-dedoubl-opt-am1-freq.com
 Output=/scratch/mverot/binap-dedoubl-opt-am1-freq/binap-dedoubl-opt-am1-freq.log
 Initial command:
 /opt/g09/l1.exe "/scratch/mverot/binap-dedoubl-opt-am1-freq/Gau-1958824.inp" -scrdir="/scratch/mverot/binap-dedoubl-opt-am1-freq/"
 Entering Link 1 = /opt/g09/l1.exe PID=   1958826.
  
 Copyright (c) 1988,1990,1992,1993,1995,1998,2003,2009,2013,
            Gaussian, Inc.  All Rights Reserved.
  
 This is part of the Gaussian(R) 09 program.  It is based on
 the Gaussian(R) 03 system (copyright 2003, Gaussian, Inc.),
 the Gaussian(R) 98 system (copyright 1998, Gaussian, Inc.),
 the Gaussian(R) 94 system (copyright 1995, Gaussian, Inc.),
 the Gaussian 92(TM) system (copyright 1992, Gaussian, Inc.),
 the Gaussian 90(TM) system (copyright 1990, Gaussian, Inc.),
 the Gaussian 88(TM) system (copyright 1988, Gaussian, Inc.),
 the Gaussian 86(TM) system (copyright 1986, Carnegie Mellon
 University), and the Gaussian 82(TM) system (copyright 1983,
 Carnegie Mellon University). Gaussian is a federally registered
 trademark of Gaussian, Inc.
  
 This software contains proprietary and confidential information,
 including trade secrets, belonging to Gaussian, Inc.
  
 This software is provided under written license and may be
 used, copied, transmitted, or stored only in accord with that
 written license.
  
 The following legend is applicable only to US Government
 contracts under FAR:
  
                    RESTRICTED RIGHTS LEGEND
  
 Use, reproduction and disclosure by the US Government is
 subject to restrictions as set forth in subparagraphs (a)
 and (c) of the Commercial Computer Software - Restricted
 Rights clause in FAR 52.227-19.
  
 Gaussian, Inc.
 340 Quinnipiac St., Bldg. 40, Wallingford CT 06492
  
  
 ---------------------------------------------------------------
 Warning -- This program may not be used in any manner that
 competes with the business of Gaussian, Inc. or will provide
 assistance to any competitor of Gaussian, Inc.  The licensee
 of this program is prohibited from giving any competitor of
 Gaussian, Inc. access to this program.  By using this program,
 the user acknowledges that Gaussian, Inc. is engaged in the
 business of creating and licensing software in the field of
 computational chemistry and represents and warrants to the
 licensee that it is not a competitor of Gaussian, Inc. and that
 it will not use this program in any manner prohibited above.
 ---------------------------------------------------------------
  

 Cite this work as:
 Gaussian 09, Revision D.01,
 M. J. Frisch, G. W. Trucks, H. B. Schlegel, G. E. Scuseria, 
 M. A. Robb, J. R. Cheeseman, G. Scalmani, V. Barone, B. Mennucci, 
 G. A. Petersson, H. Nakatsuji, M. Caricato, X. Li, H. P. Hratchian, 
 A. F. Izmaylov, J. Bloino, G. Zheng, J. L. Sonnenberg, M. Hada, 
 M. Ehara, K. Toyota, R. Fukuda, J. Hasegawa, M. Ishida, T. Nakajima, 
 Y. Honda, O. Kitao, H. Nakai, T. Vreven, J. A. Montgomery, Jr., 
 J. E. Peralta, F. Ogliaro, M. Bearpark, J. J. Heyd, E. Brothers, 
 K. N. Kudin, V. N. Staroverov, T. Keith, R. Kobayashi, J. Normand, 
 K. Raghavachari, A. Rendell, J. C. Burant, S. S. Iyengar, J. Tomasi, 
 M. Cossi, N. Rega, J. M. Millam, M. Klene, J. E. Knox, J. B. Cross, 
 V. Bakken, C. Adamo, J. Jaramillo, R. Gomperts, R. E. Stratmann, 
 O. Yazyev, A. J. Austin, R. Cammi, C. Pomelli, J. W. Ochterski, 
 R. L. Martin, K. Morokuma, V. G. Zakrzewski, G. A. Voth, 
 P. Salvador, J. J. Dannenberg, S. Dapprich, A. D. Daniels, 
 O. Farkas, J. B. Foresman, J. V. Ortiz, J. Cioslowski, 
 and D. J. Fox, Gaussian, Inc., Wallingford CT, 2013.
 
 ******************************************
 Gaussian 09:  AM64L-G09RevD.01 24-Apr-2013
                18-Apr-2022 
 ******************************************
 %chk=binap-dedoubl-opt-freq
 -----------
 #n AM1 freq
 -----------
 1/10=4,30=1,38=1/1,3;
 2/12=2,17=6,18=5,40=1/2;
 3/5=2,16=1,25=1,41=700000,71=2,140=1/1,2,3;
 4/35=1/1;
 5/5=2,35=1,38=5,98=1/2;
 8/6=4,10=90,11=11/1;
 11/6=1,8=1,9=11,15=111,16=1/1,2,10;
 10/6=1/2;
 6/7=2,8=2,9=2,10=2,18=1,28=1/1;
 7/8=1,10=1,25=1/1,2,3,16;
 1/10=4,30=1/3;
 99//99;
 ----------
 UV-spectra
 ----------
 Symbolic Z-matrix:
 Charge =  0 Multiplicity = 1
 Cl                   -5.12434  -3.6045   -3.41062 
 O                    -4.042    -8.0718   -1.77454 
 O                    -1.17468  -7.9935   -1.10232 
 O                    -2.94888  -5.44582  -2.73986 
 N                    -5.80413  -7.41236  -4.25109 
 N                    -3.5256   -13.03912  -1.81397 
 C                    -7.05497  -7.60276  -5.07499 
 C                    -8.18686  -8.23141  -4.25784 
 C                    -7.8337   -8.13215  -2.77699 
 C                    -6.62131  -9.02115  -2.51961 
 C                    -5.5245   -8.74418  -3.56895 
 C                    -7.44931  -6.67154  -2.49726 
 C                    -6.10039  -6.39236  -3.17999 
 C                    -7.39116  -6.35493  -1.04504 
 C                    -6.84848  -5.23666  -0.56666 
 C                    -4.66033  -6.98226  -5.12917 
 C                    -5.05038  -6.21498  -6.35137 
 C                    -5.17465  -6.88785  -7.57621 
 C                    -5.45909  -6.17586  -8.73689 
 C                    -5.61986  -4.78851  -8.68297 
 C                    -5.49184  -4.12038  -7.46792 
 C                    -5.20448  -4.82691  -6.29748 
 C                    -4.10953  -8.87812  -2.93418 
 C                    -3.90141  -10.32708  -2.56666 
 C                    -3.56333  -11.29989  -3.56132 
 C                    -3.38394  -10.9864  -4.93338 
 C                    -3.06361  -11.96075  -5.8467 
 C                    -2.90664  -13.30351  -5.43318 
 C                    -3.06184  -13.65011  -4.11518 
 C                    -3.39024  -12.65656  -3.13635 
 C                    -3.8219   -12.10545  -0.93011 
 C                    -4.02246  -10.72794  -1.25542 
 C                    -0.50595  -7.8157   -2.29782 
 C                    -0.06248  -8.94508  -3.04085 
 C                     0.53416  -8.76657  -4.2608 
 C                     0.70442  -7.46183  -4.79701 
 C                     1.30165  -7.26676  -6.07274 
 C                     1.46076  -6.00317  -6.58415 
 C                     1.02989  -4.8774   -5.84186 
 C                     0.45404  -5.0376   -4.60616 
 C                     0.27592  -6.33563  -4.04742 
 C                    -0.31894  -6.51867  -2.75931 
 C                    -0.70082  -5.35252  -1.95776 
 C                    -1.98682  -4.82262  -1.99805 
 C                    -2.31939  -3.64578  -1.25866 
 C                    -1.38209  -3.04968  -0.46264 
 C                    -0.06819  -3.58628  -0.35903 
 C                     0.90542  -2.98199   0.48026 
 C                     2.17346  -3.5017    0.5708 
 C                     2.52091  -4.6501   -0.17791 
 C                     1.59774  -5.25255  -0.9969 
 C                     0.27482  -4.73914  -1.11083 
 H                    -7.36003  -6.58286  -5.44558 
 H                    -6.79826  -8.24473  -5.96188 
 H                    -9.14114  -7.6872   -4.47284 
 H                    -8.32642  -9.30277  -4.55016 
 H                    -8.69526  -8.44918  -2.13807 
 H                    -6.90377  -10.10202  -2.58075 
 H                    -6.22085  -8.81557  -1.49114 
 H                    -8.23083  -6.00461  -2.96418 
 H                    -5.26422  -6.44548  -2.42218 
 H                    -6.04725  -5.30597  -3.60369 
 H                    -7.85152  -7.10432  -0.38177 
 H                    -6.37765  -4.47692  -1.21483 
 H                    -6.83647  -5.01224   0.50819 
 H                    -5.03442  -7.97794  -7.62562 
 H                    -5.55145  -6.7036   -9.6971 
 H                    -5.8421   -4.22754  -9.60301 
 H                    -5.61049  -3.02683  -7.41903 
 H                    -5.09681  -4.27181  -5.31626 
 H                    -3.31344  -8.57062  -3.67061 
 H                    -3.48823  -9.94277  -5.26581 
 H                    -2.92076  -11.70722  -6.90811 
 H                    -2.65308  -14.06774  -6.18393 
 H                    -2.93401  -14.69504  -3.78845 
 H                    -3.91816  -12.43644   0.12134 
 H                    -4.26565  -10.00518  -0.46084 
 H                    -3.2229   -7.54625  -1.81635 
 H                    -0.1995   -9.95088  -2.61753 
 H                     0.89006  -9.62997  -4.84328 
 H                     1.6336   -8.15032  -6.63801 
 H                     1.92229  -5.84966  -7.57051 
 H                     1.16233  -3.87235  -6.26955 
 H                     0.11504  -4.16602  -4.02252 
 H                    -3.33785  -3.23321  -1.36779 
 H                    -1.62846  -2.14289   0.11094 
 H                     0.62052  -2.08841   1.05588 
 H                     2.9279   -3.03536   1.22016 
 H                     3.54081  -5.05345  -0.09536 
 H                     1.8673   -6.14556  -1.58151 
 H                    -0.94884  -8.87326  -0.76744 
 H                    -3.70038  -4.77755  -2.92184 
 H                    -5.57862  -9.52727  -4.38448 
 H                    -3.96368  -6.35588  -4.49238 
 H                    -4.12006  -7.91693  -5.45787 
 

 GradGradGradGradGradGradGradGradGradGradGradGradGradGradGradGradGradGrad
 Berny optimization.
 Initialization pass.
 Trust Radius=3.00D-01 FncErr=1.00D-07 GrdErr=1.00D-07
 Number of steps in this run=      2 maximum allowed number of steps=      2.
 GradGradGradGradGradGradGradGradGradGradGradGradGradGradGradGradGradGrad

 Stoichiometry    C46H43ClN2O3
 Framework group  C1[X(C46H43ClN2O3)]
 Deg. of freedom   279
 Full point group                 C1      NOp   1
 Largest Abelian subgroup         C1      NOp   1
 Largest concise Abelian subgroup C1      NOp   1
                         Standard orientation:                         
 ---------------------------------------------------------------------
 Center     Atomic      Atomic             Coordinates (Angstroms)
 Number     Number       Type             X           Y           Z
 ---------------------------------------------------------------------
      1         17           0        0.516065   -4.048300   -0.555370
      2          8           0       -0.757396    0.465821   -1.899238
      3          8           0        1.659337    2.110373   -1.532649
      4          8           0        1.296635   -1.226709   -0.506822
      5          7           0       -2.461680   -1.470292   -0.161371
      6          7           0       -3.259346    4.788162   -1.889708
      7          6           0       -3.768381   -2.150512    0.169515
      8          6           0       -4.738828   -2.129866   -1.014507
      9          6           0       -3.962825   -1.763281   -2.275824
     10          6           0       -3.483791   -0.322158   -2.133961
     11          6           0       -2.814570   -0.115500   -0.759091
     12          6           0       -2.740228   -2.690628   -2.344153
     13          6           0       -1.767444   -2.283460   -1.225434
     14          6           0       -2.069828   -2.669806   -3.671818
     15          6           0       -0.865538   -3.196914   -3.885689
     16          6           0       -1.615934   -1.333087    1.075633
     17          6           0       -1.838501   -2.381434    2.117774
     18          6           0       -2.696073   -2.110606    3.194642
     19          6           0       -2.852140   -3.044809    4.213416
     20          6           0       -2.152767   -4.253947    4.164812
     21          6           0       -1.298096   -4.520495    3.098227
     22          6           0       -1.133679   -3.587455    2.071538
     23          6           0       -1.629597    0.887841   -0.869353
     24          6           0       -2.200380    2.244863   -1.201867
     25          6           0       -2.812342    3.055846   -0.192999
     26          6           0       -2.913502    2.667971    1.168003
     27          6           0       -3.514965    3.484125    2.094429
     28          6           0       -4.048788    4.734083    1.705507
     29          6           0       -3.965042    5.153192    0.402167
     30          6           0       -3.338568    4.328028   -0.587645
     31          6           0       -2.672303    4.013488   -2.781891
     32          6           0       -2.124353    2.725954   -2.489288
     33          6           0        1.903067    2.134922   -0.173219
     34          6           0        1.356687    3.174553    0.629835
     35          6           0        1.538904    3.154296    1.987228
     36          6           0        2.260497    2.096431    2.602918
     37          6           0        2.435744    2.053578    4.013469
     38          6           0        3.132630    1.027198    4.600345
     39          6           0        3.686210   -0.002613    3.802197
     40          6           0        3.535119    0.016970    2.438015
     41          6           0        2.818344    1.068827    1.798764
     42          6           0        2.655637    1.105315    0.377922
     43          6           0        3.287711    0.079918   -0.457113
     44          6           0        2.611068   -1.073146   -0.842841
     45          6           0        3.267633   -2.090345   -1.602106
     46          6           0        4.564176   -1.919306   -1.998636
     47          6           0        5.277336   -0.734542   -1.662850
     48          6           0        6.619258   -0.542649   -2.087015
     49          6           0        7.303570    0.600656   -1.754168
     50          6           0        6.671886    1.601407   -0.979843
     51          6           0        5.375334    1.439502   -0.557153
     52          6           0        4.638771    0.266845   -0.887355
     53          1           0       -3.520539   -3.212825    0.453504
     54          1           0       -4.217125   -1.635708    1.062941
     55          1           0       -5.209841   -3.139738   -1.121006
     56          1           0       -5.554599   -1.385243   -0.833402
     57          1           0       -4.602712   -1.876095   -3.186229
     58          1           0       -4.342537    0.389921   -2.219411
     59          1           0       -2.748371   -0.092465   -2.950527
     60          1           0       -3.086394   -3.747003   -2.149615
     61          1           0       -0.935373   -1.646863   -1.648155
     62          1           0       -1.226619   -3.209718   -0.764821
     63          1           0       -2.649851   -2.203599   -4.484015
     64          1           0       -0.267003   -3.663162   -3.083582
     65          1           0       -0.398538   -3.190682   -4.879512
     66          1           0       -3.237231   -1.154001    3.244248
     67          1           0       -3.520757   -2.829485    5.059365
     68          1           0       -2.276017   -4.989906    4.973353
     69          1           0       -0.738786   -5.468003    3.056721
     70          1           0       -0.431228   -3.812972    1.212331
     71          1           0       -1.074433    0.955477    0.109361
     72          1           0       -2.488575    1.704444    1.486763
     73          1           0       -3.583746    3.177370    3.149156
     74          1           0       -4.529294    5.369689    2.465173
     75          1           0       -4.374678    6.129893    0.096848
     76          1           0       -2.616271    4.407485   -3.814360
     77          1           0       -1.646703    2.137293   -3.288161
     78          1           0        0.153422    0.486549   -1.554464
     79          1           0        0.799101    3.988528    0.143874
     80          1           0        1.129545    3.956025    2.620530
     81          1           0        2.001860    2.861300    4.621513
     82          1           0        3.269509    0.991748    5.690987
     83          1           0        4.238563   -0.819265    4.290635
     84          1           0        3.962338   -0.781809    1.809814
     85          1           0        2.704098   -3.010847   -1.835509
     86          1           0        5.078733   -2.696937   -2.583858
     87          1           0        7.097664   -1.330609   -2.688039
     88          1           0        8.341997    0.750747   -2.081998
     89          1           0        7.233754    2.510714   -0.720644
     90          1           0        4.882922    2.216947    0.047003
     91          1           0        1.422009    3.008560   -1.804785
     92          1           0        1.060823   -2.219180   -0.568864
     93          1           0       -3.558213    0.353390   -0.046088
     94          1           0       -0.532213   -1.347478    0.746213
     95          1           0       -1.849922   -0.327845    1.532014
 ---------------------------------------------------------------------
 Rotational constants (GHZ):      0.0622780      0.0473516      0.0409844
 Standard basis: VSTO-6G (5D, 7F)
 There are   251 symmetry adapted cartesian basis functions of A   symmetry.
 There are   251 symmetry adapted basis functions of A   symmetry.
   251 basis functions,  1506 primitive gaussians,   251 cartesian basis functions
   131 alpha electrons      131 beta electrons
       nuclear repulsion energy      3720.9191596053 Hartrees.
 Integral buffers will be    131072 words long.
 Regular integral format.
 Two-electron integral symmetry is turned off.
 Do NDO integrals.
 One-electron integrals computed using PRISM.
 NBasis=   251 RedAO= F EigKep=  0.00D+00  NBF=   251
 NBsUse=   251 1.00D-04 EigRej=  0.00D+00 NBFU=   251
 Simple Huckel Guess.
 Overlap will be assumed to be unity.
 Keep J ints in memory in canonical form, NReq=1293887.
 Requested convergence on RMS density matrix=1.00D-08 within 128 cycles.
 Requested convergence on MAX density matrix=1.00D-06.
 Requested convergence on             energy=1.00D-06.
 No special actions if energy rises.
 SCF Done:  E(RAM1) =  0.106559659246     A.U. after   17 cycles
            NFock= 16  Conv=0.85D-08     -V/T= 1.0005
 Range of M.O.s used for correlation:     1   251
 NBasis=   251 NAE=   131 NBE=   131 NFC=     0 NFV=     0
 NROrb=    251 NOA=   131 NOB=   131 NVA=   120 NVB=   120
 Symmetrizing basis deriv contribution to polar:
 IMax=3 JMax=2 DiffMx= 0.00D+00
 G2DrvN: will do    96 centers at a time, making    1 passes.
 Calling FoFCou, ICntrl=  3107 FMM=F I1Cent=   0 AccDes= 0.00D+00.
 End of G2Drv F.D. properties file   721 does not exist.
 End of G2Drv F.D. properties file   722 does not exist.
 End of G2Drv F.D. properties file   788 does not exist.
          IDoAtm=11111111111111111111111111111111111111111111111111
          IDoAtm=111111111111111111111111111111111111111111111
          Differentiating once with respect to electric field.
                with respect to dipole field.
          Differentiating once with respect to nuclear coordinates.
          Electric field/nuclear overlap derivatives assumed to be zero.
 Keep J ints in memory in canonical form, NReq=1117187.
          There are   288 degrees of freedom in the 1st order CPHF.  IDoFFX=5 NUNeed=   288.
 LinEq1:  Iter=  0 NonCon=   288 RMS=1.22D-01 Max=5.41D+00 NDo=   288
 AX will form   288 AO Fock derivatives at one time.
 LinEq1:  Iter=  1 NonCon=   288 RMS=2.43D-02 Max=6.58D-01 NDo=   288
 LinEq1:  Iter=  2 NonCon=   288 RMS=4.67D-03 Max=2.16D-01 NDo=   288
 LinEq1:  Iter=  3 NonCon=   288 RMS=1.33D-03 Max=7.17D-02 NDo=   288
 LinEq1:  Iter=  4 NonCon=   288 RMS=4.23D-04 Max=2.21D-02 NDo=   288
 LinEq1:  Iter=  5 NonCon=   288 RMS=1.17D-04 Max=4.43D-03 NDo=   288
 LinEq1:  Iter=  6 NonCon=   288 RMS=2.71D-05 Max=9.24D-04 NDo=   288
 LinEq1:  Iter=  7 NonCon=   287 RMS=6.74D-06 Max=2.87D-04 NDo=   288
 LinEq1:  Iter=  8 NonCon=   229 RMS=1.89D-06 Max=6.82D-05 NDo=   288
 LinEq1:  Iter=  9 NonCon=    83 RMS=5.06D-07 Max=1.52D-05 NDo=   288
 LinEq1:  Iter= 10 NonCon=     3 RMS=1.10D-07 Max=2.82D-06 NDo=   288
 LinEq1:  Iter= 11 NonCon=     3 RMS=2.31D-08 Max=7.39D-07 NDo=   288
 LinEq1:  Iter= 12 NonCon=     3 RMS=5.08D-09 Max=2.10D-07 NDo=   288
 LinEq1:  Iter= 13 NonCon=     0 RMS=1.18D-09 Max=3.79D-08 NDo=   288
 Linear equations converged to 1.000D-08 1.000D-07 after    13 iterations.
 Isotropic polarizability for W=    0.000000      444.67 Bohr**3.
 End of Minotr F.D. properties file   721 does not exist.
 End of Minotr F.D. properties file   722 does not exist.
 End of Minotr F.D. properties file   788 does not exist.

 **********************************************************************

            Population analysis using the SCF density.

 **********************************************************************

 Orbital symmetries:
       Occupied  (A) (A) (A) (A) (A) (A) (A) (A) (A) (A) (A) (A)
                 (A) (A) (A) (A) (A) (A) (A) (A) (A) (A) (A) (A)
                 (A) (A) (A) (A) (A) (A) (A) (A) (A) (A) (A) (A)
                 (A) (A) (A) (A) (A) (A) (A) (A) (A) (A) (A) (A)
                 (A) (A) (A) (A) (A) (A) (A) (A) (A) (A) (A) (A)
                 (A) (A) (A) (A) (A) (A) (A) (A) (A) (A) (A) (A)
                 (A) (A) (A) (A) (A) (A) (A) (A) (A) (A) (A) (A)
                 (A) (A) (A) (A) (A) (A) (A) (A) (A) (A) (A) (A)
                 (A) (A) (A) (A) (A) (A) (A) (A) (A) (A) (A) (A)
                 (A) (A) (A) (A) (A) (A) (A) (A) (A) (A) (A) (A)
                 (A) (A) (A) (A) (A) (A) (A) (A) (A) (A) (A)
       Virtual   (A) (A) (A) (A) (A) (A) (A) (A) (A) (A) (A) (A)
                 (A) (A) (A) (A) (A) (A) (A) (A) (A) (A) (A) (A)
                 (A) (A) (A) (A) (A) (A) (A) (A) (A) (A) (A) (A)
                 (A) (A) (A) (A) (A) (A) (A) (A) (A) (A) (A) (A)
                 (A) (A) (A) (A) (A) (A) (A) (A) (A) (A) (A) (A)
                 (A) (A) (A) (A) (A) (A) (A) (A) (A) (A) (A) (A)
                 (A) (A) (A) (A) (A) (A) (A) (A) (A) (A) (A) (A)
                 (A) (A) (A) (A) (A) (A) (A) (A) (A) (A) (A) (A)
                 (A) (A) (A) (A) (A) (A) (A) (A) (A) (A) (A) (A)
                 (A) (A) (A) (A) (A) (A) (A) (A) (A) (A) (A) (A)
 The electronic state is 1-A.
 Alpha  occ. eigenvalues --   -1.60625  -1.52418  -1.51304  -1.46560  -1.46068
 Alpha  occ. eigenvalues --   -1.43343  -1.42033  -1.39602  -1.38786  -1.36586
 Alpha  occ. eigenvalues --   -1.31351  -1.29394  -1.28787  -1.27293  -1.25792
 Alpha  occ. eigenvalues --   -1.21403  -1.19160  -1.17027  -1.16551  -1.15757
 Alpha  occ. eigenvalues --   -1.15641  -1.14686  -1.11908  -1.11733  -1.10075
 Alpha  occ. eigenvalues --   -1.08700  -1.03756  -1.03626  -1.02426  -0.93420
 Alpha  occ. eigenvalues --   -0.93286  -0.92021  -0.90677  -0.89565  -0.87780
 Alpha  occ. eigenvalues --   -0.87010  -0.86318  -0.85909  -0.84713  -0.83817
 Alpha  occ. eigenvalues --   -0.82140  -0.81139  -0.77226  -0.76957  -0.72370
 Alpha  occ. eigenvalues --   -0.71652  -0.71559  -0.69846  -0.69391  -0.68716
 Alpha  occ. eigenvalues --   -0.67933  -0.67613  -0.66303  -0.66030  -0.64578
 Alpha  occ. eigenvalues --   -0.64083  -0.63769  -0.62960  -0.61831  -0.60507
 Alpha  occ. eigenvalues --   -0.60034  -0.59822  -0.59062  -0.58906  -0.58574
 Alpha  occ. eigenvalues --   -0.57686  -0.57617  -0.56801  -0.56409  -0.56305
 Alpha  occ. eigenvalues --   -0.56183  -0.56104  -0.55777  -0.55150  -0.54701
 Alpha  occ. eigenvalues --   -0.54638  -0.53876  -0.53663  -0.53562  -0.53490
 Alpha  occ. eigenvalues --   -0.53022  -0.52873  -0.52554  -0.52348  -0.51766
 Alpha  occ. eigenvalues --   -0.51131  -0.50995  -0.50700  -0.50529  -0.50357
 Alpha  occ. eigenvalues --   -0.49703  -0.49557  -0.49342  -0.48975  -0.48683
 Alpha  occ. eigenvalues --   -0.48007  -0.47927  -0.47590  -0.46844  -0.46758
 Alpha  occ. eigenvalues --   -0.46373  -0.46061  -0.45461  -0.45253  -0.44778
 Alpha  occ. eigenvalues --   -0.44465  -0.44307  -0.44046  -0.43296  -0.43059
 Alpha  occ. eigenvalues --   -0.42710  -0.42475  -0.42304  -0.41836  -0.40828
 Alpha  occ. eigenvalues --   -0.40433  -0.40191  -0.38029  -0.36953  -0.36912
 Alpha  occ. eigenvalues --   -0.36706  -0.36531  -0.36061  -0.35615  -0.33757
 Alpha  occ. eigenvalues --   -0.32731  -0.31956  -0.31698  -0.31263  -0.30988
 Alpha  occ. eigenvalues --   -0.29237
 Alpha virt. eigenvalues --   -0.03998  -0.02302  -0.01428  -0.01007   0.00622
 Alpha virt. eigenvalues --    0.00684   0.01115   0.01447   0.01821   0.02620
 Alpha virt. eigenvalues --    0.04446   0.05021   0.05233   0.05917   0.06804
 Alpha virt. eigenvalues --    0.06960   0.07556   0.07770   0.09082   0.09256
 Alpha virt. eigenvalues --    0.09418   0.09455   0.09605   0.09716   0.09885
 Alpha virt. eigenvalues --    0.10378   0.10468   0.10520   0.10953   0.11043
 Alpha virt. eigenvalues --    0.11237   0.11333   0.11536   0.11705   0.11960
 Alpha virt. eigenvalues --    0.11975   0.11995   0.12273   0.12506   0.12627
 Alpha virt. eigenvalues --    0.12712   0.13081   0.13223   0.13305   0.13358
 Alpha virt. eigenvalues --    0.13397   0.13510   0.13726   0.13802   0.13938
 Alpha virt. eigenvalues --    0.14013   0.14143   0.14216   0.14532   0.14557
 Alpha virt. eigenvalues --    0.14611   0.14792   0.14828   0.15075   0.15164
 Alpha virt. eigenvalues --    0.15240   0.15430   0.15546   0.15664   0.15724
 Alpha virt. eigenvalues --    0.15855   0.15878   0.16051   0.16142   0.16245
 Alpha virt. eigenvalues --    0.16308   0.16330   0.16394   0.16540   0.16598
 Alpha virt. eigenvalues --    0.16654   0.16775   0.16839   0.17169   0.17456
 Alpha virt. eigenvalues --    0.17614   0.17699   0.17865   0.17913   0.17965
 Alpha virt. eigenvalues --    0.18139   0.18215   0.18291   0.18369   0.18537
 Alpha virt. eigenvalues --    0.18620   0.19157   0.19179   0.19475   0.19538
 Alpha virt. eigenvalues --    0.19609   0.19655   0.19749   0.19944   0.20020
 Alpha virt. eigenvalues --    0.20431   0.20606   0.20973   0.21102   0.21201
 Alpha virt. eigenvalues --    0.21226   0.21408   0.21683   0.21728   0.21910
 Alpha virt. eigenvalues --    0.21944   0.22294   0.22390   0.22615   0.22716
 Alpha virt. eigenvalues --    0.23222   0.23270   0.23677   0.24120   0.26248
          Condensed to atoms (all electrons):
 Mulliken charges:
               1
     1  Cl  -0.794643
     2  O   -0.328996
     3  O   -0.253378
     4  O   -0.363373
     5  N    0.049621
     6  N   -0.122106
     7  C   -0.116525
     8  C   -0.174230
     9  C   -0.113527
    10  C   -0.164022
    11  C   -0.068905
    12  C   -0.069943
    13  C   -0.212652
    14  C   -0.191558
    15  C   -0.191348
    16  C   -0.066843
    17  C   -0.152213
    18  C   -0.125061
    19  C   -0.146364
    20  C   -0.109025
    21  C   -0.128779
    22  C   -0.118525
    23  C    0.069925
    24  C   -0.072928
    25  C   -0.072505
    26  C   -0.132470
    27  C   -0.115324
    28  C   -0.127140
    29  C   -0.090380
    30  C   -0.005737
    31  C   -0.059734
    32  C   -0.150663
    33  C    0.049174
    34  C   -0.196006
    35  C   -0.093613
    36  C   -0.065751
    37  C   -0.122025
    38  C   -0.129283
    39  C   -0.125531
    40  C   -0.104910
    41  C   -0.003357
    42  C   -0.011956
    43  C   -0.113615
    44  C    0.141685
    45  C   -0.184257
    46  C   -0.087209
    47  C   -0.074054
    48  C   -0.105707
    49  C   -0.147429
    50  C   -0.123470
    51  C   -0.128221
    52  C    0.015721
    53  H    0.148074
    54  H    0.115629
    55  H    0.112488
    56  H    0.096315
    57  H    0.122040
    58  H    0.102587
    59  H    0.136582
    60  H    0.111036
    61  H    0.159878
    62  H    0.242111
    63  H    0.116409
    64  H    0.159758
    65  H    0.113505
    66  H    0.117382
    67  H    0.132073
    68  H    0.134206
    69  H    0.148971
    70  H    0.237186
    71  H    0.111038
    72  H    0.123335
    73  H    0.138052
    74  H    0.141328
    75  H    0.155603
    76  H    0.166679
    77  H    0.170879
    78  H    0.261858
    79  H    0.134284
    80  H    0.133620
    81  H    0.127636
    82  H    0.130793
    83  H    0.135586
    84  H    0.155291
    85  H    0.174308
    86  H    0.133052
    87  H    0.127975
    88  H    0.127317
    89  H    0.126424
    90  H    0.135215
    91  H    0.215424
    92  H    0.294070
    93  H    0.117993
    94  H    0.180876
    95  H    0.104297
 Sum of Mulliken charges =  -0.00000
 Mulliken charges with hydrogens summed into heavy atoms:
               1
     1  Cl  -0.794643
     2  O   -0.067138
     3  O   -0.037954
     4  O   -0.069303
     5  N    0.049621
     6  N   -0.122106
     7  C    0.147179
     8  C    0.034573
     9  C    0.008513
    10  C    0.075147
    11  C    0.049088
    12  C    0.041092
    13  C    0.189337
    14  C   -0.075149
    15  C    0.081915
    16  C    0.218330
    17  C   -0.152213
    18  C   -0.007679
    19  C   -0.014291
    20  C    0.025181
    21  C    0.020192
    22  C    0.118661
    23  C    0.180963
    24  C   -0.072928
    25  C   -0.072505
    26  C   -0.009135
    27  C    0.022728
    28  C    0.014187
    29  C    0.065223
    30  C   -0.005737
    31  C    0.106945
    32  C    0.020217
    33  C    0.049174
    34  C   -0.061723
    35  C    0.040007
    36  C   -0.065751
    37  C    0.005610
    38  C    0.001510
    39  C    0.010056
    40  C    0.050381
    41  C   -0.003357
    42  C   -0.011956
    43  C   -0.113615
    44  C    0.141685
    45  C   -0.009949
    46  C    0.045843
    47  C   -0.074054
    48  C    0.022268
    49  C   -0.020112
    50  C    0.002954
    51  C    0.006994
    52  C    0.015721
 APT charges:
               1
     1  Cl  -1.309503
     2  O   -0.525076
     3  O   -0.575619
     4  O   -1.123703
     5  N   -0.389992
     6  N   -0.251524
     7  C    0.043248
     8  C   -0.079575
     9  C   -0.032528
    10  C   -0.085096
    11  C    0.079872
    12  C    0.043935
    13  C   -0.171348
    14  C   -0.157390
    15  C   -0.173989
    16  C    0.265199
    17  C   -0.215799
    18  C   -0.056093
    19  C   -0.221911
    20  C   -0.025851
    21  C   -0.158147
    22  C   -0.225038
    23  C    0.436412
    24  C   -0.028597
    25  C   -0.143143
    26  C   -0.130269
    27  C   -0.085310
    28  C   -0.125698
    29  C   -0.094732
    30  C    0.015299
    31  C    0.093404
    32  C   -0.253261
    33  C    0.314606
    34  C   -0.152891
    35  C   -0.037660
    36  C   -0.128609
    37  C   -0.117140
    38  C   -0.119912
    39  C   -0.069815
    40  C   -0.145294
    41  C    0.050638
    42  C   -0.017977
    43  C   -0.291025
    44  C    0.754006
    45  C   -0.259883
    46  C    0.043601
    47  C   -0.236130
    48  C   -0.013820
    49  C   -0.212751
    50  C   -0.045710
    51  C   -0.140766
    52  C    0.114450
    53  H    0.087927
    54  H    0.054984
    55  H    0.062537
    56  H    0.037249
    57  H    0.064897
    58  H    0.040332
    59  H    0.093539
    60  H    0.030675
    61  H    0.137348
    62  H    0.491000
    63  H    0.079536
    64  H    0.171866
    65  H    0.099320
    66  H    0.088719
    67  H    0.120614
    68  H    0.132310
    69  H    0.141307
    70  H    0.462033
    71  H    0.026576
    72  H    0.106197
    73  H    0.130394
    74  H    0.146038
    75  H    0.161366
    76  H    0.165787
    77  H    0.173529
    78  H    0.312382
    79  H    0.119278
    80  H    0.120103
    81  H    0.111383
    82  H    0.128010
    83  H    0.125212
    84  H    0.133930
    85  H    0.199427
    86  H    0.123630
    87  H    0.114225
    88  H    0.128227
    89  H    0.111443
    90  H    0.107432
    91  H    0.251771
    92  H    0.765991
    93  H    0.036395
    94  H    0.148180
    95  H    0.030844
 Sum of APT charges =   0.00003
 APT charges with hydrogens summed into heavy atoms:
               1
     1  Cl  -1.309503
     2  O   -0.212694
     3  O   -0.323848
     4  O   -0.357712
     5  N   -0.389992
     6  N   -0.251524
     7  C    0.186159
     8  C    0.020212
     9  C    0.032369
    10  C    0.048774
    11  C    0.116266
    12  C    0.074610
    13  C    0.457000
    14  C   -0.077855
    15  C    0.097198
    16  C    0.444223
    17  C   -0.215799
    18  C    0.032627
    19  C   -0.101297
    20  C    0.106459
    21  C   -0.016840
    22  C    0.236994
    23  C    0.462988
    24  C   -0.028597
    25  C   -0.143143
    26  C   -0.024072
    27  C    0.045083
    28  C    0.020339
    29  C    0.066634
    30  C    0.015299
    31  C    0.259191
    32  C   -0.079733
    33  C    0.314606
    34  C   -0.033613
    35  C    0.082443
    36  C   -0.128609
    37  C   -0.005757
    38  C    0.008098
    39  C    0.055397
    40  C   -0.011363
    41  C    0.050638
    42  C   -0.017977
    43  C   -0.291025
    44  C    0.754006
    45  C   -0.060457
    46  C    0.167230
    47  C   -0.236130
    48  C    0.100405
    49  C   -0.084524
    50  C    0.065734
    51  C   -0.033334
    52  C    0.114450
 Charge=              0.0000 electrons
 Dipole moment (field-independent basis, Debye):
    X=             -9.4465    Y=              5.0685    Z=              2.5621  Tot=             11.0223
 N-N= 3.720919159605D+03 E-N=-7.035362188222D+03  KE=-2.187060914729D+02
  Exact polarizability: 408.803 -74.409 453.105 -63.043   3.416 472.099
 Approx polarizability: 301.614 -75.073 371.312 -55.579   9.071 395.493
 Calling FoFJK, ICntrl=    100127 FMM=F ISym2X=0 I1Cent= 0 IOpClX= 0 NMat=1 NMatS=1 NMatT=0.
 Full mass-weighted force constant matrix:
 Low frequencies ---   -0.3849   -0.2089   -0.0744   -0.0119    0.2587    0.4243
 Low frequencies ---    6.4065    8.9123   15.3277
 Diagonal vibrational polarizability:
      321.4316094     148.0633252     415.9231898
 Harmonic frequencies (cm**-1), IR intensities (KM/Mole), Raman scattering
 activities (A**4/AMU), depolarization ratios for plane and unpolarized
 incident light, reduced masses (AMU), force constants (mDyne/A),
 and normal coordinates:
                      1                      2                      3
                      A                      A                      A
 Frequencies --      6.4064                 8.9123                15.3277
 Red. masses --      6.1956                 6.1416                 6.7607
 Frc consts  --      0.0001                 0.0003                 0.0009
 IR Inten    --      0.2056                 0.7486                 0.0694
  Atom  AN      X      Y      Z        X      Y      Z        X      Y      Z
     1  17    -0.01  -0.00  -0.07    -0.00  -0.00  -0.07     0.02  -0.01   0.04
     2   8    -0.02   0.01  -0.01    -0.02   0.00  -0.04     0.04  -0.07   0.01
     3   8     0.04  -0.04  -0.11    -0.02   0.01   0.04     0.01   0.07  -0.03
     4   8     0.00  -0.00  -0.06    -0.01  -0.01  -0.07    -0.01  -0.01   0.02
     5   7     0.01  -0.00   0.00     0.02   0.03   0.02     0.00  -0.02   0.02
     6   7    -0.01   0.01   0.07    -0.03  -0.01  -0.09     0.16   0.00   0.01
     7   6     0.01  -0.00   0.02     0.03   0.03   0.06    -0.01  -0.00   0.01
     8   6    -0.01   0.01   0.04    -0.01   0.02   0.09    -0.00   0.01   0.00
     9   6    -0.04   0.02   0.03    -0.04   0.00   0.06     0.01  -0.01   0.01
    10   6    -0.03   0.02   0.03    -0.04   0.00   0.03     0.04  -0.02   0.00
    11   6    -0.00   0.00   0.02     0.00   0.02   0.01     0.03  -0.02   0.01
    12   6    -0.04   0.02  -0.00    -0.05  -0.00   0.04    -0.00  -0.03   0.02
    13   6    -0.02   0.00  -0.02    -0.01   0.01   0.01    -0.00  -0.04   0.02
    14   6    -0.07   0.02  -0.01    -0.09  -0.02   0.02     0.01  -0.06   0.03
    15   6    -0.07   0.02  -0.04    -0.10  -0.03  -0.01     0.00  -0.07   0.04
    16   6     0.03  -0.01  -0.01     0.05   0.04  -0.01    -0.00  -0.03   0.02
    17   6     0.05  -0.02  -0.02     0.09   0.05   0.00    -0.02  -0.03   0.02
    18   6     0.07  -0.03   0.00     0.13   0.05   0.03    -0.03  -0.03   0.01
    19   6     0.08  -0.04  -0.00     0.17   0.05   0.04    -0.04  -0.04   0.00
    20   6     0.08  -0.04  -0.02     0.18   0.06   0.03    -0.05  -0.04   0.01
    21   6     0.06  -0.03  -0.04     0.14   0.06  -0.00    -0.04  -0.04   0.02
    22   6     0.04  -0.02  -0.04     0.10   0.05  -0.01    -0.02  -0.04   0.02
    23   6    -0.00   0.00   0.01    -0.00   0.02  -0.03     0.05  -0.04   0.01
    24   6    -0.00   0.00   0.03    -0.01   0.01  -0.05     0.08  -0.03   0.01
    25   6     0.02  -0.00   0.05    -0.00   0.03  -0.06     0.11  -0.01   0.01
    26   6     0.04  -0.01   0.05     0.02   0.06  -0.05     0.11  -0.01   0.01
    27   6     0.06  -0.02   0.06     0.03   0.07  -0.06     0.15   0.02   0.02
    28   6     0.06  -0.02   0.08     0.02   0.06  -0.08     0.20   0.04   0.02
    29   6     0.03  -0.00   0.09     0.00   0.04  -0.09     0.20   0.03   0.02
    30   6     0.01   0.00   0.07    -0.01   0.02  -0.08     0.16   0.01   0.01
    31   6    -0.03   0.02   0.05    -0.04  -0.02  -0.08     0.12  -0.02   0.01
    32   6    -0.03   0.01   0.03    -0.03  -0.01  -0.06     0.08  -0.04   0.01
    33   6     0.01  -0.00  -0.11    -0.03  -0.03   0.04    -0.02   0.04  -0.02
    34   6    -0.01   0.02  -0.15    -0.04  -0.05   0.07    -0.03   0.04  -0.02
    35   6    -0.05   0.06  -0.15    -0.06  -0.09   0.07    -0.07   0.02  -0.01
    36   6    -0.08   0.07  -0.10    -0.06  -0.10   0.05    -0.10  -0.01  -0.01
    37   6    -0.12   0.11  -0.09    -0.07  -0.14   0.05    -0.15  -0.03  -0.01
    38   6    -0.15   0.12  -0.04    -0.08  -0.15   0.03    -0.18  -0.06  -0.00
    39   6    -0.13   0.10   0.01    -0.06  -0.13   0.00    -0.17  -0.05  -0.00
    40   6    -0.09   0.06   0.00    -0.04  -0.09   0.00    -0.13  -0.02  -0.01
    41   6    -0.06   0.05  -0.05    -0.04  -0.07   0.02    -0.09  -0.00  -0.01
    42   6    -0.01   0.01  -0.06    -0.03  -0.03   0.02    -0.05   0.03  -0.02
    43   6     0.01  -0.02  -0.01    -0.01  -0.01   0.00    -0.04   0.03  -0.02
    44   6     0.02  -0.02  -0.01    -0.00   0.00  -0.04    -0.02   0.02   0.00
    45   6     0.04  -0.04   0.03     0.01   0.02  -0.06    -0.01   0.03  -0.00
    46   6     0.05  -0.06   0.08     0.02   0.04  -0.03    -0.02   0.05  -0.02
    47   6     0.05  -0.06   0.08     0.01   0.03   0.01    -0.04   0.07  -0.04
    48   6     0.07  -0.07   0.14     0.02   0.04   0.04    -0.05   0.10  -0.07
    49   6     0.07  -0.07   0.14     0.01   0.04   0.08    -0.07   0.12  -0.09
    50   6     0.04  -0.05   0.10    -0.00   0.01   0.10    -0.08   0.11  -0.08
    51   6     0.02  -0.04   0.05    -0.01  -0.00   0.07    -0.07   0.08  -0.06
    52   6     0.03  -0.04   0.04    -0.00   0.01   0.03    -0.05   0.06  -0.04
    53   1     0.01  -0.00   0.01     0.03   0.03   0.07    -0.03  -0.00   0.02
    54   1     0.03  -0.01   0.04     0.05   0.04   0.07    -0.01   0.01   0.00
    55   1    -0.02   0.01   0.04    -0.01   0.02   0.12    -0.02   0.02   0.01
    56   1    -0.01   0.01   0.06    -0.00   0.03   0.11     0.01   0.02  -0.01
    57   1    -0.05   0.03   0.04    -0.07  -0.01   0.08     0.02  -0.01   0.00
    58   1    -0.03   0.02   0.05    -0.03   0.00   0.04     0.05  -0.01  -0.01
    59   1    -0.04   0.02   0.02    -0.05  -0.01   0.01     0.04  -0.04   0.00
    60   1    -0.04   0.02  -0.00    -0.04   0.00   0.06    -0.02  -0.03   0.03
    61   1    -0.02   0.01  -0.03    -0.02   0.00  -0.02     0.01  -0.05   0.02
    62   1    -0.01  -0.00  -0.03    -0.00   0.02   0.00    -0.01  -0.04   0.03
    63   1    -0.08   0.03   0.00    -0.11  -0.02   0.03     0.01  -0.07   0.02
    64   1    -0.06   0.01  -0.06    -0.08  -0.03  -0.02    -0.00  -0.06   0.05
    65   1    -0.09   0.03  -0.05    -0.12  -0.04  -0.02     0.01  -0.08   0.04
    66   1     0.07  -0.03   0.02     0.12   0.04   0.04    -0.02  -0.03   0.01
    67   1     0.10  -0.04   0.01     0.20   0.06   0.07    -0.05  -0.04  -0.00
    68   1     0.09  -0.04  -0.03     0.21   0.06   0.04    -0.06  -0.04   0.00
    69   1     0.06  -0.03  -0.06     0.15   0.06  -0.01    -0.04  -0.04   0.02
    70   1     0.02  -0.02  -0.05     0.07   0.05  -0.04    -0.01  -0.03   0.03
    71   1     0.02  -0.01  -0.00     0.01   0.04  -0.04     0.05  -0.06   0.01
    72   1     0.05  -0.02   0.03     0.02   0.06  -0.04     0.08  -0.02   0.01
    73   1     0.08  -0.03   0.06     0.04   0.09  -0.05     0.15   0.02   0.02
    74   1     0.07  -0.02   0.10     0.02   0.08  -0.08     0.23   0.06   0.03
    75   1     0.03  -0.00   0.10    -0.01   0.03  -0.10     0.23   0.05   0.02
    76   1    -0.05   0.03   0.05    -0.05  -0.04  -0.09     0.12  -0.03   0.01
    77   1    -0.05   0.02   0.02    -0.04  -0.03  -0.06     0.06  -0.05   0.00
    78   1    -0.02  -0.00  -0.03    -0.01   0.00  -0.05     0.05  -0.01  -0.01
    79   1     0.01   0.01  -0.19    -0.04  -0.04   0.08    -0.00   0.06  -0.02
    80   1    -0.06   0.08  -0.18    -0.07  -0.11   0.09    -0.07   0.01  -0.01
    81   1    -0.13   0.13  -0.13    -0.09  -0.16   0.07    -0.15  -0.04  -0.01
    82   1    -0.18   0.15  -0.04    -0.09  -0.18   0.03    -0.21  -0.08   0.00
    83   1    -0.15   0.11   0.05    -0.06  -0.14  -0.01    -0.20  -0.07  -0.00
    84   1    -0.07   0.04   0.04    -0.03  -0.07  -0.01    -0.12  -0.02  -0.01
    85   1     0.04  -0.04   0.02     0.02   0.03  -0.09     0.01   0.01   0.01
    86   1     0.07  -0.07   0.11     0.03   0.05  -0.05    -0.01   0.06  -0.03
    87   1     0.09  -0.09   0.17     0.03   0.06   0.02    -0.04   0.11  -0.07
    88   1     0.08  -0.09   0.18     0.01   0.05   0.10    -0.08   0.14  -0.10
    89   1     0.04  -0.05   0.10    -0.01   0.01   0.13    -0.10   0.12  -0.09
    90   1     0.01  -0.02   0.01    -0.02  -0.02   0.09    -0.08   0.07  -0.05
    91   1     0.05  -0.05  -0.15     0.01   0.02   0.06     0.03   0.07  -0.02
    92   1    -0.01  -0.00  -0.07    -0.00  -0.01  -0.08     0.01  -0.01   0.03
    93   1     0.01  -0.00   0.04     0.02   0.03   0.02     0.04  -0.00  -0.00
    94   1     0.02  -0.02  -0.03     0.04   0.05  -0.04    -0.00  -0.04   0.03
    95   1     0.04  -0.02   0.00     0.05   0.04  -0.01     0.00  -0.03   0.02
                      4                      5                      6
                      A                      A                      A
 Frequencies --     17.1908                23.9832                33.8436
 Red. masses --      6.2284                 5.4571                 5.3281
 Frc consts  --      0.0011                 0.0018                 0.0036
 IR Inten    --      0.5860                 0.4248                 0.4944
  Atom  AN      X      Y      Z        X      Y      Z        X      Y      Z
     1  17     0.01  -0.04   0.07     0.00  -0.01   0.04    -0.01  -0.05  -0.04
     2   8     0.02   0.08   0.01    -0.05   0.03  -0.12    -0.01   0.03   0.07
     3   8     0.09   0.02  -0.06    -0.08  -0.04   0.02     0.00  -0.04   0.01
     4   8     0.01  -0.04  -0.01    -0.02  -0.00  -0.04     0.00  -0.06   0.10
     5   7     0.06   0.03   0.00     0.01  -0.01  -0.05     0.00  -0.00   0.02
     6   7    -0.08   0.02   0.05    -0.09   0.00   0.05    -0.07  -0.02  -0.07
     7   6     0.07   0.00  -0.02     0.02  -0.03  -0.05     0.01  -0.04  -0.01
     8   6     0.08  -0.02  -0.03     0.03  -0.07  -0.05     0.03  -0.06  -0.02
     9   6     0.09   0.00  -0.02     0.02  -0.06  -0.05     0.03   0.00  -0.01
    10   6     0.05   0.01  -0.00    -0.01  -0.04  -0.06    -0.02   0.01   0.03
    11   6     0.03   0.02   0.00    -0.01  -0.02  -0.06    -0.02   0.00   0.03
    12   6     0.11   0.03  -0.01     0.05  -0.03  -0.04     0.06   0.05  -0.02
    13   6     0.09   0.05   0.01     0.03  -0.00  -0.03     0.03   0.03   0.02
    14   6     0.13   0.06   0.01     0.06  -0.02  -0.03     0.09   0.13  -0.01
    15   6     0.14   0.06   0.02     0.06  -0.02  -0.02     0.11   0.18  -0.01
    16   6     0.04   0.05   0.01    -0.00   0.02  -0.04    -0.02   0.00   0.03
    17   6     0.02   0.06   0.03    -0.02   0.05  -0.02     0.01  -0.03   0.00
    18   6     0.02   0.09   0.02    -0.02   0.09  -0.03    -0.00  -0.08   0.01
    19   6    -0.00   0.11   0.03    -0.03   0.12  -0.00     0.02  -0.11  -0.02
    20   6    -0.01   0.10   0.06    -0.04   0.11   0.04     0.06  -0.09  -0.04
    21   6    -0.01   0.07   0.07    -0.04   0.07   0.05     0.07  -0.04  -0.05
    22   6     0.00   0.05   0.05    -0.03   0.04   0.02     0.04  -0.01  -0.03
    23   6     0.01   0.05   0.01    -0.03  -0.00  -0.08    -0.04   0.02   0.04
    24   6    -0.01   0.04   0.03    -0.05  -0.01  -0.04    -0.06   0.01   0.01
    25   6    -0.04   0.01   0.03     0.02  -0.01   0.01    -0.02   0.05  -0.01
    26   6    -0.04  -0.01   0.03     0.12  -0.01   0.02     0.02   0.11   0.01
    27   6    -0.08  -0.04   0.03     0.20  -0.01   0.07     0.07   0.16  -0.00
    28   6    -0.11  -0.05   0.04     0.20   0.01   0.11     0.09   0.16  -0.03
    29   6    -0.11  -0.03   0.05     0.10   0.01   0.11     0.04   0.10  -0.06
    30   6    -0.08   0.00   0.04     0.01  -0.00   0.06    -0.02   0.04  -0.05
    31   6    -0.05   0.05   0.05    -0.17  -0.00   0.00    -0.11  -0.07  -0.06
    32   6    -0.02   0.06   0.03    -0.15  -0.00  -0.04    -0.10  -0.05  -0.02
    33   6     0.05  -0.00  -0.05    -0.06  -0.04   0.02    -0.00  -0.02   0.01
    34   6     0.04  -0.00  -0.05    -0.07  -0.05   0.03    -0.00  -0.01  -0.00
    35   6    -0.01  -0.03  -0.05    -0.05  -0.04   0.02    -0.00   0.00  -0.00
    36   6    -0.06  -0.06  -0.04    -0.01  -0.02   0.01    -0.01   0.01   0.01
    37   6    -0.12  -0.09  -0.03     0.02  -0.01   0.01    -0.01   0.02   0.01
    38   6    -0.16  -0.12  -0.02     0.06   0.01  -0.00    -0.01   0.03   0.03
    39   6    -0.16  -0.11  -0.02     0.07   0.02  -0.01    -0.01   0.02   0.04
    40   6    -0.10  -0.08  -0.03     0.04   0.01  -0.01    -0.01   0.00   0.04
    41   6    -0.05  -0.06  -0.04     0.00  -0.01   0.00    -0.01  -0.00   0.02
    42   6     0.00  -0.03  -0.04    -0.02  -0.02   0.01    -0.01  -0.02   0.02
    43   6     0.01  -0.03  -0.03    -0.02  -0.01   0.00    -0.01  -0.03   0.04
    44   6     0.01  -0.04  -0.02    -0.01  -0.00  -0.02    -0.00  -0.05   0.07
    45   6     0.01  -0.04  -0.01    -0.00   0.01  -0.02    -0.00  -0.06   0.09
    46   6     0.01  -0.04  -0.02     0.01   0.01  -0.00    -0.01  -0.05   0.06
    47   6     0.00  -0.03  -0.04     0.00   0.01   0.02    -0.02  -0.03   0.01
    48   6    -0.00  -0.03  -0.05     0.01   0.01   0.04    -0.04  -0.02  -0.03
    49   6    -0.00  -0.03  -0.06     0.00   0.01   0.06    -0.05   0.00  -0.08
    50   6    -0.00  -0.02  -0.07    -0.01   0.00   0.06    -0.05   0.01  -0.09
    51   6     0.00  -0.02  -0.06    -0.02  -0.00   0.04    -0.03  -0.00  -0.05
    52   6     0.00  -0.03  -0.04    -0.01  -0.00   0.02    -0.02  -0.02   0.00
    53   1     0.09   0.01  -0.01     0.04  -0.02  -0.03     0.04  -0.03  -0.01
    54   1     0.04  -0.01  -0.02     0.00  -0.03  -0.06    -0.01  -0.06  -0.01
    55   1     0.11  -0.03  -0.04     0.05  -0.08  -0.05     0.08  -0.08  -0.05
    56   1     0.06  -0.04  -0.04     0.01  -0.09  -0.07    -0.00  -0.10  -0.02
    57   1     0.10  -0.01  -0.03     0.03  -0.08  -0.05     0.04   0.00  -0.01
    58   1     0.03  -0.01  -0.01    -0.03  -0.07  -0.06    -0.05  -0.02   0.05
    59   1     0.05   0.04   0.00    -0.02  -0.03  -0.06    -0.03   0.06   0.04
    60   1     0.13   0.02  -0.02     0.07  -0.04  -0.03     0.10   0.03  -0.08
    61   1     0.08   0.06   0.03     0.02   0.01  -0.03     0.04   0.04   0.05
    62   1     0.09   0.05   0.02     0.04   0.01  -0.02     0.02   0.01   0.01
    63   1     0.15   0.08   0.00     0.06  -0.03  -0.04     0.09   0.15   0.00
    64   1     0.12   0.04   0.02     0.05  -0.01  -0.02     0.11   0.16  -0.02
    65   1     0.16   0.08   0.03     0.07  -0.01  -0.02     0.13   0.25  -0.00
    66   1     0.03   0.10  -0.00    -0.01   0.09  -0.06    -0.03  -0.10   0.03
    67   1    -0.00   0.13   0.03    -0.04   0.15  -0.01     0.01  -0.15  -0.01
    68   1    -0.03   0.12   0.07    -0.05   0.14   0.06     0.08  -0.11  -0.06
    69   1    -0.02   0.07   0.09    -0.05   0.07   0.08     0.09  -0.02  -0.07
    70   1     0.00   0.03   0.06    -0.02   0.01   0.03     0.04   0.02  -0.03
    71   1     0.01   0.05   0.02     0.01  -0.02  -0.10    -0.06   0.04   0.06
    72   1    -0.02   0.00   0.02     0.12  -0.02  -0.02    -0.00   0.10   0.03
    73   1    -0.08  -0.05   0.03     0.28  -0.01   0.07     0.10   0.20   0.01
    74   1    -0.14  -0.07   0.04     0.27   0.01   0.15     0.14   0.20  -0.04
    75   1    -0.14  -0.04   0.06     0.09   0.01   0.14     0.05   0.09  -0.08
    76   1    -0.05   0.06   0.05    -0.25  -0.00  -0.00    -0.15  -0.11  -0.08
    77   1     0.01   0.08   0.03    -0.21  -0.00  -0.08    -0.12  -0.09  -0.01
    78   1     0.02   0.06   0.02    -0.05  -0.02  -0.12    -0.02   0.01   0.10
    79   1     0.08   0.02  -0.06    -0.10  -0.06   0.03     0.00  -0.02  -0.01
    80   1    -0.01  -0.03  -0.05    -0.06  -0.05   0.03    -0.00   0.01  -0.01
    81   1    -0.12  -0.09  -0.03     0.01  -0.02   0.01    -0.01   0.03   0.00
    82   1    -0.21  -0.14  -0.02     0.08   0.02  -0.00    -0.01   0.04   0.03
    83   1    -0.19  -0.14  -0.01     0.10   0.04  -0.02    -0.01   0.02   0.05
    84   1    -0.09  -0.08  -0.02     0.05   0.02  -0.01    -0.01  -0.01   0.05
    85   1     0.01  -0.05   0.00     0.00   0.01  -0.03     0.01  -0.07   0.12
    86   1     0.01  -0.04  -0.02     0.01   0.01  -0.00    -0.01  -0.06   0.07
    87   1    -0.00  -0.04  -0.05     0.01   0.02   0.04    -0.04  -0.03  -0.02
    88   1    -0.01  -0.02  -0.07     0.01   0.01   0.07    -0.06   0.01  -0.11
    89   1    -0.01  -0.02  -0.08    -0.01  -0.00   0.07    -0.06   0.03  -0.13
    90   1     0.00  -0.02  -0.06    -0.02  -0.01   0.04    -0.03   0.01  -0.06
    91   1     0.11   0.03  -0.05    -0.12  -0.05   0.03    -0.01  -0.05   0.00
    92   1     0.02  -0.04   0.02    -0.00  -0.01  -0.02    -0.00  -0.05   0.07
    93   1     0.02   0.01  -0.00    -0.01  -0.02  -0.06    -0.03  -0.02   0.04
    94   1     0.04   0.04   0.03     0.00   0.00  -0.03    -0.02   0.06   0.04
    95   1     0.04   0.05  -0.00     0.00   0.03  -0.07    -0.07  -0.01   0.05
                      7                      8                      9
                      A                      A                      A
 Frequencies --     35.9562                42.3715                45.5717
 Red. masses --      5.5216                 5.0504                 5.0835
 Frc consts  --      0.0042                 0.0053                 0.0062
 IR Inten    --      0.3247                 0.0744                 0.2793
  Atom  AN      X      Y      Z        X      Y      Z        X      Y      Z
     1  17    -0.05  -0.07  -0.04     0.01  -0.02  -0.02     0.02   0.02   0.06
     2   8     0.02   0.02  -0.02    -0.02   0.01  -0.03    -0.00  -0.02   0.05
     3   8    -0.08  -0.12  -0.00    -0.05   0.01   0.02    -0.05  -0.02  -0.04
     4   8     0.02  -0.10   0.04    -0.08   0.01   0.02    -0.02   0.03  -0.09
     5   7     0.02   0.02  -0.01    -0.02   0.00  -0.02     0.01  -0.02   0.04
     6   7     0.10   0.06   0.04     0.11   0.07   0.04     0.09   0.01  -0.02
     7   6     0.02   0.03  -0.01    -0.02  -0.01  -0.04     0.02  -0.04   0.03
     8   6     0.01   0.04  -0.00     0.01  -0.04  -0.06     0.02  -0.06   0.02
     9   6     0.01   0.04  -0.01     0.03  -0.04  -0.05     0.01  -0.01   0.03
    10   6     0.02   0.03  -0.00     0.01  -0.04  -0.06    -0.02  -0.00   0.06
    11   6     0.02   0.03  -0.01    -0.02  -0.01  -0.05    -0.00  -0.02   0.05
    12   6     0.00   0.03  -0.02     0.05  -0.03  -0.01     0.04   0.02   0.00
    13   6     0.01   0.02  -0.02     0.01  -0.00   0.01     0.02  -0.00   0.03
    14   6    -0.00   0.04  -0.02     0.08  -0.04   0.01     0.05   0.10   0.01
    15   6    -0.02   0.01  -0.03     0.09  -0.04   0.04     0.10   0.21   0.01
    16   6     0.03   0.02  -0.02    -0.06   0.04  -0.00     0.01  -0.03   0.04
    17   6     0.02   0.03  -0.01     0.01   0.02  -0.01    -0.01  -0.02   0.04
    18   6     0.05   0.05   0.01    -0.04  -0.05  -0.02    -0.01  -0.02   0.03
    19   6     0.06   0.07   0.02     0.05  -0.05  -0.01    -0.04  -0.02   0.03
    20   6     0.04   0.05   0.02     0.18   0.02   0.02    -0.05  -0.03   0.03
    21   6     0.01   0.03  -0.00     0.22   0.09   0.03    -0.04  -0.03   0.04
    22   6    -0.00   0.01  -0.01     0.12   0.09   0.01    -0.02  -0.03   0.04
    23   6     0.03   0.02  -0.01    -0.03  -0.00  -0.03    -0.01  -0.02   0.05
    24   6     0.05   0.03   0.00    -0.01   0.01  -0.01     0.00  -0.02   0.02
    25   6     0.02   0.00   0.00    -0.01  -0.00   0.00    -0.00   0.01   0.00
    26   6    -0.03  -0.03  -0.01    -0.06  -0.04  -0.02    -0.05   0.01   0.00
    27   6    -0.07  -0.06  -0.01    -0.06  -0.05  -0.01    -0.05   0.04  -0.02
    28   6    -0.05  -0.05   0.00     0.00  -0.01   0.02     0.00   0.05  -0.04
    29   6     0.00  -0.01   0.02     0.06   0.03   0.04     0.05   0.04  -0.04
    30   6     0.04   0.02   0.02     0.06   0.03   0.03     0.04   0.02  -0.02
    31   6     0.12   0.08   0.04     0.10   0.07   0.03     0.08  -0.02  -0.00
    32   6     0.10   0.06   0.02     0.04   0.04   0.01     0.04  -0.03   0.02
    33   6    -0.10  -0.10   0.00    -0.03   0.01   0.01    -0.06  -0.03  -0.04
    34   6    -0.16  -0.12  -0.01     0.01   0.04   0.01    -0.12  -0.06  -0.02
    35   6    -0.15  -0.10  -0.01     0.03   0.05   0.01    -0.12  -0.07  -0.02
    36   6    -0.07  -0.04  -0.00     0.01   0.04   0.01    -0.06  -0.04  -0.04
    37   6    -0.04   0.01  -0.00     0.04   0.05   0.01    -0.05  -0.04  -0.04
    38   6     0.05   0.07   0.00     0.02   0.04   0.01     0.02   0.00  -0.05
    39   6     0.11   0.09   0.01    -0.03   0.01   0.01     0.08   0.04  -0.06
    40   6     0.08   0.05   0.02    -0.05  -0.00   0.01     0.06   0.04  -0.06
    41   6    -0.01  -0.01   0.01    -0.03   0.01   0.01    -0.01   0.00  -0.05
    42   6    -0.04  -0.05   0.01    -0.04   0.00   0.01    -0.02  -0.00  -0.04
    43   6    -0.01  -0.05   0.02    -0.07  -0.01   0.01    -0.01   0.01  -0.05
    44   6     0.02  -0.08   0.05    -0.09   0.01  -0.00    -0.02   0.03  -0.09
    45   6     0.06  -0.08   0.08    -0.11   0.01  -0.03    -0.04   0.06  -0.14
    46   6     0.05  -0.05   0.08    -0.12  -0.00  -0.04    -0.03   0.05  -0.12
    47   6     0.01  -0.01   0.03    -0.09  -0.03  -0.01    -0.01   0.02  -0.05
    48   6    -0.01   0.04   0.00    -0.08  -0.05  -0.01     0.01  -0.01   0.01
    49   6    -0.06   0.08  -0.05    -0.05  -0.08   0.02     0.04  -0.05   0.09
    50   6    -0.09   0.09  -0.08    -0.03  -0.08   0.05     0.05  -0.07   0.12
    51   6    -0.07   0.04  -0.05    -0.03  -0.06   0.04     0.03  -0.04   0.07
    52   6    -0.03  -0.01   0.00    -0.06  -0.03   0.01     0.00  -0.00  -0.02
    53   1     0.01   0.03  -0.01    -0.02   0.00  -0.01     0.03  -0.04   0.03
    54   1     0.03   0.03  -0.00    -0.05   0.00  -0.06     0.00  -0.05   0.02
    55   1     0.01   0.04  -0.00     0.03  -0.05  -0.06     0.06  -0.07   0.00
    56   1     0.02   0.04   0.00    -0.01  -0.05  -0.10    -0.00  -0.09   0.03
    57   1     0.00   0.04  -0.00     0.06  -0.07  -0.06     0.02  -0.01   0.03
    58   1     0.02   0.04   0.00     0.00  -0.05  -0.09    -0.04  -0.02   0.09
    59   1     0.01   0.03  -0.01     0.03  -0.04  -0.05    -0.04   0.03   0.05
    60   1    -0.00   0.03  -0.02     0.06  -0.03  -0.00     0.06   0.00  -0.05
    61   1     0.02   0.01  -0.01     0.01   0.00   0.02     0.03  -0.00   0.05
    62   1    -0.00   0.01  -0.02     0.01   0.01   0.03     0.01  -0.01   0.02
    63   1     0.01   0.07  -0.01     0.10  -0.04  -0.01     0.01   0.05   0.01
    64   1    -0.03  -0.02  -0.04     0.07  -0.04   0.06     0.14   0.25   0.00
    65   1    -0.02   0.02  -0.03     0.11  -0.04   0.06     0.10   0.27   0.01
    66   1     0.07   0.06   0.01    -0.14  -0.11  -0.05    -0.00  -0.01   0.03
    67   1     0.08   0.09   0.03     0.02  -0.11  -0.02    -0.04  -0.01   0.02
    68   1     0.04   0.06   0.03     0.26   0.03   0.04    -0.07  -0.03   0.02
    69   1    -0.01   0.01  -0.01     0.31   0.15   0.05    -0.06  -0.04   0.04
    70   1    -0.02  -0.01  -0.03     0.14   0.13   0.01    -0.01  -0.04   0.05
    71   1     0.04   0.01  -0.02    -0.03  -0.02  -0.02    -0.01  -0.00   0.05
    72   1    -0.04  -0.04  -0.02    -0.11  -0.07  -0.03    -0.09   0.00   0.02
    73   1    -0.11  -0.09  -0.02    -0.10  -0.08  -0.02    -0.09   0.04  -0.02
    74   1    -0.08  -0.07   0.00     0.01  -0.02   0.03     0.00   0.07  -0.05
    75   1     0.02   0.00   0.03     0.11   0.05   0.06     0.08   0.06  -0.05
    76   1     0.17   0.11   0.05     0.13   0.10   0.05     0.11  -0.03  -0.00
    77   1     0.12   0.08   0.02     0.04   0.05   0.00     0.04  -0.04   0.04
    78   1     0.01  -0.10   0.00    -0.02   0.00  -0.02    -0.01  -0.03   0.05
    79   1    -0.21  -0.16  -0.01     0.02   0.04   0.01    -0.16  -0.09  -0.01
    80   1    -0.20  -0.11  -0.02     0.06   0.07   0.00    -0.17  -0.10  -0.01
    81   1    -0.08  -0.01  -0.01     0.07   0.08   0.00    -0.10  -0.07  -0.03
    82   1     0.08   0.10   0.00     0.04   0.05   0.01     0.03   0.00  -0.05
    83   1     0.18   0.14   0.02    -0.04   0.00   0.01     0.14   0.08  -0.07
    84   1     0.12   0.07   0.02    -0.08  -0.02   0.02     0.11   0.07  -0.07
    85   1     0.09  -0.10   0.11    -0.13   0.03  -0.04    -0.05   0.08  -0.18
    86   1     0.08  -0.05   0.11    -0.14   0.00  -0.07    -0.04   0.07  -0.15
    87   1     0.02   0.04   0.03    -0.10  -0.05  -0.03     0.01   0.01  -0.02
    88   1    -0.07   0.12  -0.08    -0.05  -0.10   0.03     0.06  -0.07   0.14
    89   1    -0.13   0.12  -0.13    -0.00  -0.11   0.07     0.07  -0.10   0.19
    90   1    -0.10   0.04  -0.08    -0.01  -0.06   0.06     0.03  -0.05   0.09
    91   1    -0.23  -0.16   0.01    -0.04   0.01   0.01    -0.14  -0.03  -0.02
    92   1     0.03  -0.10   0.02    -0.08   0.01   0.02    -0.01   0.02  -0.05
    93   1     0.03   0.03  -0.00    -0.05  -0.00  -0.07     0.00  -0.03   0.07
    94   1     0.03   0.01  -0.02    -0.05   0.12   0.02     0.01  -0.05   0.04
    95   1     0.04   0.02  -0.02    -0.14   0.02   0.01     0.03  -0.02   0.03
                     10                     11                     12
                      A                      A                      A
 Frequencies --     51.1461                53.4122                58.5203
 Red. masses --      4.4593                 4.9274                 5.0351
 Frc consts  --      0.0069                 0.0083                 0.0102
 IR Inten    --      0.8780                 1.1435                 0.8472
  Atom  AN      X      Y      Z        X      Y      Z        X      Y      Z
     1  17    -0.04  -0.02  -0.01    -0.00  -0.06  -0.02     0.02  -0.03   0.01
     2   8    -0.02  -0.06  -0.03     0.08   0.03  -0.01     0.02   0.02  -0.00
     3   8    -0.02   0.01   0.02    -0.02  -0.06   0.01    -0.11   0.09  -0.01
     4   8    -0.02  -0.02  -0.00    -0.04  -0.05   0.01    -0.07  -0.01  -0.09
     5   7     0.00  -0.04  -0.02     0.06   0.03   0.02     0.03   0.02   0.02
     6   7     0.05  -0.03  -0.01    -0.09  -0.06  -0.03    -0.02  -0.01  -0.01
     7   6     0.01  -0.05  -0.01     0.05   0.06   0.02     0.03   0.03   0.02
     8   6    -0.00  -0.06   0.01     0.04   0.07   0.02     0.03   0.02   0.02
     9   6    -0.04  -0.01   0.00     0.05   0.05   0.02     0.04   0.01   0.02
    10   6    -0.06  -0.01   0.03     0.08   0.04   0.01     0.04   0.01   0.02
    11   6    -0.01  -0.03   0.00     0.08   0.04   0.01     0.04   0.02   0.02
    12   6    -0.02   0.02  -0.06     0.04   0.03   0.02     0.04   0.01   0.03
    13   6    -0.02  -0.03  -0.04     0.05   0.02   0.02     0.03   0.02   0.03
    14   6    -0.04   0.11  -0.07     0.04   0.01   0.02     0.05  -0.00   0.03
    15   6     0.01   0.25  -0.10     0.01  -0.06   0.02     0.04  -0.03   0.04
    16   6     0.02  -0.05  -0.03     0.05   0.02   0.02     0.02   0.02   0.03
    17   6     0.01  -0.01  -0.00     0.03   0.01   0.01     0.02   0.00   0.01
    18   6     0.08   0.07   0.03     0.06   0.02   0.03     0.01  -0.01   0.01
    19   6     0.09   0.11   0.08     0.02  -0.01  -0.00    -0.02  -0.04  -0.02
    20   6     0.02   0.08   0.08    -0.05  -0.04  -0.05    -0.04  -0.05  -0.05
    21   6    -0.05  -0.01   0.04    -0.07  -0.05  -0.07    -0.02  -0.03  -0.04
    22   6    -0.06  -0.05   0.00    -0.03  -0.03  -0.03     0.01  -0.00  -0.01
    23   6     0.00  -0.05  -0.02     0.09   0.02   0.00     0.04   0.02   0.01
    24   6     0.02  -0.04  -0.02     0.08   0.02  -0.00     0.03   0.02   0.01
    25   6     0.02  -0.04  -0.02     0.05   0.00  -0.00     0.02   0.01   0.00
    26   6     0.01  -0.06  -0.02     0.12   0.03   0.01     0.03   0.02   0.00
    27   6    -0.00  -0.06  -0.02     0.08   0.01   0.00     0.01   0.02  -0.00
    28   6     0.00  -0.06  -0.01    -0.03  -0.05  -0.01    -0.02  -0.00  -0.01
    29   6     0.02  -0.05  -0.01    -0.09  -0.07  -0.03    -0.03  -0.01  -0.02
    30   6     0.03  -0.04  -0.01    -0.04  -0.04  -0.02    -0.01  -0.00  -0.01
    31   6     0.05  -0.02  -0.01    -0.04  -0.03  -0.02     0.00  -0.00  -0.00
    32   6     0.03  -0.03  -0.01     0.04   0.01  -0.01     0.03   0.01   0.00
    33   6     0.01   0.02   0.02    -0.03  -0.03   0.01    -0.07   0.05  -0.01
    34   6     0.09   0.07   0.01    -0.01  -0.00  -0.02    -0.01   0.05   0.03
    35   6     0.12   0.08   0.01     0.01   0.03  -0.02     0.05   0.03   0.02
    36   6     0.07   0.05   0.01     0.00   0.04   0.00     0.04  -0.00  -0.03
    37   6     0.09   0.06   0.01     0.03   0.09  -0.00     0.12  -0.02  -0.04
    38   6     0.03   0.02   0.01     0.02   0.10   0.02     0.11  -0.06  -0.08
    39   6    -0.07  -0.04   0.02    -0.02   0.05   0.05     0.02  -0.08  -0.12
    40   6    -0.09  -0.05   0.02    -0.05   0.01   0.05    -0.05  -0.06  -0.11
    41   6    -0.01  -0.00   0.02    -0.03   0.00   0.03    -0.04  -0.01  -0.06
    42   6    -0.02  -0.00   0.02    -0.04  -0.03   0.03    -0.08   0.02  -0.06
    43   6    -0.03  -0.01   0.01    -0.05  -0.04   0.03    -0.09   0.02  -0.07
    44   6    -0.02  -0.01   0.01    -0.05  -0.02  -0.01    -0.06  -0.00  -0.05
    45   6    -0.01  -0.00   0.01    -0.08   0.03  -0.10    -0.01  -0.03   0.04
    46   6    -0.01   0.01   0.01    -0.09   0.05  -0.13     0.02  -0.05   0.12
    47   6    -0.02   0.02   0.01    -0.08   0.02  -0.06    -0.01  -0.03   0.09
    48   6    -0.02   0.03   0.01    -0.08   0.04  -0.08     0.02  -0.05   0.19
    49   6    -0.03   0.04   0.02    -0.06   0.01   0.00    -0.01  -0.02   0.15
    50   6    -0.04   0.03   0.02    -0.03  -0.05   0.11    -0.09   0.05  -0.00
    51   6    -0.04   0.01   0.02    -0.02  -0.07   0.11    -0.12   0.07  -0.09
    52   6    -0.03   0.01   0.02    -0.05  -0.03   0.03    -0.07   0.02  -0.03
    53   1     0.02  -0.05  -0.01     0.03   0.05   0.02     0.02   0.03   0.03
    54   1     0.02  -0.06   0.00     0.06   0.06   0.02     0.02   0.03   0.02
    55   1     0.03  -0.07  -0.01     0.02   0.08   0.02     0.03   0.02   0.02
    56   1    -0.02  -0.09   0.03     0.06   0.09   0.02     0.03   0.02   0.01
    57   1    -0.06   0.00   0.01     0.05   0.06   0.02     0.04   0.01   0.02
    58   1    -0.07  -0.02   0.08     0.09   0.06   0.01     0.04   0.01   0.01
    59   1    -0.09   0.03   0.00     0.08   0.03   0.01     0.04   0.01   0.02
    60   1     0.00   0.00  -0.12     0.02   0.04   0.03     0.03   0.01   0.04
    61   1    -0.00  -0.04  -0.02     0.05   0.01   0.01     0.03   0.02   0.03
    62   1    -0.03  -0.05  -0.06     0.03   0.01   0.02     0.03   0.02   0.03
    63   1    -0.10   0.07  -0.05     0.07   0.05   0.03     0.06   0.02   0.03
    64   1     0.07   0.28  -0.12    -0.02  -0.11   0.02     0.02  -0.05   0.05
    65   1    -0.00   0.32  -0.11     0.01  -0.08   0.02     0.04  -0.04   0.05
    66   1     0.12   0.10   0.02     0.11   0.05   0.06     0.02  -0.01   0.03
    67   1     0.15   0.18   0.11     0.04   0.00   0.01    -0.02  -0.06  -0.02
    68   1     0.04   0.12   0.12    -0.09  -0.07  -0.08    -0.06  -0.08  -0.07
    69   1    -0.10  -0.04   0.05    -0.12  -0.08  -0.10    -0.04  -0.04  -0.06
    70   1    -0.10  -0.10  -0.02    -0.04  -0.03  -0.04     0.01   0.01  -0.00
    71   1     0.02  -0.05  -0.03     0.10   0.02  -0.01     0.04   0.02   0.00
    72   1     0.01  -0.06  -0.02     0.20   0.07   0.02     0.06   0.04   0.01
    73   1    -0.01  -0.07  -0.02     0.13   0.03   0.01     0.03   0.03   0.00
    74   1    -0.01  -0.07  -0.01    -0.07  -0.07  -0.02    -0.04  -0.01  -0.02
    75   1     0.03  -0.04  -0.01    -0.17  -0.11  -0.04    -0.06  -0.02  -0.03
    76   1     0.07  -0.01  -0.00    -0.07  -0.04  -0.02     0.00  -0.00  -0.01
    77   1     0.04  -0.03  -0.01     0.06   0.02  -0.00     0.04   0.01   0.01
    78   1    -0.01  -0.02  -0.06     0.07  -0.08   0.01     0.03  -0.00  -0.00
    79   1     0.12   0.09   0.01    -0.00  -0.01  -0.03    -0.01   0.07   0.06
    80   1     0.19   0.12   0.00     0.03   0.06  -0.04     0.11   0.04   0.05
    81   1     0.16   0.10   0.00     0.06   0.12  -0.02     0.19  -0.01  -0.01
    82   1     0.04   0.03   0.01     0.04   0.14   0.02     0.17  -0.07  -0.09
    83   1    -0.13  -0.07   0.02    -0.03   0.06   0.07     0.00  -0.11  -0.16
    84   1    -0.16  -0.09   0.03    -0.08  -0.03   0.07    -0.12  -0.07  -0.14
    85   1     0.00  -0.01   0.00    -0.08   0.04  -0.13     0.01  -0.05   0.05
    86   1    -0.00   0.02   0.01    -0.11   0.10  -0.21     0.07  -0.09   0.21
    87   1    -0.01   0.04   0.01    -0.11   0.09  -0.16     0.08  -0.10   0.30
    88   1    -0.04   0.05   0.01    -0.07   0.02  -0.01     0.01  -0.04   0.22
    89   1    -0.05   0.03   0.03    -0.01  -0.09   0.18    -0.13   0.08  -0.05
    90   1    -0.05   0.00   0.03     0.00  -0.11   0.19    -0.18   0.12  -0.20
    91   1     0.06   0.03   0.01    -0.11  -0.09  -0.00    -0.18   0.08   0.03
    92   1    -0.01  -0.03  -0.01    -0.02  -0.06   0.01    -0.05  -0.01  -0.06
    93   1     0.02  -0.03   0.03     0.09   0.05   0.02     0.04   0.02   0.01
    94   1     0.02  -0.09  -0.04     0.05   0.01   0.03     0.03   0.03   0.04
    95   1     0.06  -0.03  -0.05     0.06   0.02   0.03     0.01   0.01   0.04
                     13                     14                     15
                      A                      A                      A
 Frequencies --     59.9611                68.9101                76.0863
 Red. masses --      4.6046                 4.6977                 4.0150
 Frc consts  --      0.0098                 0.0131                 0.0137
 IR Inten    --      0.0527                 0.7449                 0.3446
  Atom  AN      X      Y      Z        X      Y      Z        X      Y      Z
     1  17    -0.01   0.06   0.01     0.06   0.04  -0.02     0.04   0.00  -0.01
     2   8     0.04  -0.05  -0.05     0.01   0.01  -0.01    -0.07  -0.00  -0.12
     3   8     0.00   0.04   0.01     0.01   0.09   0.03    -0.02  -0.05   0.01
     4   8    -0.02   0.06   0.02    -0.06   0.09   0.05     0.01  -0.00  -0.01
     5   7    -0.02   0.02   0.00     0.02  -0.01  -0.01    -0.00   0.04   0.04
     6   7    -0.07  -0.09  -0.02     0.01   0.01   0.00     0.03   0.06   0.02
     7   6    -0.04   0.06   0.00     0.03  -0.02  -0.01     0.01   0.05   0.08
     8   6    -0.03   0.07  -0.00     0.02  -0.02  -0.01    -0.00  -0.03   0.09
     9   6    -0.02   0.06  -0.00     0.02  -0.03  -0.01    -0.02  -0.07   0.07
    10   6     0.01   0.04   0.00     0.02  -0.02  -0.02    -0.05  -0.05   0.01
    11   6     0.03   0.02  -0.01     0.01  -0.01  -0.02    -0.02   0.01  -0.02
    12   6    -0.04   0.03  -0.00     0.03  -0.02  -0.01    -0.01  -0.05   0.09
    13   6    -0.04  -0.01   0.01     0.03   0.00  -0.01    -0.00   0.00   0.07
    14   6    -0.03   0.06  -0.00     0.02  -0.03  -0.01    -0.02  -0.07   0.08
    15   6     0.02   0.18   0.01     0.03  -0.03  -0.01     0.08   0.16   0.12
    16   6    -0.02   0.01   0.01     0.01   0.00  -0.01     0.01   0.08   0.03
    17   6    -0.01   0.00   0.00     0.02  -0.00  -0.01     0.03   0.06   0.01
    18   6    -0.08  -0.05  -0.04     0.15   0.07   0.08     0.02   0.02   0.02
    19   6    -0.05  -0.05  -0.03     0.16   0.06   0.08    -0.04  -0.05  -0.05
    20   6     0.05   0.01   0.02     0.02  -0.01  -0.02    -0.08  -0.07  -0.13
    21   6     0.11   0.06   0.06    -0.12  -0.08  -0.11    -0.05  -0.02  -0.11
    22   6     0.07   0.05   0.04    -0.11  -0.07  -0.10     0.01   0.05  -0.04
    23   6     0.08  -0.03  -0.03     0.00  -0.00  -0.01    -0.02   0.01  -0.09
    24   6     0.09  -0.02  -0.02    -0.01  -0.00  -0.01    -0.02   0.02  -0.06
    25   6     0.08  -0.04  -0.01    -0.00  -0.01  -0.01    -0.01  -0.00  -0.04
    26   6     0.16  -0.02  -0.00    -0.01  -0.02  -0.01    -0.01  -0.04  -0.05
    27   6     0.11  -0.06   0.00    -0.00  -0.02  -0.01    -0.01  -0.07  -0.03
    28   6    -0.02  -0.12  -0.01     0.01  -0.01   0.00     0.00  -0.05   0.01
    29   6    -0.08  -0.13  -0.01     0.02   0.00   0.00     0.02  -0.01   0.02
    30   6    -0.03  -0.08  -0.02     0.01   0.00  -0.00     0.01   0.02   0.00
    31   6    -0.01  -0.04  -0.02     0.00   0.00  -0.00     0.01   0.07  -0.01
    32   6     0.06  -0.01  -0.02    -0.01   0.00  -0.01    -0.02   0.05  -0.05
    33   6    -0.01   0.02   0.01    -0.00   0.06   0.03     0.01  -0.03   0.00
    34   6    -0.04  -0.01   0.02    -0.04   0.03   0.05     0.02  -0.01  -0.01
    35   6    -0.07  -0.03   0.03    -0.08  -0.01   0.05     0.03   0.01  -0.01
    36   6    -0.04  -0.02   0.02    -0.05  -0.00   0.03     0.02   0.00   0.00
    37   6    -0.06  -0.04   0.02    -0.08  -0.04   0.04     0.01   0.01   0.00
    38   6    -0.03  -0.02   0.01    -0.04  -0.02   0.02    -0.02   0.00   0.02
    39   6     0.03   0.02  -0.01     0.04   0.04   0.00    -0.03  -0.01   0.03
    40   6     0.05   0.04  -0.01     0.06   0.07  -0.00    -0.02  -0.02   0.03
    41   6     0.01   0.02   0.00     0.01   0.04   0.02     0.01  -0.01   0.01
    42   6     0.01   0.03   0.00     0.01   0.06   0.01     0.01  -0.02   0.01
    43   6    -0.00   0.02   0.00    -0.02   0.05   0.01     0.02  -0.02   0.01
    44   6    -0.02   0.03   0.02    -0.05   0.06   0.04     0.02  -0.01   0.01
    45   6    -0.04  -0.00   0.04    -0.09   0.02   0.06     0.02  -0.01   0.01
    46   6    -0.03  -0.03   0.05    -0.09  -0.04   0.05     0.02  -0.01   0.01
    47   6    -0.02  -0.03   0.02    -0.05  -0.05   0.02     0.01  -0.00   0.00
    48   6    -0.01  -0.06   0.01    -0.05  -0.12   0.01     0.01   0.01  -0.02
    49   6     0.00  -0.06  -0.03    -0.01  -0.13  -0.04    -0.00   0.02  -0.04
    50   6     0.01  -0.03  -0.06     0.02  -0.07  -0.08     0.00   0.01  -0.02
    51   6     0.01  -0.00  -0.05     0.02  -0.02  -0.06     0.01  -0.01   0.00
    52   6    -0.00  -0.00  -0.01    -0.02  -0.01  -0.01     0.02  -0.01   0.01
    53   1    -0.08   0.06   0.03     0.04  -0.02  -0.02     0.01   0.06   0.14
    54   1    -0.04   0.10  -0.01     0.03  -0.03  -0.00     0.01   0.09   0.06
    55   1    -0.05   0.08  -0.00     0.03  -0.02  -0.00     0.02  -0.04   0.14
    56   1    -0.02   0.08  -0.01     0.02  -0.02  -0.01    -0.02  -0.04   0.06
    57   1    -0.02   0.07  -0.00     0.02  -0.03  -0.01    -0.03  -0.11   0.08
    58   1     0.02   0.06   0.02     0.01  -0.03  -0.02    -0.06  -0.07  -0.00
    59   1     0.00   0.03  -0.01     0.02  -0.02  -0.02    -0.07  -0.07  -0.02
    60   1    -0.06   0.04  -0.03     0.03  -0.02   0.01     0.02  -0.05   0.12
    61   1    -0.01  -0.04   0.03     0.01   0.01  -0.02    -0.01  -0.00   0.04
    62   1    -0.08  -0.02   0.02     0.04   0.01  -0.02     0.00   0.02   0.09
    63   1    -0.09  -0.04  -0.02     0.02  -0.05  -0.01    -0.13  -0.29   0.03
    64   1     0.08   0.27   0.02     0.03  -0.02  -0.00     0.19   0.35   0.16
    65   1     0.02   0.20   0.01     0.02  -0.04  -0.01     0.06   0.14   0.11
    66   1    -0.15  -0.09  -0.07     0.25   0.12   0.15     0.05   0.04   0.07
    67   1    -0.10  -0.09  -0.06     0.28   0.12   0.16    -0.05  -0.08  -0.06
    68   1     0.08   0.02   0.03     0.02  -0.02  -0.02    -0.14  -0.13  -0.19
    69   1     0.19   0.10   0.09    -0.22  -0.14  -0.19    -0.08  -0.03  -0.16
    70   1     0.10   0.08   0.06    -0.16  -0.10  -0.14     0.03   0.08  -0.03
    71   1     0.10  -0.05  -0.05    -0.00  -0.00  -0.01     0.03   0.01  -0.11
    72   1     0.26   0.02   0.00    -0.02  -0.02  -0.02    -0.02  -0.05  -0.08
    73   1     0.18  -0.05   0.01    -0.01  -0.02  -0.01    -0.02  -0.10  -0.04
    74   1    -0.06  -0.15  -0.01     0.02  -0.01   0.01     0.00  -0.07   0.03
    75   1    -0.18  -0.17  -0.02     0.03   0.01   0.01     0.04   0.01   0.06
    76   1    -0.04  -0.04  -0.02     0.00   0.01  -0.00     0.02   0.10   0.00
    77   1     0.08   0.01  -0.03    -0.01   0.00  -0.01    -0.04   0.06  -0.07
    78   1     0.05  -0.03  -0.09     0.01   0.05  -0.02    -0.06  -0.00  -0.16
    79   1    -0.06  -0.01   0.03    -0.05   0.03   0.06     0.02  -0.01  -0.01
    80   1    -0.10  -0.06   0.04    -0.12  -0.04   0.07     0.04   0.02  -0.02
    81   1    -0.11  -0.07   0.03    -0.14  -0.08   0.05     0.02   0.02  -0.00
    82   1    -0.05  -0.04   0.01    -0.06  -0.04   0.02    -0.03   0.00   0.02
    83   1     0.06   0.04  -0.01     0.08   0.06  -0.01    -0.05  -0.02   0.04
    84   1     0.09   0.07  -0.02     0.11   0.11  -0.02    -0.02  -0.03   0.03
    85   1    -0.05   0.00   0.06    -0.13   0.03   0.08     0.02  -0.01   0.01
    86   1    -0.04  -0.06   0.07    -0.12  -0.07   0.07     0.02  -0.01   0.01
    87   1    -0.02  -0.09   0.03    -0.08  -0.16   0.04     0.00   0.02  -0.03
    88   1     0.00  -0.08  -0.04    -0.00  -0.17  -0.04    -0.01   0.03  -0.06
    89   1     0.02  -0.02  -0.10     0.05  -0.08  -0.12    -0.00   0.01  -0.03
    90   1     0.02   0.02  -0.08     0.04   0.02  -0.10     0.02  -0.01   0.02
    91   1    -0.01   0.04   0.02     0.02   0.10   0.04     0.07  -0.04  -0.02
    92   1    -0.04   0.06   0.03    -0.07   0.09   0.05     0.01  -0.00  -0.00
    93   1     0.06   0.06  -0.00     0.00  -0.02  -0.02    -0.01   0.04  -0.03
    94   1    -0.02   0.02   0.01     0.01   0.01   0.00     0.01   0.12   0.02
    95   1    -0.03   0.00   0.01     0.00   0.00  -0.01    -0.02   0.08   0.03
                     16                     17                     18
                      A                      A                      A
 Frequencies --     87.1439                98.2153               106.3400
 Red. masses --      3.4765                 2.8758                 5.7284
 Frc consts  --      0.0156                 0.0163                 0.0382
 IR Inten    --      0.8783                 0.2286                10.4545
  Atom  AN      X      Y      Z        X      Y      Z        X      Y      Z
     1  17    -0.04  -0.01  -0.03    -0.04   0.00  -0.01    -0.08  -0.12  -0.06
     2   8     0.03  -0.00   0.06    -0.06  -0.05  -0.06     0.00  -0.02  -0.00
     3   8     0.02  -0.00  -0.02    -0.02  -0.00  -0.01     0.24   0.23  -0.05
     4   8     0.03  -0.03   0.01     0.03  -0.01   0.04     0.02  -0.11   0.13
     5   7    -0.07   0.01  -0.01    -0.06   0.02   0.03     0.01   0.00   0.01
     6   7    -0.03  -0.02   0.00     0.01   0.00  -0.00     0.00   0.00   0.00
     7   6    -0.10   0.05  -0.04    -0.06   0.01   0.01     0.02  -0.00   0.03
     8   6    -0.06   0.08  -0.08    -0.01  -0.07  -0.03     0.01  -0.02   0.04
     9   6     0.01   0.01  -0.06    -0.00  -0.01  -0.00    -0.01  -0.03   0.03
    10   6     0.06  -0.00  -0.08    -0.08   0.01   0.03    -0.01  -0.03   0.01
    11   6    -0.02   0.01  -0.04    -0.05   0.02   0.01     0.00  -0.01  -0.00
    12   6    -0.03  -0.04   0.01     0.04   0.05  -0.00    -0.00  -0.02   0.02
    13   6    -0.05  -0.02   0.03    -0.02   0.02   0.06     0.01  -0.01   0.01
    14   6     0.01  -0.12   0.03     0.12   0.16   0.04    -0.03  -0.01   0.01
    15   6     0.12   0.08   0.15     0.00  -0.10   0.03    -0.01   0.03  -0.00
    16   6    -0.10   0.00   0.01    -0.08   0.04   0.05     0.02   0.02  -0.00
    17   6    -0.07  -0.01  -0.00    -0.05   0.02   0.03     0.02   0.03   0.01
    18   6     0.01   0.00   0.06    -0.01  -0.01   0.07    -0.01   0.02  -0.02
    19   6     0.10   0.02   0.09     0.04  -0.03   0.06    -0.05   0.01  -0.04
    20   6     0.09   0.01   0.05     0.03  -0.03   0.00    -0.05   0.01  -0.03
    21   6    -0.02  -0.01  -0.03    -0.02  -0.01  -0.04     0.00   0.03   0.01
    22   6    -0.09  -0.02  -0.05    -0.05   0.02  -0.03     0.03   0.04   0.02
    23   6    -0.01  -0.01   0.03    -0.02  -0.02  -0.04    -0.01  -0.00  -0.02
    24   6     0.01  -0.00   0.02     0.01  -0.00  -0.03    -0.01  -0.01  -0.02
    25   6     0.00   0.00   0.02     0.02  -0.01  -0.02    -0.01  -0.01  -0.01
    26   6     0.01   0.02   0.02     0.05  -0.01  -0.01    -0.02  -0.03  -0.02
    27   6     0.02   0.02   0.02     0.04  -0.03  -0.01    -0.01  -0.04  -0.01
    28   6     0.00   0.01   0.01    -0.01  -0.05  -0.01     0.02  -0.02   0.01
    29   6    -0.02  -0.00   0.00    -0.02  -0.04  -0.00     0.03  -0.00   0.01
    30   6    -0.02  -0.01   0.01     0.00  -0.01  -0.01     0.01  -0.00   0.00
    31   6    -0.02  -0.02   0.01     0.03   0.01  -0.01    -0.02  -0.00  -0.01
    32   6     0.00  -0.01   0.02     0.02   0.01  -0.02    -0.02  -0.01  -0.02
    33   6     0.01  -0.01  -0.02     0.01   0.00  -0.01     0.09   0.10  -0.02
    34   6     0.00  -0.01  -0.02     0.01   0.01  -0.01     0.04   0.06   0.00
    35   6     0.00  -0.01  -0.02     0.01   0.00  -0.01    -0.06  -0.03   0.02
    36   6     0.00  -0.01  -0.02     0.01  -0.00  -0.01    -0.06  -0.04   0.00
    37   6     0.02  -0.01  -0.02    -0.01  -0.02  -0.01    -0.04  -0.04  -0.00
    38   6     0.02  -0.01  -0.02    -0.01  -0.02  -0.01     0.08   0.02  -0.03
    39   6     0.01  -0.01  -0.02     0.00  -0.01  -0.02     0.14   0.07  -0.06
    40   6     0.00  -0.01  -0.02     0.02   0.00  -0.02     0.06   0.05  -0.05
    41   6     0.00  -0.01  -0.02     0.01   0.01  -0.01    -0.03  -0.00  -0.02
    42   6     0.00  -0.01  -0.02     0.01   0.01  -0.01    -0.02   0.02  -0.02
    43   6     0.01  -0.01  -0.01     0.02   0.01  -0.01    -0.04  -0.00  -0.01
    44   6     0.02  -0.02  -0.01     0.02   0.00   0.01    -0.01  -0.04   0.05
    45   6     0.04  -0.00  -0.02     0.03   0.01  -0.00    -0.01  -0.01   0.01
    46   6     0.03   0.02  -0.02     0.02   0.02  -0.02    -0.03   0.03  -0.03
    47   6     0.02   0.02  -0.01     0.02   0.02  -0.01    -0.04   0.03  -0.02
    48   6     0.03   0.04   0.01     0.03   0.02   0.00    -0.02   0.03   0.02
    49   6     0.02   0.04   0.03     0.03   0.01   0.02    -0.02   0.01   0.08
    50   6     0.00   0.02   0.04     0.03   0.01   0.02    -0.03  -0.01   0.09
    51   6    -0.00   0.01   0.02     0.02   0.01   0.01    -0.05  -0.00   0.04
    52   6     0.01   0.01  -0.01     0.02   0.02  -0.01    -0.04   0.01  -0.01
    53   1    -0.14   0.04  -0.03    -0.05   0.03   0.07     0.03   0.00   0.04
    54   1    -0.11   0.06  -0.05    -0.10   0.05  -0.03     0.03   0.01   0.03
    55   1    -0.11   0.11  -0.08     0.07  -0.10  -0.04     0.02  -0.03   0.06
    56   1    -0.02   0.13  -0.12    -0.08  -0.13  -0.06     0.00  -0.03   0.05
    57   1     0.04   0.02  -0.08     0.02  -0.03  -0.02    -0.02  -0.04   0.04
    58   1     0.11   0.04  -0.16    -0.13  -0.04   0.07    -0.02  -0.03   0.01
    59   1     0.13  -0.07  -0.04    -0.12   0.08   0.01    -0.02  -0.03  -0.00
    60   1    -0.08  -0.02   0.04     0.07   0.02  -0.08     0.01  -0.02   0.03
    61   1    -0.04  -0.03   0.03     0.02  -0.01   0.11     0.01  -0.01   0.00
[...]
 450540,-0.10813161,-0.07332660,0.00544278,0.00922469,0.00802018,0.0004
 2920,-0.00121373,0.00073016,-0.00017714,-0.00034843,0.00061145,0.00004
 193,0.00052222,0.00033654,-0.00021904,0.00001275,-0.00078726,0.0005103
 8,-0.00075650,0.00120747,0.00012696,-0.00015062,0.00051627,-0.00001100
 ,-0.00003056,-0.00007625,-0.00000370,0.00005824,-0.00003763,-0.0000214
 6,-0.00001204,0.00001662,-0.00000702,0.00001239,0.00000014,-0.00000595
 ,0.00000374,0.00000045,-0.00000559,0.00000763,-0.00000208,0.00000449,-
 0.00000005,0.00000902,0.00001235,-0.00007535,-0.00001545,-0.00002918,0
 .00011292,-0.00004138,0.00012462,-0.00001902,-0.00020772,-0.00008731,0
 .00001164,0.00004513,0.00001361,0.00000983,-0.00005851,-0.00000195,-0.
 00005821,-0.00000395,0.00000440,-0.00001549,-0.00003238,-0.00000548,-0
 .00001286,0.00000584,0.00001176,-0.00000456,-0.00001508,0.00005093,0.0
 0002309,0.00000708,-0.00000409,-0.00004505,-0.00001767,0.00000053,0.00
 014381,0.00010645,0.00032851,0.00003058,0.00018323,-0.00164498,-0.0006
 8116,-0.00088453,0.00020575,0.00026823,0.00027652,-0.00013802,0.000020
 01,-0.00005075,0.00010216,0.00003072,0.00006052,-0.00005781,-0.0000371
 4,-0.00004393,0.00005689,-0.00001581,0.00001259,0.00000686,0.00001644,
 0.00001634,0.00001880,0.00001507,0.00002072,-0.00005556,-0.00010231,-0
 .00010522,-0.00001691,0.00005428,0.00002437,0.00001588,-0.00003758,-0.
 00000219,-0.00000568,0.00001116,0.00000156,-0.00000035,-0.00000562,-0.
 00001409,0.00000143,-0.00002102,0.00000480,0.00002597,-0.00001889,-0.0
 0002718,0.00001858,0.00002109,0.00002280,0.00000827,0.00000856,-0.0000
 0784,0.00003165,0.00019644,0.00000934,0.00087893,0.00081685,-0.0002149
 3,-0.00000245,-0.00000054,-0.00001611,0.00006843,0.00005417,-0.0000730
 1,-0.00000113,-0.00000827,0.00001615,0.00005154,-0.00007776,-0.0000626
 2,0.00000832,-0.00007349,0.00007250,0.00001357,0.00001270,-0.00005851,
 0.00002909,0.00003218,0.00002451,0.00044449,-0.00028214,0.00094894,0.0
 0048450,-0.00095427,0.00037872,0.00001498,-0.00002765,-0.00002496,0.00
 000986,0.00000348,-0.00000871,0.00000727,-0.00000551,-0.00000679,0.000
 00606,-0.00001255,0.00000702,0.00000381,0.00000283,0.00001890,0.000007
 32,0.00001583,0.00003122,0.00019402,0.00022693,0.00006042,0.00002849,0
 .00001386,0.00000306,0.00000818,0.00001627,0.00001546,0.00000228,0.000
 01344,0.00001207,-0.00000118,-0.00000383,0.00000780,-0.00001078,-0.000
 00978,0.00000562,-0.00006396,0.00000924,0.00002016,0.00001271,-0.00001
 902,-0.00006125,0.00002028,-0.00001017,-0.00000206,0.00000438,-0.00000
 676,-0.00000696,-0.00001177,-0.00000970,-0.00001428,-0.00001177,0.0000
 0887,0.00000017,-0.00000085,0.00001573,0.00001121,0.00006700,0.0000503
 3,0.00000297,0.00028324,-0.00146299,-0.00171661,-0.00002917,-0.0000588
 8,-0.00004189,0.09223840,0.12632691,-0.00082477,0.00041575,-0.00051308
 ,-0.00016001,-0.00075656,0.00012847,-0.00001502,-0.00005406,0.00006067
 ,-0.00056487,-0.00103297,-0.00297167,0.01267387,0.00934971,0.00889445,
 -0.00000962,-0.00000254,-0.00000932,0.00067116,0.00061115,-0.00239881,
 0.00048181,-0.00007752,0.00054262,-0.00002955,0.00002094,0.00010539,-0
 .00017006,0.00030839,-0.00013376,0.00105965,-0.00075831,0.00009204,-0.
 00001743,-0.00001146,-0.00005476,0.00213865,0.00016142,-0.00047033,-0.
 00002134,-0.00003840,0.00001177,-0.00003874,0.00000761,-0.00002581,-0.
 08255752,-0.07586147,-0.11113128,-0.01910957,-0.00414116,-0.02632244,-
 0.00093797,0.00108753,-0.00082328,0.00041486,0.00006270,-0.00042630,-0
 .00001871,-0.00019704,-0.00009125,0.00026207,-0.00020471,0.00018929,-0
 .00063996,0.00067413,-0.00087226,0.00024675,0.00059964,0.00029967,-0.0
 0012018,-0.00006060,-0.00006139,0.00000345,-0.00000364,0.00000732,-0.0
 0003229,-0.00001499,-0.00000145,-0.00000527,0.00000902,-0.00000957,-0.
 00000476,0.00000287,-0.00000534,-0.00000588,0.00000340,-0.00000366,0.0
 0001164,0.00000776,-0.00000431,0.00001146,-0.00000948,0.00000122,-0.00
 001430,-0.00000130,-0.00001602,-0.00000279,-0.00005541,-0.00004128,-0.
 00002762,0.00002230,0.00002559,0.00000908,0.00000004,-0.00005455,-0.00
 000684,-0.00005431,0.00000126,-0.00000362,0.00001310,-0.00003144,-0.00
 000538,-0.00002238,-0.00001530,-0.00001633,0.00001097,-0.00000241,0.00
 002035,0.00002147,-0.00004970,-0.00003095,-0.00007081,0.00005138,0.000
 00355,0.00016512,0.00006988,0.00032578,0.00004416,0.00015083,-0.001975
 35,-0.00048789,-0.00079994,0.00030445,0.00031423,0.00029961,-0.0001484
 6,0.00004482,-0.00003647,0.00009301,0.00003483,0.00005961,-0.00005390,
 -0.00003214,-0.00004387,0.00005364,-0.00001060,0.00001258,0.00000648,0
 .00001311,0.00001186,0.00002738,0.00001971,0.00002159,-0.00007510,-0.0
 0010505,-0.00010769,0.00002797,0.00014611,-0.00001396,0.00002357,-0.00
 002985,-0.00012181,0.00006046,0.00010348,-0.00009364,0.00004145,-0.000
 01591,-0.00005824,-0.00001693,-0.00001125,0.00000170,0.00006251,-0.000
 02462,-0.00005346,0.00005359,0.00004657,0.00002539,-0.00001516,0.00000
 358,0.00001446,0.00049187,0.00019488,-0.00076524,0.00061901,0.00022652
 ,0.00003337,0.00001112,-0.00000209,-0.00001191,0.00006430,0.00002140,-
 0.00004467,0.00000747,-0.00001383,0.00001346,-0.00008218,0.00003594,0.
 00005943,0.00002198,0.00003353,-0.00006768,-0.00005754,0.00000708,-0.0
 0000178,-0.00000769,0.00001758,0.00006256,-0.00019069,0.00064028,0.000
 55679,-0.00017186,0.00027899,-0.00001366,0.00002298,-0.00002599,0.0000
 2045,0.00000940,-0.00000634,0.00000283,0.00000555,0.00000114,-0.000001
 01,0.00000615,-0.00000484,0.00000201,0.00000689,-0.00000159,0.00000762
 ,0.00001793,0.00002635,0.00000873,-0.00002579,0.00027256,-0.00010373,0
 .00000869,0.00000794,-0.00000448,0.00000491,0.00001940,0.00001448,0.00
 000907,0.00000907,0.00000959,0.00000563,-0.00000085,0.00001379,0.00000
 939,-0.00001178,0.00000859,-0.00001561,0.00000245,0.00003553,0.0000276
 3,-0.00003986,-0.00001642,0.00002403,-0.00001249,0.00000492,0.00000422
 ,-0.00000893,-0.00000481,-0.00001234,-0.00001073,-0.00001288,-0.000012
 10,0.00000790,0.00000171,-0.00000268,0.00001345,0.00001189,0.00002336,
 0.00002422,-0.00002637,0.00070482,-0.00223421,-0.00083440,-0.00003689,
 -0.00000399,-0.00010158,0.09076756,0.08171759,0.14184958,0.00012233,-0
 .00004880,-0.00028814,-0.00004226,0.00003146,0.00004902,0.00001853,0.0
 0001724,0.00002151,-0.00036564,-0.00003557,-0.00028398,-0.02380283,0.0
 1769368,0.02087038,-0.00000723,-0.00001177,0.00001481,-0.00043778,0.00
 010244,0.00098702,-0.00011883,-0.00004790,-0.00017935,0.00005888,0.000
 07229,-0.00000984,-0.00010274,0.00014939,-0.00008470,-0.00112093,-0.00
 124282,0.00280135,0.00015848,0.00058211,0.00045847,-0.00172364,-0.0019
 9989,-0.00013099,-0.00015104,-0.00002918,0.00004564,-0.00000815,-0.000
 00869,0.00000477,-0.08623827,0.08446018,0.02645444,-0.00323905,0.01764
 130,-0.00314542,-0.00050496,0.00033989,-0.00118593,0.00011049,-0.00013
 607,0.00018820,0.00002096,0.00009143,0.00012730,-0.00011146,0.00030575
 ,0.00006524,0.00009735,0.00042162,-0.00124232,0.00060242,0.00017529,-0
 .00036516,-0.00009519,-0.00002871,0.00001831,0.00001796,-0.00005400,-0
 .00000517,-0.00009850,0.00023712,-0.00009646,-0.00000653,-0.00005548,0
 .00003488,0.00000034,-0.00001069,-0.00000592,-0.00000165,-0.00001203,0
 .00000730,0.00001259,-0.00001494,0.00000859,0.00000667,0.00001728,0.00
 000279,-0.00000249,-0.00001952,0.00002184,-0.00001369,0.00002583,-0.00
 001990,0.00004852,-0.00000513,0.00000495,0.00000927,-0.00000710,0.0000
 3214,0.00000933,0.00003001,0.00000909,0.00001429,0.00000840,0.00001780
 ,0.00000344,0.00001297,-0.00000504,-0.00000077,0.00000170,-0.00000210,
 -0.00000554,-0.00000131,0.00000193,-0.00000053,0.00000946,-0.00000520,
 0.00000269,-0.00005447,-0.00001960,-0.00005892,-0.00001498,-0.00003126
 ,0.00024797,0.00012553,0.00016283,-0.00004142,-0.00004909,-0.00005579,
 0.00003390,0.00000129,0.00001426,-0.00002784,0.00000388,-0.00000724,0.
 00001537,0.00000849,0.00001083,-0.00001350,0.00000843,0.00000048,-0.00
 000134,-0.00000657,-0.00000575,0.00000647,-0.00000056,0.00000221,-0.00
 001097,0.00002127,0.00001273,-0.00004880,-0.00003370,0.00003191,-0.000
 08917,-0.00009883,0.00000435,-0.00000781,-0.00000533,0.00001733,-0.000
 00972,-0.00000369,0.00000133,-0.00000217,0.00000330,-0.00000987,0.0000
 3154,-0.00001294,-0.00002934,0.00002482,0.00001834,-0.00000339,-0.0000
 2319,-0.00003405,0.00002751,-0.00009940,0.00000696,0.00006734,-0.00017
 487,-0.00029181,0.00007145,0.00000420,0.00001380,0.00002891,-0.0000184
 8,-0.00002756,0.00001925,0.00000703,-0.00000278,-0.00000674,-0.0001283
 4,-0.00019653,-0.00066268,0.00001670,-0.00004035,0.00000332,-0.0000045
 0,0.00002116,-0.00004018,-0.00002330,0.00004313,-0.00004172,-0.0000097
 8,0.00012210,0.00019103,-0.00035065,0.00034718,-0.00090433,0.00006206,
 0.00033850,0.00005429,0.00001308,0.00001573,0.00001764,0.00000325,0.00
 000001,0.00001098,0.00000065,0.00001495,-0.00000347,0.00000189,0.00000
 476,-0.00000998,0.00000598,-0.00000978,-0.00000620,0.00000922,-0.00004
 440,-0.00001936,-0.00001946,0.00000415,-0.00001105,-0.00002367,-0.0000
 0084,-0.00000962,-0.00001424,-0.00000198,-0.00000462,-0.00000657,-0.00
 000102,0.00000677,0.00000089,-0.00000931,0.00000278,0.00001218,-0.0000
 1145,-0.00001351,0.00000587,-0.00000092,0.00001597,-0.00000184,-0.0000
 0214,-0.00000100,0.00000004,-0.00000120,0.00000018,0.00000049,0.000000
 69,0.00000133,0.00000009,-0.00000087,-0.00000022,-0.00000257,-0.000005
 85,-0.00000615,-0.00001718,-0.00000642,-0.00001323,0.00010800,0.000020
 95,0.00017892,-0.00042480,-0.00054651,0.00019094,0.00743753,-0.0087896
 0,-0.00367098,0.11049025,0.00009815,-0.00000523,-0.00016415,0.00001449
 ,-0.00009372,0.00001885,-0.00000128,-0.00001172,0.00001373,-0.00004931
 ,0.00006384,-0.00001553,-0.00016404,0.00707656,-0.00023392,0.00000728,
 -0.00000479,-0.00002871,0.00012057,-0.00004389,0.00082051,-0.00011600,
 0.00000680,-0.00016644,0.00001355,0.00002849,-0.00001758,0.00001818,-0
 .00007646,0.00001360,-0.00122340,0.00044737,0.00147461,0.00010440,0.00
 034051,0.00024611,-0.00065182,-0.00100721,-0.00013944,-0.00008583,-0.0
 0000827,0.00001977,-0.00000627,-0.00000493,0.00001663,0.09209523,-0.20
 059182,-0.05904014,0.01388528,-0.02306738,0.00759798,0.00051647,0.0001
 4852,0.00110755,-0.00014557,0.00002826,-0.00018960,0.00000072,-0.00013
 422,-0.00010590,-0.00025446,-0.00036378,0.00027629,0.00073820,-0.00001
 596,0.00110902,-0.00013480,-0.00020270,0.00092411,-0.00000323,-0.00000
 470,0.00007891,0.00000147,0.00002494,0.00003924,0.00001785,-0.00054718
 ,0.00017436,0.00000321,0.00006397,-0.00005161,-0.00000117,0.00000840,0
 .00000626,0.00000140,0.00001456,-0.00001368,-0.00000889,0.00002903,-0.
 00000867,-0.00000027,-0.00000210,0.00000873,0.00001696,-0.00002839,-0.
 00002450,0.00000507,-0.00000456,-0.00000882,-0.00001484,-0.00000176,0.
 00000725,0.00000034,0.00000829,-0.00001476,0.00000465,-0.00001307,0.00
 000332,0.00000261,-0.00000019,-0.00000384,0.00000316,-0.00000553,0.000
 00066,0.00000197,0.00000246,0.00000364,0.00000681,0.00000379,-0.000000
 21,-0.00000188,-0.00000281,0.00000388,0.00000875,-0.00000066,-0.000003
 12,-0.00000262,-0.00000442,-0.00000100,-0.00000416,0.00000268,-0.00000
 593,0.00000275,0.00000539,-0.00000218,-0.00000175,-0.00000011,-0.00000
 065,0.00000220,0.00000029,0.00000110,-0.00000072,-0.00000064,-0.000001
 27,0.00000170,-0.00000071,0.00000004,0.00000051,0.00000013,0.00000031,
 0.00000029,0.00000039,0.00000041,-0.00000289,-0.00000034,0.00000017,-0
 .00004213,-0.00010259,0.00003037,0.00005266,0.00000302,0.00004893,-0.0
 0001138,-0.00003169,0.00003262,-0.00001937,0.00000918,0.00001763,0.000
 00963,0.00000541,-0.00000223,-0.00002209,0.00000888,0.00001487,-0.0000
 1385,0.00000705,-0.00000750,-0.00000958,-0.00002538,0.00001488,-0.0001
 0061,0.00003974,0.00006264,-0.00016470,-0.00024528,0.00011609,0.000002
 87,0.00000890,0.00001860,-0.00001417,-0.00002334,0.00001146,0.00000387
 ,-0.00000091,-0.00000857,0.00024695,-0.00002548,0.00034859,0.00000348,
 0.00003064,-0.00003047,0.00004207,0.00001106,-0.00000291,0.00001671,-0
 .00001381,0.00006547,0.00003374,0.00017377,0.00005346,0.00066443,0.000
 19883,0.00063650,0.00057811,-0.00121942,-0.00010259,0.00001019,-0.0000
 1639,-0.00001733,0.00000124,0.00000407,-0.00001041,0.00000175,-0.00001
 690,0.00000364,-0.00000149,-0.00000865,0.00001048,-0.00000840,0.000022
 03,0.00000402,-0.00002458,0.00001050,-0.00004608,0.00000621,0.00000680
 ,0.00000321,0.00000419,0.00000558,0.00000438,-0.00000082,0.00000466,0.
 00000133,-0.00000263,-0.00000005,0.00000093,-0.00000284,-0.00000229,-0
 .00000070,-0.00000365,-0.00000218,-0.00000368,-0.00000471,-0.00000094,
 0.00000420,-0.00000069,-0.00000074,0.00000032,-0.00000022,-0.00000018,
 0.00000015,-0.00000048,-0.00000036,-0.00000037,-0.00000075,0.00000049,
 0.00000001,-0.00000016,0.00000063,0.00000043,0.00000401,0.00000852,-0.
 00000107,0.00005472,-0.00001561,0.00007802,-0.00038499,-0.00039593,0.0
 0010105,0.00377464,-0.01938748,-0.01135990,-0.10949627,0.23892023,-0.0
 0003488,-0.00012284,0.00012294,-0.00002106,0.00004683,0.00014326,0.000
 05817,0.00002392,-0.00000959,-0.00007762,0.00008227,-0.00004446,0.0190
 2104,-0.01131238,-0.00967305,0.00000632,-0.00003606,-0.00001127,0.0000
 0928,-0.00008329,-0.00041355,0.00003728,0.00000134,0.00004259,-0.00001
 774,-0.00006336,0.00003789,-0.00000816,-0.00000654,-0.00003474,0.00282
 091,0.00154929,-0.00314541,-0.00008241,-0.00038211,-0.00034135,0.00143
 234,0.00127130,-0.00009427,0.00009954,0.00002707,-0.00002256,0.0000046
 5,0.00000892,-0.00001358,0.02937932,-0.05757003,-0.05463661,-0.0111925
 7,0.02240180,0.00146968,-0.00118061,0.00170306,-0.00226196,0.00009618,
 -0.00007373,0.00012753,-0.00003181,0.00011384,0.00007645,0.00036255,0.
 00060545,-0.00016934,-0.00083888,0.00044064,-0.00202948,0.00015146,0.0
 0091856,-0.00215733,-0.00004032,0.00006188,0.00001694,-0.00000292,0.00
 001000,0.00001511,-0.00000547,-0.00004879,-0.00000526,-0.00000138,-0.0
 0000412,-0.00001431,0.00000096,0.00000672,-0.00001767,-0.00000027,0.00
 000396,-0.00000395,0.00000004,0.00001150,-0.00001159,-0.00000569,0.000
 04835,0.00001347,0.00001073,-0.00008515,0.00001633,-0.00003402,-0.0000
 1468,0.00004075,0.00002645,0.00000235,-0.00000256,-0.00000781,-0.00000
 080,-0.00000261,-0.00000092,-0.00000629,0.00000018,-0.00000863,0.00000
 494,-0.00000477,-0.00000097,-0.00000586,-0.00000550,-0.00000282,0.0000
 0493,0.00000286,0.00000490,0.00000192,-0.00001044,-0.00000628,-0.00000
 780,0.00001794,0.00000684,0.00000091,-0.00001771,-0.00000365,-0.000002
 25,-0.00000888,0.00001895,0.00001772,0.00000397,-0.00000637,-0.0000068
 8,-0.00000260,0.00000435,0.00000138,0.00000373,-0.00000485,0.00000257,
 0.00000024,0.00000234,0.00000115,0.00000169,-0.00000205,0.00000209,0.0
 0000077,-0.00000035,-0.00000192,-0.00000181,0.00000332,0.00000077,0.00
 000156,-0.00000775,0.00000189,0.00000013,-0.00001134,0.00004421,-0.000
 04100,-0.00006383,-0.00000992,-0.00004681,0.00000505,0.00001249,-0.000
 02022,0.00000768,-0.00000098,0.00000104,-0.00001436,0.00000922,-0.0000
 0627,-0.00001306,0.00001046,0.00002285,-0.00000085,-0.00001370,0.00000
 129,0.00001847,0.00002909,-0.00002091,0.00008769,-0.00004699,0.0000534
 1,0.00004357,0.00020826,-0.00001657,0.00000073,-0.00001260,-0.00002195
 ,0.00000964,0.00001467,-0.00000067,-0.00000290,0.00000189,0.00000524,-
 0.00039925,-0.00042594,-0.00107593,-0.00000548,-0.00000503,0.00001241,
 -0.00002709,-0.00003286,0.00002368,-0.00002901,0.00003480,-0.00011979,
 -0.00006830,-0.00017248,-0.00026145,-0.00218462,0.00149501,-0.00296522
 ,-0.00013676,0.00046651,0.00018709,0.00000857,-0.00003008,0.00001527,0
 .00000014,0.00000515,0.00000237,0.00000114,0.00000012,-0.00000326,0.00
 000208,-0.00000575,-0.00000490,0.00000625,-0.00000134,-0.00001493,-0.0
 0006511,-0.00004395,-0.00009070,-0.00000995,0.00000030,-0.00000305,0.0
 0000143,0.00000404,0.00000522,0.00000607,0.00000302,0.00000404,0.00000
 195,0.00000148,0.00000291,0.00000075,-0.00000089,-0.00000009,0.0000009
 1,0.00000040,-0.00000149,0.00000672,0.00000216,0.00000171,0.00000057,-
 0.00000027,-0.00000083,0.00000028,-0.00000026,-0.00000021,-0.00000021,
 -0.00000008,-0.00000011,-0.00000030,0.00000008,0.00000007,-0.00000068,
 -0.00000071,-0.00000068,-0.00001920,-0.00000745,-0.00001277,0.00005967
 ,-0.00000682,0.00004633,0.00042320,0.00050544,-0.00014858,0.00318172,-
 0.01775931,-0.00391577,-0.04075167,0.05618450,0.08142148\\-0.00000026,
 0.00000715,-0.00000313,-0.00000579,0.00000480,-0.00000319,0.00001395,0
 .00000648,-0.00000153,-0.00000792,0.00001064,-0.00000356,-0.00000823,0
 .00000128,0.00000171,0.00000132,-0.00000155,-0.00000288,0.00000300,0.0
 0000102,0.00000487,0.00000281,0.00000002,0.00000214,0.00000149,0.,-0.0
 0000109,-0.00000037,0.00000252,-0.00000092,-0.00000268,-0.00000155,0.0
 0000036,0.00000457,0.00000020,-0.00000317,-0.00000591,-0.00001348,-0.0
 0000063,-0.00000303,-0.00000445,-0.00000112,0.00000289,0.00000493,0.,0
 .00000079,0.00000599,-0.00000520,0.00000045,-0.00000018,0.00000248,-0.
 00000030,0.00000026,0.00000060,-0.00000040,-0.00000185,0.00000016,0.00
 000019,0.00000147,-0.00000134,0.,-0.00000203,0.00000218,-0.00000413,0.
 00000572,-0.00000876,-0.00000128,0.00000433,0.00000018,-0.00000050,-0.
 00000041,0.00000022,0.00000035,-0.00000105,0.00000169,0.00000097,-0.00
 000117,-0.00000401,-0.00000122,0.00000253,0.00000036,0.00000053,-0.000
 00225,0.00000256,0.00000084,-0.00000100,-0.00000424,-0.00000144,-0.000
 00053,0.00000323,-0.00000010,0.00000438,0.00000178,0.00000010,-0.00000
 293,0.00000238,0.00000015,-0.00000512,-0.00000057,0.00000093,0.0000027
 4,0.00000512,0.00000167,0.00000262,-0.00000498,-0.00000209,-0.00000063
 ,0.00000515,0.00000183,0.00000557,-0.00000374,-0.00000055,-0.00000715,
 -0.00000141,-0.00000207,0.00000255,0.00000697,0.00000221,0.00000071,-0
 .00000477,-0.00000102,-0.00000269,0.00000315,0.00000128,0.00000472,-0.
 00000141,0.00000147,-0.00000312,-0.00000224,-0.00000323,0.00000167,0.0
 0000332,-0.00000092,-0.00000175,-0.00000363,0.00000200,0.00000065,0.00
 000280,0.00000019,-0.00000008,-0.00000124,0.00000169,-0.00000049,0.000
 00089,-0.00000046,0.00000045,0.00000059,-0.00000099,-0.00000081,-0.000
 00108,0.00000037,0.00000057,0.00000093,-0.00000058,0.00000052,-0.00000
 112,0.00000004,-0.00000089,0.,0.00000013,-0.00000020,-0.00000011,0.000
 00007,0.00000031,0.00000121,0.00000042,0.00000152,0.00000014,0.0000006
 6,-0.00000004,-0.00000103,-0.00000132,0.,-0.00000002,-0.00000062,0.000
 00010,0.,-0.00000027,-0.00000061,0.00000057,-0.00000017,0.00000238,0.0
 0000096,0.00000216,0.00000446,-0.00000087,-0.00000015,0.00000093,-0.00
 000058,-0.00000194,-0.00000367,0.00000134,0.00000007,-0.00000031,-0.00
 000032,0.00000053,-0.00000004,-0.00000040,-0.00000019,0.,-0.00000007,-
 0.00000010,-0.00000032,-0.00000012,0.00000006,0.00000021,0.00000002,0.
 00000645,-0.00001024,0.00001089,-0.00000073,-0.00000028,-0.00000106,0.
 00000056,0.00000018,-0.00000088,0.00000060,-0.00000042,-0.00000021,-0.
 00000023,0.00000030,-0.00000034,-0.00000047,-0.00000005,0.00000026,0.0
 0000025,-0.00000056,0.00000019,0.00000003,0.00000045,-0.00000056,0.000
 00273,-0.00000974,0.00000616,-0.00000148,-0.00000106,-0.00000165,-0.00
 000113,-0.00000098,0.00000079,0.00000043,-0.00000062,0.00000100,0.0000
 0117,0.00000088,0.00000083,-0.00000096,-0.00000049,-0.00000129,-0.0000
 0068,-0.00000067,0.00000058,0.00000006,-0.00000033,0.00000085,-0.00000
 046,0.00000112,-0.00000088,0.00000003,0.00000042,-0.00000004,-0.000000
 07,-0.00000012,-0.00000011,-0.00000015,-0.00000014,0.00000011,0.000000
 15,0.00000004,-0.00000032,-0.00000783,-0.00000062,-0.00000019,0.000007
 87,-0.00001141,0.00000217,0.00000081,-0.00000005,0.00000017,0.00000066
 ,-0.00000004,-0.00000166,0.00000046,0.00000038,-0.00000036\\\@


 "WHERE SHALL I START, PLEASE YOUR MAJESTY?" HE ASKED.
 "BEGIN AT THE BEGINNING," THE KING SAID GRAVELY,
 "AND GO ON TILL YOU COME TO THE END: THEN STOP." 

                                      -- LEWIS CARROLL
 Job cpu time:       0 days  0 hours  0 minutes 33.8 seconds.
 File lengths (MBytes):  RWF=   2598 Int=      0 D2E=      0 Chk=      7 Scr=      2
 Normal termination of Gaussian 09 at Mon Apr 18 12:38:48 2022.
