 Entering Gaussian System, Link 0=g09
 Input=/scratch/mverot/1-3-propanediol-opt/1-3-propanediol-opt.com
 Output=/scratch/mverot/1-3-propanediol-opt/1-3-propanediol-opt.log
 Initial command:
 /opt/g09/l1.exe "/scratch/mverot/1-3-propanediol-opt/Gau-1473919.inp" -scrdir="/scratch/mverot/1-3-propanediol-opt/"
 Entering Link 1 = /opt/g09/l1.exe PID=   1473921.
  
 Copyright (c) 1988,1990,1992,1993,1995,1998,2003,2009,2013,
            Gaussian, Inc.  All Rights Reserved.
  
 This is part of the Gaussian(R) 09 program.  It is based on
 the Gaussian(R) 03 system (copyright 2003, Gaussian, Inc.),
 the Gaussian(R) 98 system (copyright 1998, Gaussian, Inc.),
 the Gaussian(R) 94 system (copyright 1995, Gaussian, Inc.),
 the Gaussian 92(TM) system (copyright 1992, Gaussian, Inc.),
 the Gaussian 90(TM) system (copyright 1990, Gaussian, Inc.),
 the Gaussian 88(TM) system (copyright 1988, Gaussian, Inc.),
 the Gaussian 86(TM) system (copyright 1986, Carnegie Mellon
 University), and the Gaussian 82(TM) system (copyright 1983,
 Carnegie Mellon University). Gaussian is a federally registered
 trademark of Gaussian, Inc.
  
 This software contains proprietary and confidential information,
 including trade secrets, belonging to Gaussian, Inc.
  
 This software is provided under written license and may be
 used, copied, transmitted, or stored only in accord with that
 written license.
  
 The following legend is applicable only to US Government
 contracts under FAR:
  
                    RESTRICTED RIGHTS LEGEND
  
 Use, reproduction and disclosure by the US Government is
 subject to restrictions as set forth in subparagraphs (a)
 and (c) of the Commercial Computer Software - Restricted
 Rights clause in FAR 52.227-19.
  
 Gaussian, Inc.
 340 Quinnipiac St., Bldg. 40, Wallingford CT 06492
  
  
 ---------------------------------------------------------------
 Warning -- This program may not be used in any manner that
 competes with the business of Gaussian, Inc. or will provide
 assistance to any competitor of Gaussian, Inc.  The licensee
 of this program is prohibited from giving any competitor of
 Gaussian, Inc. access to this program.  By using this program,
 the user acknowledges that Gaussian, Inc. is engaged in the
 business of creating and licensing software in the field of
 computational chemistry and represents and warrants to the
 licensee that it is not a competitor of Gaussian, Inc. and that
 it will not use this program in any manner prohibited above.
 ---------------------------------------------------------------
  

 Cite this work as:
 Gaussian 09, Revision D.01,
 M. J. Frisch, G. W. Trucks, H. B. Schlegel, G. E. Scuseria, 
 M. A. Robb, J. R. Cheeseman, G. Scalmani, V. Barone, B. Mennucci, 
 G. A. Petersson, H. Nakatsuji, M. Caricato, X. Li, H. P. Hratchian, 
 A. F. Izmaylov, J. Bloino, G. Zheng, J. L. Sonnenberg, M. Hada, 
 M. Ehara, K. Toyota, R. Fukuda, J. Hasegawa, M. Ishida, T. Nakajima, 
 Y. Honda, O. Kitao, H. Nakai, T. Vreven, J. A. Montgomery, Jr., 
 J. E. Peralta, F. Ogliaro, M. Bearpark, J. J. Heyd, E. Brothers, 
 K. N. Kudin, V. N. Staroverov, T. Keith, R. Kobayashi, J. Normand, 
 K. Raghavachari, A. Rendell, J. C. Burant, S. S. Iyengar, J. Tomasi, 
 M. Cossi, N. Rega, J. M. Millam, M. Klene, J. E. Knox, J. B. Cross, 
 V. Bakken, C. Adamo, J. Jaramillo, R. Gomperts, R. E. Stratmann, 
 O. Yazyev, A. J. Austin, R. Cammi, C. Pomelli, J. W. Ochterski, 
 R. L. Martin, K. Morokuma, V. G. Zakrzewski, G. A. Voth, 
 P. Salvador, J. J. Dannenberg, S. Dapprich, A. D. Daniels, 
 O. Farkas, J. B. Foresman, J. V. Ortiz, J. Cioslowski, 
 and D. J. Fox, Gaussian, Inc., Wallingford CT, 2013.
 
 ******************************************
 Gaussian 09:  AM64L-G09RevD.01 24-Apr-2013
                17-Apr-2022 
 ******************************************
 %chk=1-3-propanediol-opt
 ----------
 #n PM6 Opt
 ----------
 1/14=-1,18=20,19=15,26=1,38=1/1,3;
 2/9=110,12=2,17=6,18=5,40=1/2;
 3/5=2,16=1,25=1,41=3900000,71=1/1,2,3;
 4/35=1/1;
 5/5=2,35=1,38=5/2;
 6/7=2,8=2,9=2,10=2,28=1/1;
 7//1,2,3,16;
 1/14=-1,18=20,19=15,26=1/3(2);
 2/9=110/2;
 99//99;
 2/9=110/2;
 3/5=2,16=1,25=1,41=3900000,71=1,135=20/1,2,3;
 4/5=5,16=3,35=1/1;
 5/5=2,35=1,38=5/2;
 7//1,2,3,16;
 1/14=-1,18=20,19=15,26=1/3(-5);
 2/9=110/2;
 6/7=2,8=2,9=2,10=2,19=2,28=1/1;
 99/9=1/99;
 -------------------------
 Optimisation de geometrie
 -------------------------
 Symbolic Z-matrix:
 Charge =  0 Multiplicity = 1
 C                     1.0003    2.0505    1.2298 
 O                     1.6167    3.2158    0.6619 
 C                     1.9842    0.8895    1.1354 
 C                     3.2981    1.1469    1.8851 
 O                     4.1136    2.1208    1.2591 
 H                     0.0703    1.8109    0.6924 
 H                     0.7421    2.2317    2.2855 
 H                     1.0489    3.9812    0.8361 
 H                     2.2102    0.6867    0.0812 
 H                     1.4929   -0.0037    1.5453 
 H                     3.8898    0.225     1.9226 
 H                     3.0683    1.4232    2.9315 
 H                     3.5208    2.8609    1.0374 
 

 GradGradGradGradGradGradGradGradGradGradGradGradGradGradGradGradGradGrad
 Berny optimization.
 Initialization pass.
                           ----------------------------
                           !    Initial Parameters    !
                           ! (Angstroms and Degrees)  !
 --------------------------                            --------------------------
 ! Name  Definition              Value          Derivative Info.                !
 --------------------------------------------------------------------------------
 ! R1    R(1,2)                  1.4354         estimate D2E/DX2                !
 ! R2    R(1,3)                  1.5248         estimate D2E/DX2                !
 ! R3    R(1,6)                  1.1005         estimate D2E/DX2                !
 ! R4    R(1,7)                  1.1018         estimate D2E/DX2                !
 ! R5    R(2,8)                  0.9688         estimate D2E/DX2                !
 ! R6    R(3,4)                  1.5345         estimate D2E/DX2                !
 ! R7    R(3,9)                  1.0971         estimate D2E/DX2                !
 ! R8    R(3,10)                 1.0987         estimate D2E/DX2                !
 ! R9    R(4,5)                  1.4161         estimate D2E/DX2                !
 ! R10   R(4,11)                 1.0961         estimate D2E/DX2                !
 ! R11   R(4,12)                 1.1064         estimate D2E/DX2                !
 ! R12   R(5,13)                 0.9738         estimate D2E/DX2                !
 ! A1    A(2,1,3)              108.4547         estimate D2E/DX2                !
 ! A2    A(2,1,6)              110.2701         estimate D2E/DX2                !
 ! A3    A(2,1,7)              110.2551         estimate D2E/DX2                !
 ! A4    A(3,1,6)              110.4443         estimate D2E/DX2                !
 ! A5    A(3,1,7)              109.6186         estimate D2E/DX2                !
 ! A6    A(6,1,7)              107.7975         estimate D2E/DX2                !
 ! A7    A(1,2,8)              108.576          estimate D2E/DX2                !
 ! A8    A(1,3,4)              113.2378         estimate D2E/DX2                !
 ! A9    A(1,3,9)              109.4619         estimate D2E/DX2                !
 ! A10   A(1,3,10)             107.9003         estimate D2E/DX2                !
 ! A11   A(4,3,9)              108.9109         estimate D2E/DX2                !
 ! A12   A(4,3,10)             109.6925         estimate D2E/DX2                !
 ! A13   A(9,3,10)             107.4775         estimate D2E/DX2                !
 ! A14   A(3,4,5)              113.1086         estimate D2E/DX2                !
 ! A15   A(3,4,11)             109.7463         estimate D2E/DX2                !
 ! A16   A(3,4,12)             109.0336         estimate D2E/DX2                !
 ! A17   A(5,4,11)             106.4205         estimate D2E/DX2                !
 ! A18   A(5,4,12)             111.4659         estimate D2E/DX2                !
 ! A19   A(11,4,12)            106.8466         estimate D2E/DX2                !
 ! A20   A(4,5,13)             105.8283         estimate D2E/DX2                !
 ! D1    D(3,1,2,8)           -171.8373         estimate D2E/DX2                !
 ! D2    D(6,1,2,8)             67.1123         estimate D2E/DX2                !
 ! D3    D(7,1,2,8)            -51.8083         estimate D2E/DX2                !
 ! D4    D(2,1,3,4)             60.0254         estimate D2E/DX2                !
 ! D5    D(2,1,3,9)            -61.6978         estimate D2E/DX2                !
 ! D6    D(2,1,3,10)          -178.3692         estimate D2E/DX2                !
 ! D7    D(6,1,3,4)           -179.0318         estimate D2E/DX2                !
 ! D8    D(6,1,3,9)             59.2449         estimate D2E/DX2                !
 ! D9    D(6,1,3,10)           -57.4264         estimate D2E/DX2                !
 ! D10   D(7,1,3,4)            -60.3999         estimate D2E/DX2                !
 ! D11   D(7,1,3,9)            177.8768         estimate D2E/DX2                !
 ! D12   D(7,1,3,10)            61.2055         estimate D2E/DX2                !
 ! D13   D(1,3,4,5)            -70.6852         estimate D2E/DX2                !
 ! D14   D(1,3,4,11)           170.6476         estimate D2E/DX2                !
 ! D15   D(1,3,4,12)            53.9321         estimate D2E/DX2                !
 ! D16   D(9,3,4,5)             51.3464         estimate D2E/DX2                !
 ! D17   D(9,3,4,11)           -67.3209         estimate D2E/DX2                !
 ! D18   D(9,3,4,12)           175.9636         estimate D2E/DX2                !
 ! D19   D(10,3,4,5)           168.7207         estimate D2E/DX2                !
 ! D20   D(10,3,4,11)           50.0534         estimate D2E/DX2                !
 ! D21   D(10,3,4,12)          -66.6621         estimate D2E/DX2                !
 ! D22   D(3,4,5,13)            46.2397         estimate D2E/DX2                !
 ! D23   D(11,4,5,13)          166.8172         estimate D2E/DX2                !
 ! D24   D(12,4,5,13)          -77.0447         estimate D2E/DX2                !
 --------------------------------------------------------------------------------
 Trust Radius=3.00D-01 FncErr=1.00D-07 GrdErr=1.00D-07
 Number of steps in this run=     66 maximum allowed number of steps=    100.
 GradGradGradGradGradGradGradGradGradGradGradGradGradGradGradGradGradGrad

                          Input orientation:                          
 ---------------------------------------------------------------------
 Center     Atomic      Atomic             Coordinates (Angstroms)
 Number     Number       Type             X           Y           Z
 ---------------------------------------------------------------------
      1          6           0        1.000300    2.050500    1.229800
      2          8           0        1.616700    3.215800    0.661900
      3          6           0        1.984200    0.889500    1.135400
      4          6           0        3.298100    1.146900    1.885100
      5          8           0        4.113600    2.120800    1.259100
      6          1           0        0.070300    1.810900    0.692400
      7          1           0        0.742100    2.231700    2.285500
      8          1           0        1.048900    3.981200    0.836100
      9          1           0        2.210200    0.686700    0.081200
     10          1           0        1.492900   -0.003700    1.545300
     11          1           0        3.889800    0.225000    1.922600
     12          1           0        3.068300    1.423200    2.931500
     13          1           0        3.520800    2.860900    1.037400
 ---------------------------------------------------------------------
                    Distance matrix (angstroms):
                    1          2          3          4          5
     1  C    0.000000
     2  O    1.435404   0.000000
     3  C    1.524760   2.402276   0.000000
     4  C    2.554564   2.933202   1.534483   0.000000
     5  O    3.114231   2.791090   2.462873   1.416121   0.000000
     6  H    1.100503   2.089504   2.169848   3.504586   4.094565
     7  H    1.101818   2.090324   2.160334   2.805396   3.526019
     8  H    1.971031   0.968803   3.243914   3.767301   3.610042
     9  H    2.154783   2.661917   1.097060   2.156239   2.658387
    10  H    2.135868   3.340794   1.098727   2.167508   3.385776
    11  H    3.487353   3.962478   2.166231   1.096091   2.020984
    12  H    2.750620   3.235992   2.164736   1.106392   2.091942
    13  H    2.654560   1.972955   2.501432   1.925094   0.973812
                    6          7          8          9         10
     6  H    0.000000
     7  H    1.779426   0.000000
     8  H    2.385060   2.292518   0.000000
     9  H    2.493304   3.066151   3.573825   0.000000
    10  H    2.458455   2.471560   4.071797   1.770525   0.000000
    11  H    4.314748   3.750541   4.833243   2.534754   2.437168
    12  H    3.761899   2.546015   3.874538   3.066428   2.537613
    13  H    3.623186   3.110437   2.721375   2.712773   3.546304
                   11         12         13
    11  H    0.000000
    12  H    1.768735   0.000000
    13  H    2.804944   2.420610   0.000000
 Stoichiometry    C3H8O2
 Framework group  C1[X(C3H8O2)]
 Deg. of freedom    33
 Full point group                 C1      NOp   1
 Largest Abelian subgroup         C1      NOp   1
 Largest concise Abelian subgroup C1      NOp   1
                         Standard orientation:                         
 ---------------------------------------------------------------------
 Center     Atomic      Atomic             Coordinates (Angstroms)
 Number     Number       Type             X           Y           Z
 ---------------------------------------------------------------------
      1          6           0        1.279122    0.476932    0.183540
      2          8           0        1.313242   -0.929184   -0.102915
      3          6           0       -0.033396    1.045416   -0.344677
      4          6           0       -1.272035    0.399497    0.290304
      5          8           0       -1.477722   -0.937696   -0.128032
      6          1           0        2.134825    0.983046   -0.288400
      7          1           0        1.345017    0.646545    1.270229
      8          1           0        2.081408   -1.316380    0.342709
      9          1           0       -0.079373    0.909092   -1.432263
     10          1           0       -0.037080    2.126234   -0.147141
     11          1           0       -2.170198    0.956633   -0.000073
     12          1           0       -1.192079    0.471487    1.391452
     13          1           0       -0.608824   -1.372689   -0.063945
 ---------------------------------------------------------------------
 Rotational constants (GHZ):      7.6403067      3.9465992      2.8720686
 Standard basis: VSTO-6G (5D, 7F)
 There are    28 symmetry adapted cartesian basis functions of A   symmetry.
 There are    28 symmetry adapted basis functions of A   symmetry.
    28 basis functions,   168 primitive gaussians,    28 cartesian basis functions
    16 alpha electrons       16 beta electrons
       nuclear repulsion energy       137.3813313895 Hartrees.
 Integral buffers will be    131072 words long.
 Regular integral format.
 Two-electron integral symmetry is turned off.
 Do NDO integrals.
 One-electron integrals computed using PRISM.
 NBasis=    28 RedAO= F EigKep=  0.00D+00  NBF=    28
 NBsUse=    28 1.00D-04 EigRej=  0.00D+00 NBFU=    28
 Simple Huckel Guess.
 Overlap will be assumed to be unity.
 Keep J ints in memory in canonical form, NReq=891302.
 Requested convergence on RMS density matrix=1.00D-08 within 128 cycles.
 Requested convergence on MAX density matrix=1.00D-06.
 Requested convergence on             energy=1.00D-06.
 No special actions if energy rises.
 SCF Done:  E(RPM6) = -0.158412916133     A.U. after   14 cycles
            NFock= 13  Conv=0.19D-08     -V/T= 0.9912

 **********************************************************************

            Population analysis using the SCF density.

 **********************************************************************

 Orbital symmetries:
       Occupied  (A) (A) (A) (A) (A) (A) (A) (A) (A) (A) (A) (A)
                 (A) (A) (A) (A)
       Virtual   (A) (A) (A) (A) (A) (A) (A) (A) (A) (A) (A) (A)
 The electronic state is 1-A.
 Alpha  occ. eigenvalues --   -1.12667  -1.08804  -1.00750  -0.88735  -0.77376
 Alpha  occ. eigenvalues --   -0.68869  -0.65481  -0.57725  -0.56610  -0.55573
 Alpha  occ. eigenvalues --   -0.51089  -0.48127  -0.47549  -0.43310  -0.39751
 Alpha  occ. eigenvalues --   -0.37303
 Alpha virt. eigenvalues --    0.08246   0.11834   0.12362   0.13815   0.18001
 Alpha virt. eigenvalues --    0.18865   0.19211   0.19624   0.19881   0.21050
 Alpha virt. eigenvalues --    0.22491   0.23981
          Condensed to atoms (all electrons):
               1          2          3          4          5          6
     1  C    3.986530   0.000000   0.000000   0.000000   0.000000   0.000000
     2  O    0.000000   6.552236   0.000000   0.000000   0.000000   0.000000
     3  C    0.000000   0.000000   4.377533   0.000000   0.000000   0.000000
     4  C    0.000000   0.000000   0.000000   3.969498   0.000000   0.000000
     5  O    0.000000   0.000000   0.000000   0.000000   6.539385   0.000000
     6  H    0.000000   0.000000   0.000000   0.000000   0.000000   0.886687
     7  H    0.000000   0.000000   0.000000   0.000000   0.000000   0.000000
     8  H    0.000000   0.000000   0.000000   0.000000   0.000000   0.000000
     9  H    0.000000   0.000000   0.000000   0.000000   0.000000   0.000000
    10  H    0.000000   0.000000   0.000000   0.000000   0.000000   0.000000
    11  H    0.000000   0.000000   0.000000   0.000000   0.000000   0.000000
    12  H    0.000000   0.000000   0.000000   0.000000   0.000000   0.000000
    13  H    0.000000   0.000000   0.000000   0.000000   0.000000   0.000000
               7          8          9         10         11         12
     1  C    0.000000   0.000000   0.000000   0.000000   0.000000   0.000000
     2  O    0.000000   0.000000   0.000000   0.000000   0.000000   0.000000
     3  C    0.000000   0.000000   0.000000   0.000000   0.000000   0.000000
     4  C    0.000000   0.000000   0.000000   0.000000   0.000000   0.000000
     5  O    0.000000   0.000000   0.000000   0.000000   0.000000   0.000000
     6  H    0.000000   0.000000   0.000000   0.000000   0.000000   0.000000
     7  H    0.892044   0.000000   0.000000   0.000000   0.000000   0.000000
     8  H    0.000000   0.690361   0.000000   0.000000   0.000000   0.000000
     9  H    0.000000   0.000000   0.824243   0.000000   0.000000   0.000000
    10  H    0.000000   0.000000   0.000000   0.846821   0.000000   0.000000
    11  H    0.000000   0.000000   0.000000   0.000000   0.868848   0.000000
    12  H    0.000000   0.000000   0.000000   0.000000   0.000000   0.894989
    13  H    0.000000   0.000000   0.000000   0.000000   0.000000   0.000000
              13
     1  C    0.000000
     2  O    0.000000
     3  C    0.000000
     4  C    0.000000
     5  O    0.000000
     6  H    0.000000
     7  H    0.000000
     8  H    0.000000
     9  H    0.000000
    10  H    0.000000
    11  H    0.000000
    12  H    0.000000
    13  H    0.670824
 Mulliken charges:
               1
     1  C    0.013470
     2  O   -0.552236
     3  C   -0.377533
     4  C    0.030502
     5  O   -0.539385
     6  H    0.113313
     7  H    0.107956
     8  H    0.309639
     9  H    0.175757
    10  H    0.153179
    11  H    0.131152
    12  H    0.105011
    13  H    0.329176
 Sum of Mulliken charges =   0.00000
 Mulliken charges with hydrogens summed into heavy atoms:
               1
     1  C    0.234740
     2  O   -0.242598
     3  C   -0.048597
     4  C    0.266664
     5  O   -0.210209
 Charge=              0.0000 electrons
 Dipole moment (field-independent basis, Debye):
    X=              2.8780    Y=              2.4580    Z=              1.6273  Tot=              4.1198
 N-N= 1.373813313895D+02 E-N=-2.358964082405D+02  KE=-1.798869255642D+01
 Calling FoFJK, ICntrl=      2127 FMM=F ISym2X=0 I1Cent= 0 IOpClX= 0 NMat=1 NMatS=1 NMatT=0.
 ***** Axes restored to original set *****
 -------------------------------------------------------------------
 Center     Atomic                   Forces (Hartrees/Bohr)
 Number     Number              X              Y              Z
 -------------------------------------------------------------------
      1        6          -0.003768108   -0.008855056    0.007965439
      2        8           0.000319671   -0.002121965   -0.001554188
      3        6           0.001896715    0.005441671   -0.002033621
      4        6          -0.009594689   -0.013621855    0.010371292
      5        8           0.001566592   -0.005328512    0.003177499
      6        1          -0.001869895    0.002585138   -0.004530993
      7        1          -0.000350025    0.005068860    0.002720240
      8        1          -0.000137326    0.005797494   -0.000772579
      9        1           0.001711247   -0.001686057   -0.006971965
     10        1          -0.000947034   -0.005677431    0.000172170
     11        1           0.007476749   -0.002419385   -0.002235556
     12        1           0.003641057    0.005688813    0.000754769
     13        1           0.000055048    0.015128284   -0.007062507
 -------------------------------------------------------------------
 Cartesian Forces:  Max     0.015128284 RMS     0.005556066

 GradGradGradGradGradGradGradGradGradGradGradGradGradGradGradGradGradGrad
 Berny optimization.
 FormGI is forming the generalized inverse of G from B-inverse, IUseBI=4.
 Internal  Forces:  Max     0.019113027 RMS     0.004462846
 Search for a local minimum.
 Step number   1 out of a maximum of   66
 All quantities printed in internal units (Hartrees-Bohrs-Radians)
 Mixed Optimization -- RFO/linear search
 Second derivative matrix not updated -- first step.
 ITU=  0
     Eigenvalues ---    0.00310   0.00438   0.01223   0.01479   0.03522
     Eigenvalues ---    0.04700   0.04853   0.05263   0.05833   0.05912
     Eigenvalues ---    0.08401   0.11134   0.11726   0.12250   0.13653
     Eigenvalues ---    0.14030   0.16000   0.16000   0.21957   0.21979
     Eigenvalues ---    0.22027   0.29013   0.29913   0.32985   0.33482
     Eigenvalues ---    0.33627   0.33823   0.34009   0.34118   0.40223
     Eigenvalues ---    0.43050   0.52605   0.53622
 RFO step:  Lambda=-6.01568170D-03 EMin= 3.09803529D-03
 Linear search not attempted -- first point.
 Iteration  1 RMS(Cart)=  0.04099648 RMS(Int)=  0.00210762
 Iteration  2 RMS(Cart)=  0.00222911 RMS(Int)=  0.00044958
 Iteration  3 RMS(Cart)=  0.00000546 RMS(Int)=  0.00044957
 Iteration  4 RMS(Cart)=  0.00000000 RMS(Int)=  0.00044957
 Variable       Old X    -DE/DX   Delta X   Delta X   Delta X     New X
                                 (Linear)    (Quad)   (Total)
    R1        2.71252   0.00398   0.00000   0.00976   0.00976   2.72228
    R2        2.88138   0.00587   0.00000   0.01923   0.01923   2.90061
    R3        2.07965   0.00323   0.00000   0.00944   0.00944   2.08909
    R4        2.08213   0.00352   0.00000   0.01033   0.01033   2.09247
    R5        1.83077   0.00452   0.00000   0.00834   0.00834   1.83911
    R6        2.89975   0.00505   0.00000   0.01704   0.01704   2.91679
    R7        2.07314   0.00736   0.00000   0.02128   0.02128   2.09442
    R8        2.07629   0.00510   0.00000   0.01482   0.01482   2.09112
    R9        2.67608   0.00939   0.00000   0.02151   0.02151   2.69759
   R10        2.07131   0.00599   0.00000   0.01727   0.01727   2.08858
   R11        2.09078   0.00138   0.00000   0.00410   0.00410   2.09488
   R12        1.84024   0.01307   0.00000   0.02457   0.02457   1.86481
    A1        1.89289  -0.00490   0.00000  -0.02886  -0.02877   1.86413
    A2        1.92458  -0.00152   0.00000  -0.03444  -0.03447   1.89010
    A3        1.92431  -0.00092   0.00000  -0.01587  -0.01542   1.90889
    A4        1.92762   0.00281   0.00000   0.01772   0.01663   1.94425
    A5        1.91321   0.00485   0.00000   0.04174   0.04117   1.95437
    A6        1.88142  -0.00020   0.00000   0.02051   0.01920   1.90062
    A7        1.89501   0.00678   0.00000   0.04087   0.04087   1.93588
    A8        1.97637  -0.00101   0.00000  -0.00219  -0.00219   1.97419
    A9        1.91047   0.00051   0.00000   0.00370   0.00370   1.91417
   A10        1.88322   0.00139   0.00000   0.01380   0.01379   1.89701
   A11        1.90085   0.00022   0.00000  -0.00195  -0.00196   1.89890
   A12        1.91450  -0.00027   0.00000  -0.00247  -0.00249   1.91201
   A13        1.87584  -0.00084   0.00000  -0.01138  -0.01142   1.86442
   A14        1.97412   0.00026   0.00000  -0.00628  -0.00602   1.96810
   A15        1.91543   0.00290   0.00000   0.02505   0.02426   1.93969
   A16        1.90300   0.00454   0.00000   0.04094   0.04031   1.94330
   A17        1.85739  -0.00394   0.00000  -0.04448  -0.04444   1.81295
   A18        1.94545  -0.00428   0.00000  -0.03893  -0.03880   1.90664
   A19        1.86482   0.00043   0.00000   0.02447   0.02252   1.88734
   A20        1.84705   0.01911   0.00000   0.11513   0.11513   1.96218
    D1       -2.99913  -0.00085   0.00000  -0.00691  -0.00662  -3.00574
    D2        1.17133  -0.00028   0.00000   0.01062   0.01026   1.18159
    D3       -0.90422   0.00150   0.00000   0.01675   0.01682  -0.88740
    D4        1.04764   0.00091   0.00000   0.03308   0.03299   1.08063
    D5       -1.07683   0.00094   0.00000   0.03440   0.03432  -1.04251
    D6       -3.11313   0.00089   0.00000   0.03825   0.03817  -3.07496
    D7       -3.12469  -0.00235   0.00000  -0.01676  -0.01715   3.14134
    D8        1.03402  -0.00231   0.00000  -0.01545  -0.01582   1.01819
    D9       -1.00228  -0.00237   0.00000  -0.01159  -0.01198  -1.01426
   D10       -1.05418   0.00213   0.00000   0.04509   0.04556  -1.00862
   D11        3.10454   0.00216   0.00000   0.04641   0.04689  -3.13176
   D12        1.06824   0.00211   0.00000   0.05027   0.05074   1.11897
   D13       -1.23369  -0.00041   0.00000  -0.04369  -0.04370  -1.27739
   D14        2.97836   0.00241   0.00000  -0.00058  -0.00011   2.97825
   D15        0.94129  -0.00237   0.00000  -0.06782  -0.06829   0.87300
   D16        0.89616  -0.00028   0.00000  -0.04183  -0.04185   0.85431
   D17       -1.17497   0.00255   0.00000   0.00127   0.00175  -1.17322
   D18        3.07115  -0.00223   0.00000  -0.06596  -0.06644   3.00471
   D19        2.94473  -0.00132   0.00000  -0.05810  -0.05810   2.88663
   D20        0.87360   0.00151   0.00000  -0.01499  -0.01450   0.85909
   D21       -1.16347  -0.00327   0.00000  -0.08223  -0.08269  -1.24616
   D22        0.80703   0.00060   0.00000   0.00780   0.00767   0.81471
   D23        2.91151   0.00172   0.00000   0.00532   0.00505   2.91656
   D24       -1.34468  -0.00229   0.00000  -0.01166  -0.01126  -1.35595
         Item               Value     Threshold  Converged?
 Maximum Force            0.019113     0.000450     NO 
 RMS     Force            0.004463     0.000300     NO 
 Maximum Displacement     0.182370     0.001800     NO 
 RMS     Displacement     0.041524     0.001200     NO 
 Predicted change in Energy=-3.227017D-03
 GradGradGradGradGradGradGradGradGradGradGradGradGradGradGradGradGradGrad

                          Input orientation:                          
 ---------------------------------------------------------------------
 Center     Atomic      Atomic             Coordinates (Angstroms)
 Number     Number       Type             X           Y           Z
 ---------------------------------------------------------------------
      1          6           0        0.967205    2.033238    1.253075
      2          8           0        1.593904    3.192903    0.671992
      3          6           0        1.971392    0.878673    1.132195
      4          6           0        3.283460    1.133534    1.904148
      5          8           0        4.117892    2.102897    1.270249
      6          1           0        0.039524    1.821498    0.690316
      7          1           0        0.706067    2.246598    2.307763
      8          1           0        1.058334    3.990872    0.825489
      9          1           0        2.213136    0.704638    0.064654
     10          1           0        1.494669   -0.046696    1.507597
     11          1           0        3.910529    0.223957    1.935485
     12          1           0        3.082783    1.450430    2.947325
     13          1           0        3.617306    2.906857    0.993010
 ---------------------------------------------------------------------
                    Distance matrix (angstroms):
                    1          2          3          4          5
     1  C    0.000000
     2  O    1.440566   0.000000
     3  C    1.534935   2.389549   0.000000
     4  C    2.568735   2.934929   1.543499   0.000000
     5  O    3.151504   2.813635   2.474923   1.427505   0.000000
     6  H    1.105497   2.072965   2.194605   3.531261   4.128994
     7  H    1.107286   2.087940   2.203231   2.836330   3.568983
     8  H    2.005857   0.973216   3.257840   3.778765   3.622589
     9  H    2.174826   2.635103   1.108319   2.171010   2.652674
    10  H    2.160816   3.347101   1.106571   2.179442   3.399762
    11  H    3.521695   3.972129   2.198677   1.105227   2.003984
    12  H    2.772331   3.229568   2.203813   1.108563   2.075993
    13  H    2.802478   2.068582   2.615710   2.021460   0.986813
                    6          7          8          9         10
     6  H    0.000000
     7  H    1.800313   0.000000
     8  H    2.400505   2.315970   0.000000
     9  H    2.522581   3.111340   3.565356   0.000000
    10  H    2.505103   2.553695   4.117962   1.778421   0.000000
    11  H    4.368897   3.807656   4.853529   2.571421   2.468344
    12  H    3.806994   2.586832   3.880002   3.101981   2.614634
    13  H    3.751020   3.261876   2.784149   2.771878   3.673400
                   11         12         13
    11  H    0.000000
    12  H    1.792546   0.000000
    13  H    2.858705   2.495244   0.000000
 Stoichiometry    C3H8O2
 Framework group  C1[X(C3H8O2)]
 Deg. of freedom    33
 Full point group                 C1      NOp   1
 Largest Abelian subgroup         C1      NOp   1
 Largest concise Abelian subgroup C1      NOp   1
                         Standard orientation:                         
 ---------------------------------------------------------------------
 Center     Atomic      Atomic             Coordinates (Angstroms)
 Number     Number       Type             X           Y           Z
 ---------------------------------------------------------------------
      1          6           0        1.302251    0.473237    0.197210
      2          8           0        1.304127   -0.935251   -0.105095
      3          6           0       -0.011499    1.043845   -0.354600
      4          6           0       -1.263880    0.425929    0.302752
      5          8           0       -1.509338   -0.913137   -0.126690
      6          1           0        2.179498    0.934449   -0.292528
      7          1           0        1.387613    0.613978    1.292194
      8          1           0        2.054294   -1.381915    0.324895
      9          1           0       -0.061731    0.873902   -1.448660
     10          1           0       -0.014735    2.139589   -0.200217
     11          1           0       -2.178936    0.970901    0.007445
     12          1           0       -1.191219    0.447398    1.408723
     13          1           0       -0.694332   -1.469265   -0.109746
 ---------------------------------------------------------------------
 Rotational constants (GHZ):      7.5955967      3.8760279      2.8412827
 Standard basis: VSTO-6G (5D, 7F)
 There are    28 symmetry adapted cartesian basis functions of A   symmetry.
 There are    28 symmetry adapted basis functions of A   symmetry.
    28 basis functions,   168 primitive gaussians,    28 cartesian basis functions
    16 alpha electrons       16 beta electrons
       nuclear repulsion energy       136.7758062451 Hartrees.
 Integral buffers will be    131072 words long.
 Regular integral format.
 Two-electron integral symmetry is turned off.
 Do NDO integrals.
 One-electron integrals computed using PRISM.
 NBasis=    28 RedAO= F EigKep=  0.00D+00  NBF=    28
 NBsUse=    28 1.00D-04 EigRej=  0.00D+00 NBFU=    28
 Initial guess from the checkpoint file:  "1-3-propanediol-opt.chk"
 B after Tr=     0.000000    0.000000    0.000000
         Rot=    0.999969   -0.000007   -0.000613    0.007855 Ang=  -0.90 deg.
 Overlap will be assumed to be unity.
 Keep J ints in memory in canonical form, NReq=891302.
 Requested convergence on RMS density matrix=1.00D-08 within 128 cycles.
 Requested convergence on MAX density matrix=1.00D-06.
 Requested convergence on             energy=1.00D-06.
 No special actions if energy rises.
 SCF Done:  E(RPM6) = -0.160887061065     A.U. after   11 cycles
            NFock= 10  Conv=0.90D-08     -V/T= 0.9910
 Calling FoFJK, ICntrl=      2127 FMM=F ISym2X=0 I1Cent= 0 IOpClX= 0 NMat=1 NMatS=1 NMatT=0.
 ***** Axes restored to original set *****
 -------------------------------------------------------------------
 Center     Atomic                   Forces (Hartrees/Bohr)
 Number     Number              X              Y              Z
 -------------------------------------------------------------------
      1        6           0.000276679   -0.004850222    0.003427502
      2        8           0.003069747    0.000036411   -0.001463631
      3        6           0.002528109    0.006420116    0.003567053
      4        6          -0.008274887    0.001223073   -0.000151875
      5        8           0.003164867   -0.003475412    0.000654766
      6        1           0.000388442   -0.000047251   -0.000838996
      7        1           0.001534382    0.000543379   -0.001134197
      8        1          -0.000644388   -0.000391469    0.000538315
      9        1           0.000398531    0.000865054   -0.000712439
     10        1           0.000388423   -0.000462320   -0.000912500
     11        1           0.001653324    0.000522299   -0.001883525
     12        1           0.000358880    0.001967246   -0.002201211
     13        1          -0.004842110   -0.002350903    0.001110738
 -------------------------------------------------------------------
 Cartesian Forces:  Max     0.008274887 RMS     0.002550179

 GradGradGradGradGradGradGradGradGradGradGradGradGradGradGradGradGradGrad
 Berny optimization.
 Using GEDIIS/GDIIS optimizer.
 FormGI is forming the generalized inverse of G from B-inverse, IUseBI=4.
 GSVD:  received Info=                   1 from GESDD.
 Internal  Forces:  Max     0.010101655 RMS     0.002463435
 Search for a local minimum.
 Step number   2 out of a maximum of   66
 All quantities printed in internal units (Hartrees-Bohrs-Radians)
 Mixed Optimization -- RFO/linear search
 Update second derivatives using D2CorX and points    1    2
 DE= -2.47D-03 DEPred=-3.23D-03 R= 7.67D-01
 TightC=F SS=  1.41D+00  RLast= 2.53D-01 DXNew= 5.0454D-01 7.6040D-01
 Trust test= 7.67D-01 RLast= 2.53D-01 DXMaxT set to 5.05D-01
 ITU=  1  0
 Use linear search instead of GDIIS.
     Eigenvalues ---    0.00315   0.00439   0.01223   0.01478   0.03464
     Eigenvalues ---    0.04569   0.04804   0.04858   0.05436   0.05627
     Eigenvalues ---    0.08397   0.11211   0.11632   0.12250   0.13518
     Eigenvalues ---    0.14016   0.15943   0.18835   0.21720   0.21958
     Eigenvalues ---    0.23140   0.29466   0.32132   0.32988   0.33491
     Eigenvalues ---    0.33667   0.33880   0.34081   0.35810   0.40088
     Eigenvalues ---    0.46479   0.52640   0.53611
 RFO step:  Lambda=-1.32464701D-03 EMin= 3.14630824D-03
 Quartic linear search produced a step of -0.13846.
 Iteration  1 RMS(Cart)=  0.03910857 RMS(Int)=  0.00065629
 Iteration  2 RMS(Cart)=  0.00073739 RMS(Int)=  0.00012579
 Iteration  3 RMS(Cart)=  0.00000023 RMS(Int)=  0.00012579
 Variable       Old X    -DE/DX   Delta X   Delta X   Delta X     New X
                                 (Linear)    (Quad)   (Total)
    R1        2.72228   0.00114  -0.00135   0.00571   0.00436   2.72663
    R2        2.90061  -0.00653  -0.00266  -0.01220  -0.01486   2.88574
    R3        2.08909   0.00011  -0.00131   0.00345   0.00214   2.09123
    R4        2.09247  -0.00134  -0.00143   0.00005  -0.00138   2.09109
    R5        1.83911   0.00012  -0.00115   0.00299   0.00184   1.84095
    R6        2.91679  -0.00833  -0.00236  -0.01884  -0.02120   2.89559
    R7        2.09442   0.00064  -0.00295   0.00874   0.00579   2.10021
    R8        2.09112  -0.00009  -0.00205   0.00474   0.00269   2.09381
    R9        2.69759  -0.00572  -0.00298  -0.00415  -0.00713   2.69047
   R10        2.08858   0.00045  -0.00239   0.00693   0.00454   2.09312
   R11        2.09488  -0.00157  -0.00057  -0.00270  -0.00327   2.09161
   R12        1.86481   0.00023  -0.00340   0.00863   0.00523   1.87003
    A1        1.86413  -0.00346   0.00398  -0.02667  -0.02273   1.84140
    A2        1.89010   0.00101   0.00477  -0.01089  -0.00612   1.88399
    A3        1.90889   0.00068   0.00214  -0.00867  -0.00654   1.90235
    A4        1.94425   0.00054  -0.00230   0.00884   0.00648   1.95073
    A5        1.95437   0.00078  -0.00570   0.01694   0.01114   1.96551
    A6        1.90062   0.00042  -0.00266   0.01827   0.01560   1.91623
    A7        1.93588  -0.00168  -0.00566   0.00468  -0.00098   1.93490
    A8        1.97419  -0.00368   0.00030  -0.01644  -0.01620   1.95799
    A9        1.91417   0.00059  -0.00051  -0.00450  -0.00517   1.90900
   A10        1.89701   0.00170  -0.00191   0.01826   0.01641   1.91341
   A11        1.89890   0.00093   0.00027  -0.00427  -0.00416   1.89474
   A12        1.91201   0.00119   0.00034   0.00909   0.00951   1.92152
   A13        1.86442  -0.00058   0.00158  -0.00132   0.00029   1.86471
   A14        1.96810  -0.00459   0.00083  -0.02642  -0.02563   1.94247
   A15        1.93969   0.00203  -0.00336   0.02290   0.01920   1.95889
   A16        1.94330   0.00117  -0.00558   0.01937   0.01333   1.95663
   A17        1.81295   0.00019   0.00615  -0.02339  -0.01708   1.79587
   A18        1.90664   0.00068   0.00537  -0.02249  -0.01712   1.88952
   A19        1.88734   0.00061  -0.00312   0.02898   0.02550   1.91284
   A20        1.96218  -0.01010  -0.01594  -0.01533  -0.03127   1.93091
    D1       -3.00574   0.00004   0.00092   0.00169   0.00256  -3.00318
    D2        1.18159   0.00078  -0.00142   0.01197   0.01050   1.19209
    D3       -0.88740  -0.00069  -0.00233   0.00124  -0.00100  -0.88840
    D4        1.08063  -0.00041  -0.00457   0.01250   0.00797   1.08861
    D5       -1.04251   0.00049  -0.00475   0.03246   0.02767  -1.01484
    D6       -3.07496  -0.00011  -0.00528   0.02619   0.02088  -3.05408
    D7        3.14134  -0.00098   0.00238  -0.01191  -0.00950   3.13184
    D8        1.01819  -0.00008   0.00219   0.00805   0.01020   1.02839
    D9       -1.01426  -0.00069   0.00166   0.00177   0.00341  -1.01085
   D10       -1.00862   0.00051  -0.00631   0.03030   0.02406  -0.98456
   D11       -3.13176   0.00141  -0.00649   0.05026   0.04375  -3.08801
   D12        1.11897   0.00081  -0.00702   0.04399   0.03696   1.15594
   D13       -1.27739   0.00055   0.00605  -0.00972  -0.00373  -1.28112
   D14        2.97825   0.00190   0.00001   0.02147   0.02162   2.99988
   D15        0.87300  -0.00107   0.00946  -0.04419  -0.03491   0.83809
   D16        0.85431  -0.00050   0.00579  -0.02955  -0.02376   0.83056
   D17       -1.17322   0.00085  -0.00024   0.00164   0.00160  -1.17162
   D18        3.00471  -0.00212   0.00920  -0.06403  -0.05494   2.94977
   D19        2.88663  -0.00000   0.00804  -0.02849  -0.02048   2.86615
   D20        0.85909   0.00135   0.00201   0.00270   0.00488   0.86397
   D21       -1.24616  -0.00162   0.01145  -0.06297  -0.05166  -1.29782
   D22        0.81471  -0.00097  -0.00106  -0.03050  -0.03153   0.78318
   D23        2.91656  -0.00084  -0.00070  -0.03169  -0.03215   2.88441
   D24       -1.35595   0.00026   0.00156  -0.02005  -0.01877  -1.37472
         Item               Value     Threshold  Converged?
 Maximum Force            0.010102     0.000450     NO 
 RMS     Force            0.002463     0.000300     NO 
 Maximum Displacement     0.181344     0.001800     NO 
 RMS     Displacement     0.039075     0.001200     NO 
 Predicted change in Energy=-7.692348D-04
 GradGradGradGradGradGradGradGradGradGradGradGradGradGradGradGradGradGrad

                          Input orientation:                          
 ---------------------------------------------------------------------
 Center     Atomic      Atomic             Coordinates (Angstroms)
 Number     Number       Type             X           Y           Z
 ---------------------------------------------------------------------
      1          6           0        0.977656    2.024931    1.265000
      2          8           0        1.634299    3.169582    0.681501
      3          6           0        1.971768    0.873209    1.133783
      4          6           0        3.264785    1.133292    1.913751
      5          8           0        4.072141    2.110383    1.265302
      6          1           0        0.050763    1.834403    0.691245
      7          1           0        0.726234    2.252099    2.318398
      8          1           0        1.117882    3.981282    0.834801
      9          1           0        2.228194    0.727704    0.062218
     10          1           0        1.500043   -0.067124    1.481496
     11          1           0        3.925049    0.244327    1.939058
     12          1           0        3.066042    1.477655    2.946704
     13          1           0        3.521343    2.877657    0.970043
 ---------------------------------------------------------------------
                    Distance matrix (angstroms):
                    1          2          3          4          5
     1  C    0.000000
     2  O    1.442871   0.000000
     3  C    1.527069   2.364694   0.000000
     4  C    2.539067   2.885031   1.532282   0.000000
     5  O    3.095665   2.721361   2.441201   1.423733   0.000000
     6  H    1.106629   2.071324   2.193170   3.509419   4.071510
     7  H    1.106556   2.084656   2.203634   2.803517   3.510582
     8  H    2.007994   0.974188   3.237071   3.726174   3.523243
     9  H    2.166409   2.588241   1.111385   2.160369   2.599875
    10  H    2.167130   3.336807   1.107996   2.177650   3.376976
    11  H    3.508850   3.922512   2.204374   1.107631   1.989408
    12  H    2.736603   3.169172   2.202152   1.106832   2.059051
    13  H    2.698978   1.931169   2.538859   1.999804   0.989579
                    6          7          8          9         10
     6  H    0.000000
     7  H    1.810624   0.000000
     8  H    2.401758   2.311823   0.000000
     9  H    2.522235   3.109664   3.523556   0.000000
    10  H    2.518078   2.584179   4.117505   1.782219   0.000000
    11  H    4.369836   3.795716   4.802540   2.575945   2.487371
    12  H    3.782363   2.543468   3.810985   3.095912   2.643015
    13  H    3.634699   3.165757   2.648188   2.668085   3.608182
                   11         12         13
    11  H    0.000000
    12  H    1.809514   0.000000
    13  H    2.834853   2.464648   0.000000
 Stoichiometry    C3H8O2
 Framework group  C1[X(C3H8O2)]
 Deg. of freedom    33
 Full point group                 C1      NOp   1
 Largest Abelian subgroup         C1      NOp   1
 Largest concise Abelian subgroup C1      NOp   1
                         Standard orientation:                         
 ---------------------------------------------------------------------
 Center     Atomic      Atomic             Coordinates (Angstroms)
 Number     Number       Type             X           Y           Z
 ---------------------------------------------------------------------
      1          6           0        1.284287    0.482446    0.203879
      2          8           0        1.264257   -0.926315   -0.107355
      3          6           0       -0.020351    1.043164   -0.357775
      4          6           0       -1.251852    0.422218    0.309846
      5          8           0       -1.457013   -0.917051   -0.127510
      6          1           0        2.168746    0.928139   -0.289799
      7          1           0        1.364261    0.607985    1.300378
      8          1           0        2.005162   -1.387752    0.325286
      9          1           0       -0.069427    0.839879   -1.449308
     10          1           0       -0.035517    2.144270   -0.235339
     11          1           0       -2.190843    0.927000    0.009285
     12          1           0       -1.169564    0.417873    1.413607
     13          1           0       -0.603272   -1.417432   -0.130887
 ---------------------------------------------------------------------
 Rotational constants (GHZ):      7.6213878      4.0396351      2.9381088
 Standard basis: VSTO-6G (5D, 7F)
 There are    28 symmetry adapted cartesian basis functions of A   symmetry.
 There are    28 symmetry adapted basis functions of A   symmetry.
    28 basis functions,   168 primitive gaussians,    28 cartesian basis functions
    16 alpha electrons       16 beta electrons
       nuclear repulsion energy       137.5527409527 Hartrees.
 Integral buffers will be    131072 words long.
 Regular integral format.
 Two-electron integral symmetry is turned off.
 Do NDO integrals.
 One-electron integrals computed using PRISM.
 NBasis=    28 RedAO= F EigKep=  0.00D+00  NBF=    28
 NBsUse=    28 1.00D-04 EigRej=  0.00D+00 NBFU=    28
 Initial guess from the checkpoint file:  "1-3-propanediol-opt.chk"
 B after Tr=    -0.000000   -0.000000   -0.000000
         Rot=    0.999996   -0.000136    0.000104   -0.002975 Ang=  -0.34 deg.
 Overlap will be assumed to be unity.
 Keep J ints in memory in canonical form, NReq=891302.
 Requested convergence on RMS density matrix=1.00D-08 within 128 cycles.
 Requested convergence on MAX density matrix=1.00D-06.
 Requested convergence on             energy=1.00D-06.
 No special actions if energy rises.
 SCF Done:  E(RPM6) = -0.161510324911     A.U. after   11 cycles
            NFock= 10  Conv=0.62D-08     -V/T= 0.9910
 Calling FoFJK, ICntrl=      2127 FMM=F ISym2X=0 I1Cent= 0 IOpClX= 0 NMat=1 NMatS=1 NMatT=0.
 ***** Axes restored to original set *****
 -------------------------------------------------------------------
 Center     Atomic                   Forces (Hartrees/Bohr)
 Number     Number              X              Y              Z
 -------------------------------------------------------------------
      1        6          -0.002345400   -0.001564672    0.001595279
      2        8           0.000277121    0.002309353   -0.001988041
      3        6          -0.000817228   -0.000986874    0.001883300
      4        6          -0.000989660   -0.001271937    0.002067982
      5        8           0.005001320    0.001194027   -0.001180549
      6        1           0.000343618   -0.000107756    0.000438574
      7        1           0.000582254   -0.000247345   -0.001062261
      8        1          -0.000059791   -0.000269130    0.000392234
      9        1          -0.000072681   -0.000017662   -0.000329457
     10        1           0.000170032    0.000425284   -0.001183952
     11        1          -0.000889402   -0.000215390    0.000131214
     12        1          -0.000238263   -0.000497644   -0.000403517
     13        1          -0.000961920    0.001249747   -0.000360805
 -------------------------------------------------------------------
 Cartesian Forces:  Max     0.005001320 RMS     0.001315554

 GradGradGradGradGradGradGradGradGradGradGradGradGradGradGradGradGradGrad
 Berny optimization.
 Using GEDIIS/GDIIS optimizer.
 FormGI is forming the generalized inverse of G from B-inverse, IUseBI=4.
 GSVD:  received Info=                   1 from GESDD.
 Internal  Forces:  Max     0.004669775 RMS     0.001121253
 Search for a local minimum.
 Step number   3 out of a maximum of   66
 All quantities printed in internal units (Hartrees-Bohrs-Radians)
 Mixed Optimization -- RFO/linear search
 Update second derivatives using D2CorX and points    1    2    3
 DE= -6.23D-04 DEPred=-7.69D-04 R= 8.10D-01
 TightC=F SS=  1.41D+00  RLast= 1.49D-01 DXNew= 8.4853D-01 4.4663D-01
 Trust test= 8.10D-01 RLast= 1.49D-01 DXMaxT set to 5.05D-01
 ITU=  1  1  0
 Use linear search instead of GDIIS.
     Eigenvalues ---    0.00289   0.00408   0.01219   0.01483   0.03634
     Eigenvalues ---    0.04589   0.04919   0.05361   0.05465   0.05734
     Eigenvalues ---    0.08273   0.11201   0.11907   0.12140   0.13433
     Eigenvalues ---    0.13896   0.16013   0.19834   0.21693   0.21948
     Eigenvalues ---    0.24986   0.29575   0.31780   0.32956   0.33546
     Eigenvalues ---    0.33676   0.33968   0.34129   0.35300   0.40140
     Eigenvalues ---    0.50115   0.53603   0.55058
 RFO step:  Lambda=-5.09602059D-04 EMin= 2.89207536D-03
 Quartic linear search produced a step of -0.15435.
 Iteration  1 RMS(Cart)=  0.04906610 RMS(Int)=  0.00089438
 Iteration  2 RMS(Cart)=  0.00131058 RMS(Int)=  0.00002545
 Iteration  3 RMS(Cart)=  0.00000088 RMS(Int)=  0.00002545
 Variable       Old X    -DE/DX   Delta X   Delta X   Delta X     New X
                                 (Linear)    (Quad)   (Total)
    R1        2.72663   0.00236  -0.00067   0.00705   0.00637   2.73301
    R2        2.88574   0.00082   0.00229  -0.00476  -0.00246   2.88328
    R3        2.09123  -0.00050  -0.00033  -0.00009  -0.00042   2.09080
    R4        2.09109  -0.00119   0.00021  -0.00351  -0.00330   2.08779
    R5        1.84095  -0.00013  -0.00028   0.00077   0.00048   1.84143
    R6        2.89559   0.00183   0.00327  -0.00491  -0.00164   2.89395
    R7        2.10021   0.00030  -0.00089   0.00375   0.00285   2.10307
    R8        2.09381  -0.00080  -0.00042  -0.00052  -0.00093   2.09288
    R9        2.69047   0.00467   0.00110   0.00571   0.00681   2.69728
   R10        2.09312  -0.00035  -0.00070   0.00151   0.00081   2.09393
   R11        2.09161  -0.00049   0.00051  -0.00277  -0.00226   2.08935
   R12        1.87003   0.00161  -0.00081   0.00529   0.00448   1.87451
    A1        1.84140   0.00183   0.00351  -0.00395  -0.00044   1.84096
    A2        1.88399  -0.00080   0.00094  -0.00731  -0.00637   1.87762
    A3        1.90235  -0.00026   0.00101  -0.00154  -0.00054   1.90181
    A4        1.95073  -0.00036  -0.00100   0.00107   0.00010   1.95083
    A5        1.96551  -0.00067  -0.00172   0.00328   0.00159   1.96710
    A6        1.91623   0.00028  -0.00241   0.00733   0.00494   1.92117
    A7        1.93490  -0.00069   0.00015  -0.00364  -0.00349   1.93141
    A8        1.95799   0.00255   0.00250   0.00357   0.00608   1.96406
    A9        1.90900  -0.00061   0.00080  -0.00158  -0.00077   1.90822
   A10        1.91341  -0.00104  -0.00253   0.00143  -0.00112   1.91229
   A11        1.89474  -0.00041   0.00064   0.00113   0.00179   1.89653
   A12        1.92152  -0.00072  -0.00147   0.00085  -0.00063   1.92089
   A13        1.86471   0.00013  -0.00004  -0.00590  -0.00595   1.85876
   A14        1.94247   0.00310   0.00396   0.00084   0.00479   1.94726
   A15        1.95889  -0.00137  -0.00296  -0.00033  -0.00322   1.95567
   A16        1.95663  -0.00086  -0.00206   0.00421   0.00223   1.95886
   A17        1.79587  -0.00076   0.00264  -0.01141  -0.00880   1.78707
   A18        1.88952  -0.00049   0.00264  -0.00401  -0.00138   1.88814
   A19        1.91284   0.00044  -0.00394   0.00946   0.00562   1.91846
   A20        1.93091  -0.00018   0.00483  -0.01505  -0.01022   1.92069
    D1       -3.00318   0.00017  -0.00040   0.01053   0.01014  -2.99304
    D2        1.19209   0.00001  -0.00162   0.01506   0.01345   1.20553
    D3       -0.88840   0.00028   0.00015   0.01135   0.01149  -0.87691
    D4        1.08861   0.00073  -0.00123   0.07450   0.07326   1.16187
    D5       -1.01484   0.00001  -0.00427   0.07184   0.06757  -0.94727
    D6       -3.05408   0.00081  -0.00322   0.07905   0.07583  -2.97825
    D7        3.13184   0.00068   0.00147   0.06399   0.06546  -3.08589
    D8        1.02839  -0.00004  -0.00157   0.06133   0.05977   1.08816
    D9       -1.01085   0.00075  -0.00053   0.06854   0.06803  -0.94282
   D10       -0.98456   0.00027  -0.00371   0.07706   0.07333  -0.91123
   D11       -3.08801  -0.00046  -0.00675   0.07440   0.06764  -3.02037
   D12        1.15594   0.00034  -0.00571   0.08161   0.07589   1.23183
   D13       -1.28112  -0.00076   0.00058  -0.08142  -0.08084  -1.36197
   D14        2.99988  -0.00092  -0.00334  -0.06755  -0.07092   2.92896
   D15        0.83809   0.00021   0.00539  -0.08302  -0.07760   0.76049
   D16        0.83056  -0.00019   0.00367  -0.08037  -0.07670   0.75386
   D17       -1.17162  -0.00035  -0.00025  -0.06649  -0.06677  -1.23840
   D18        2.94977   0.00078   0.00848  -0.08197  -0.07345   2.87632
   D19        2.86615  -0.00067   0.00316  -0.08633  -0.08317   2.78298
   D20        0.86397  -0.00083  -0.00075  -0.07246  -0.07325   0.79072
   D21       -1.29782   0.00030   0.00797  -0.08793  -0.07993  -1.37774
   D22        0.78318   0.00044   0.00487  -0.00923  -0.00436   0.77882
   D23        2.88441  -0.00010   0.00496  -0.01589  -0.01097   2.87345
   D24       -1.37472  -0.00017   0.00290  -0.01231  -0.00938  -1.38410
         Item               Value     Threshold  Converged?
 Maximum Force            0.004670     0.000450     NO 
 RMS     Force            0.001121     0.000300     NO 
 Maximum Displacement     0.144693     0.001800     NO 
 RMS     Displacement     0.049299     0.001200     NO 
 Predicted change in Energy=-2.701727D-04
 GradGradGradGradGradGradGradGradGradGradGradGradGradGradGradGradGradGrad

                          Input orientation:                          
 ---------------------------------------------------------------------
 Center     Atomic      Atomic             Coordinates (Angstroms)
 Number     Number       Type             X           Y           Z
 ---------------------------------------------------------------------
      1          6           0        0.969119    2.023928    1.278272
      2          8           0        1.580101    3.177281    0.655295
      3          6           0        1.980610    0.892511    1.120958
      4          6           0        3.260375    1.133178    1.926880
      5          8           0        4.122632    2.066119    1.276168
      6          1           0        0.027875    1.811175    0.737041
      7          1           0        0.753503    2.259214    2.335985
      8          1           0        1.055815    3.980056    0.829123
      9          1           0        2.250928    0.786705    0.046589
     10          1           0        1.515376   -0.065735    1.424082
     11          1           0        3.892723    0.225093    1.984428
     12          1           0        3.049232    1.510286    2.944543
     13          1           0        3.597912    2.839590    0.943937
 ---------------------------------------------------------------------
                    Distance matrix (angstroms):
                    1          2          3          4          5
     1  C    0.000000
     2  O    1.446244   0.000000
     3  C    1.525767   2.365887   0.000000
     4  C    2.542436   2.935747   1.531415   0.000000
     5  O    3.153796   2.843348   2.447387   1.427338   0.000000
     6  H    1.106406   2.069380   2.191919   3.510620   4.137957
     7  H    1.104811   2.085864   2.202262   2.778440   3.537164
     8  H    2.008903   0.974443   3.236255   3.764290   3.642578
     9  H    2.165825   2.556440   1.112895   2.162065   2.579155
    10  H    2.164797   3.333523   1.107503   2.176056   3.371122
    11  H    3.504558   3.978723   2.201637   1.108059   1.985917
    12  H    2.714251   3.190278   2.202059   1.105635   2.060246
    13  H    2.772658   2.066134   2.537344   1.997987   0.991951
                    6          7          8          9         10
     6  H    0.000000
     7  H    1.812152   0.000000
     8  H    2.401913   2.307233   0.000000
     9  H    2.543271   3.106750   3.498306   0.000000
    10  H    2.491480   2.611016   4.115046   1.779095   0.000000
    11  H    4.359895   3.757119   4.845878   2.601177   2.459746
    12  H    3.753957   2.490303   3.814247   3.091763   2.673642
    13  H    3.720968   3.219517   2.788566   2.614179   3.606717
                   11         12         13
    11  H    0.000000
    12  H    1.812462   0.000000
    13  H    2.829334   2.463843   0.000000
 Stoichiometry    C3H8O2
 Framework group  C1[X(C3H8O2)]
 Deg. of freedom    33
 Full point group                 C1      NOp   1
 Largest Abelian subgroup         C1      NOp   1
 Largest concise Abelian subgroup C1      NOp   1
                         Standard orientation:                         
 ---------------------------------------------------------------------
 Center     Atomic      Atomic             Coordinates (Angstroms)
 Number     Number       Type             X           Y           Z
 ---------------------------------------------------------------------
      1          6           0        1.290221    0.485448    0.212627
      2          8           0        1.319519   -0.923907   -0.110614
      3          6           0       -0.015208    1.011330   -0.376667
      4          6           0       -1.249373    0.430487    0.319530
      5          8           0       -1.523699   -0.898941   -0.121671
      6          1           0        2.172932    0.955308   -0.260856
      7          1           0        1.340781    0.603285    1.309972
      8          1           0        2.058478   -1.365988    0.345503
      9          1           0       -0.061742    0.752898   -1.458140
     10          1           0       -0.030386    2.117098   -0.316582
     11          1           0       -2.176486    0.969565    0.040872
     12          1           0       -1.139838    0.413224    1.419590
     13          1           0       -0.684140   -1.426193   -0.155022
 ---------------------------------------------------------------------
 Rotational constants (GHZ):      7.7412969      3.8519759      2.8666764
 Standard basis: VSTO-6G (5D, 7F)
 There are    28 symmetry adapted cartesian basis functions of A   symmetry.
 There are    28 symmetry adapted basis functions of A   symmetry.
    28 basis functions,   168 primitive gaussians,    28 cartesian basis functions
    16 alpha electrons       16 beta electrons
       nuclear repulsion energy       137.0444465708 Hartrees.
 Integral buffers will be    131072 words long.
 Regular integral format.
 Two-electron integral symmetry is turned off.
 Do NDO integrals.
 One-electron integrals computed using PRISM.
 NBasis=    28 RedAO= F EigKep=  0.00D+00  NBF=    28
 NBsUse=    28 1.00D-04 EigRej=  0.00D+00 NBFU=    28
 Initial guess from the checkpoint file:  "1-3-propanediol-opt.chk"
 B after Tr=     0.000000    0.000000   -0.000000
         Rot=    0.999987    0.004625   -0.000616    0.002024 Ang=   0.58 deg.
 Overlap will be assumed to be unity.
 Keep J ints in memory in canonical form, NReq=891302.
 Requested convergence on RMS density matrix=1.00D-08 within 128 cycles.
 Requested convergence on MAX density matrix=1.00D-06.
 Requested convergence on             energy=1.00D-06.
 No special actions if energy rises.
 SCF Done:  E(RPM6) = -0.161738374745     A.U. after   11 cycles
            NFock= 10  Conv=0.63D-08     -V/T= 0.9910
 Calling FoFJK, ICntrl=      2127 FMM=F ISym2X=0 I1Cent= 0 IOpClX= 0 NMat=1 NMatS=1 NMatT=0.
 ***** Axes restored to original set *****
 -------------------------------------------------------------------
 Center     Atomic                   Forces (Hartrees/Bohr)
 Number     Number              X              Y              Z
 -------------------------------------------------------------------
      1        6          -0.001124790    0.000766493   -0.000341809
      2        8           0.000953785    0.000591319   -0.000636035
      3        6          -0.000559960   -0.001052348    0.001231156
      4        6           0.000671816   -0.001330047    0.000808019
      5        8           0.001505520    0.002384401   -0.001493775
      6        1           0.000097541   -0.000343565    0.000691729
      7        1           0.000153699   -0.000173774   -0.000529358
      8        1          -0.000013069   -0.000425088    0.000292150
      9        1          -0.000040969    0.000170661    0.000066798
     10        1           0.000074793    0.000133335   -0.000831021
     11        1          -0.001076823   -0.000332160    0.000720050
     12        1          -0.000127183   -0.000502787   -0.000040870
     13        1          -0.000514360    0.000113559    0.000062964
 -------------------------------------------------------------------
 Cartesian Forces:  Max     0.002384401 RMS     0.000783200

 GradGradGradGradGradGradGradGradGradGradGradGradGradGradGradGradGradGrad
 Berny optimization.
 Using GEDIIS/GDIIS optimizer.
 FormGI is forming the generalized inverse of G from B-inverse, IUseBI=4.
 GSVD:  received Info=                   1 from GESDD.
 Internal  Forces:  Max     0.002883781 RMS     0.000584180
 Search for a local minimum.
 Step number   4 out of a maximum of   66
 All quantities printed in internal units (Hartrees-Bohrs-Radians)
 Mixed Optimization -- En-DIIS/RFO-DIIS
 Update second derivatives using D2CorX and points    2    3    4
 DE= -2.28D-04 DEPred=-2.70D-04 R= 8.44D-01
 TightC=F SS=  1.41D+00  RLast= 3.12D-01 DXNew= 8.4853D-01 9.3469D-01
 Trust test= 8.44D-01 RLast= 3.12D-01 DXMaxT set to 8.49D-01
 ITU=  1  1  1  0
 Use linear search instead of GDIIS.
     Eigenvalues ---    0.00273   0.00393   0.01209   0.01483   0.03673
     Eigenvalues ---    0.04685   0.05248   0.05391   0.05647   0.05787
     Eigenvalues ---    0.08334   0.11227   0.12030   0.12198   0.13430
     Eigenvalues ---    0.13957   0.16021   0.18692   0.21700   0.21976
     Eigenvalues ---    0.27855   0.29639   0.30834   0.32983   0.33541
     Eigenvalues ---    0.33628   0.33861   0.34100   0.34535   0.40250
     Eigenvalues ---    0.50451   0.53597   0.54765
 RFO step:  Lambda=-1.45997367D-04 EMin= 2.73238964D-03
 Quartic linear search produced a step of -0.04260.
 Iteration  1 RMS(Cart)=  0.02222226 RMS(Int)=  0.00026804
 Iteration  2 RMS(Cart)=  0.00028043 RMS(Int)=  0.00000853
 Iteration  3 RMS(Cart)=  0.00000005 RMS(Int)=  0.00000853
 Variable       Old X    -DE/DX   Delta X   Delta X   Delta X     New X
                                 (Linear)    (Quad)   (Total)
    R1        2.73301   0.00068  -0.00027   0.00395   0.00368   2.73668
    R2        2.88328   0.00021   0.00010  -0.00075  -0.00065   2.88263
    R3        2.09080  -0.00036   0.00002  -0.00094  -0.00093   2.08988
    R4        2.08779  -0.00057   0.00014  -0.00267  -0.00253   2.08527
    R5        1.84143  -0.00029  -0.00002  -0.00019  -0.00022   1.84122
    R6        2.89395   0.00047   0.00007   0.00002   0.00009   2.89404
    R7        2.10307  -0.00009  -0.00012   0.00114   0.00102   2.10408
    R8        2.09288  -0.00037   0.00004  -0.00109  -0.00105   2.09183
    R9        2.69728   0.00288  -0.00029   0.00828   0.00799   2.70526
   R10        2.09393  -0.00030  -0.00003  -0.00021  -0.00024   2.09368
   R11        2.08935  -0.00018   0.00010  -0.00139  -0.00130   2.08805
   R12        1.87451   0.00034  -0.00019   0.00251   0.00232   1.87683
    A1        1.84096  -0.00080   0.00002  -0.00461  -0.00460   1.83636
    A2        1.87762   0.00062   0.00027   0.00301   0.00328   1.88090
    A3        1.90181   0.00028   0.00002  -0.00042  -0.00041   1.90141
    A4        1.95083   0.00009  -0.00000   0.00124   0.00124   1.95207
    A5        1.96710  -0.00001  -0.00007  -0.00043  -0.00050   1.96660
    A6        1.92117  -0.00017  -0.00021   0.00112   0.00091   1.92208
    A7        1.93141  -0.00072   0.00015  -0.00506  -0.00491   1.92650
    A8        1.96406  -0.00056  -0.00026  -0.00075  -0.00104   1.96303
    A9        1.90822  -0.00017   0.00003  -0.00637  -0.00634   1.90188
   A10        1.91229   0.00040   0.00005   0.00672   0.00674   1.91904
   A11        1.89653   0.00015  -0.00008  -0.00247  -0.00257   1.89396
   A12        1.92089   0.00042   0.00003   0.00701   0.00702   1.92790
   A13        1.85876  -0.00024   0.00025  -0.00456  -0.00428   1.85448
   A14        1.94726  -0.00118  -0.00020  -0.00356  -0.00377   1.94349
   A15        1.95567  -0.00031   0.00014  -0.00131  -0.00117   1.95450
   A16        1.95886   0.00006  -0.00010  -0.00193  -0.00204   1.95683
   A17        1.78707   0.00143   0.00037   0.01012   0.01050   1.79757
   A18        1.88814   0.00040   0.00006  -0.00153  -0.00149   1.88665
   A19        1.91846  -0.00027  -0.00024  -0.00085  -0.00109   1.91737
   A20        1.92069  -0.00076   0.00044  -0.00838  -0.00795   1.91274
    D1       -2.99304   0.00020  -0.00043   0.01254   0.01210  -2.98093
    D2        1.20553   0.00020  -0.00057   0.01201   0.01144   1.21697
    D3       -0.87691  -0.00011  -0.00049   0.00918   0.00869  -0.86822
    D4        1.16187  -0.00031  -0.00312   0.03381   0.03069   1.19256
    D5       -0.94727  -0.00003  -0.00288   0.04184   0.03896  -0.90831
    D6       -2.97825   0.00013  -0.00323   0.04715   0.04393  -2.93432
    D7       -3.08589   0.00001  -0.00279   0.03533   0.03254  -3.05335
    D8        1.08816   0.00029  -0.00255   0.04336   0.04080   1.12897
    D9       -0.94282   0.00045  -0.00290   0.04867   0.04578  -0.89704
   D10       -0.91123  -0.00014  -0.00312   0.03746   0.03434  -0.87690
   D11       -3.02037   0.00014  -0.00288   0.04550   0.04260  -2.97776
   D12        1.23183   0.00030  -0.00323   0.05080   0.04758   1.27941
   D13       -1.36197   0.00078   0.00344   0.01654   0.01999  -1.34198
   D14        2.92896  -0.00006   0.00302   0.00698   0.01001   2.93897
   D15        0.76049   0.00049   0.00331   0.01060   0.01391   0.77440
   D16        0.75386   0.00032   0.00327   0.00632   0.00959   0.76345
   D17       -1.23840  -0.00052   0.00284  -0.00324  -0.00039  -1.23879
   D18        2.87632   0.00003   0.00313   0.00038   0.00351   2.87983
   D19        2.78298   0.00035   0.00354   0.00333   0.00686   2.78984
   D20        0.79072  -0.00049   0.00312  -0.00623  -0.00312   0.78761
   D21       -1.37774   0.00006   0.00340  -0.00261   0.00079  -1.37696
   D22        0.77882  -0.00009   0.00019  -0.00561  -0.00542   0.77340
   D23        2.87345  -0.00019   0.00047  -0.00296  -0.00250   2.87095
   D24       -1.38410   0.00034   0.00040   0.00025   0.00065  -1.38345
         Item               Value     Threshold  Converged?
 Maximum Force            0.002884     0.000450     NO 
 RMS     Force            0.000584     0.000300     NO 
 Maximum Displacement     0.062074     0.001800     NO 
 RMS     Displacement     0.022235     0.001200     NO 
 Predicted change in Energy=-7.601582D-05
 GradGradGradGradGradGradGradGradGradGradGradGradGradGradGradGradGradGrad

                          Input orientation:                          
 ---------------------------------------------------------------------
 Center     Atomic      Atomic             Coordinates (Angstroms)
 Number     Number       Type             X           Y           Z
 ---------------------------------------------------------------------
      1          6           0        0.973946    2.026554    1.281696
      2          8           0        1.577622    3.165948    0.622447
      3          6           0        1.980649    0.891720    1.121638
      4          6           0        3.260623    1.126408    1.929082
      5          8           0        4.113461    2.081128    1.288340
      6          1           0        0.019856    1.805804    0.767855
      7          1           0        0.785740    2.282424    2.338467
      8          1           0        1.064011    3.973934    0.803223
      9          1           0        2.253144    0.798627    0.046086
     10          1           0        1.513831   -0.070448    1.407383
     11          1           0        3.893908    0.218509    1.975752
     12          1           0        3.047336    1.488184    2.951108
     13          1           0        3.572072    2.850610    0.970222
 ---------------------------------------------------------------------
                    Distance matrix (angstroms):
                    1          2          3          4          5
     1  C    0.000000
     2  O    1.448189   0.000000
     3  C    1.525423   2.362992   0.000000
     4  C    2.541311   2.949493   1.531462   0.000000
     5  O    3.139996   2.837380   2.447727   1.431564   0.000000
     6  H    1.105916   2.073106   2.192127   3.508931   4.135735
     7  H    1.103475   2.086245   2.200576   2.762067   3.495285
     8  H    2.007321   0.974329   3.231354   3.768430   3.621767
     9  H    2.161222   2.528384   1.113433   2.160586   2.578523
    10  H    2.169029   3.330833   1.106949   2.180806   3.376614
    11  H    3.503844   3.985475   2.200747   1.107930   1.997521
    12  H    2.715828   3.224532   2.200124   1.104948   2.062281
    13  H    2.743418   2.048955   2.528399   1.997320   0.993178
                    6          7          8          9         10
     6  H    0.000000
     7  H    1.811233   0.000000
     8  H    2.406719   2.301221   0.000000
     9  H    2.554003   3.099990   3.474171   0.000000
    10  H    2.482192   2.633067   4.113924   1.776233   0.000000
    11  H    4.357385   3.748602   4.846273   2.598511   2.464002
    12  H    3.746079   2.474057   3.837438   3.089560   2.676576
    13  H    3.708208   3.155721   2.753200   2.608493   3.600006
                   11         12         13
    11  H    0.000000
    12  H    1.811099   0.000000
    13  H    2.835952   2.460784   0.000000
 Stoichiometry    C3H8O2
 Framework group  C1[X(C3H8O2)]
 Deg. of freedom    33
 Full point group                 C1      NOp   1
 Largest Abelian subgroup         C1      NOp   1
 Largest concise Abelian subgroup C1      NOp   1
                         Standard orientation:                         
 ---------------------------------------------------------------------
 Center     Atomic      Atomic             Coordinates (Angstroms)
 Number     Number       Type             X           Y           Z
 ---------------------------------------------------------------------
      1          6           0        1.279506    0.489911    0.228768
      2          8           0        1.329115   -0.913579   -0.124792
      3          6           0       -0.019235    1.010227   -0.379063
      4          6           0       -1.259917    0.431628    0.307456
      5          8           0       -1.508239   -0.914167   -0.112717
      6          1           0        2.166418    0.980849   -0.213295
      7          1           0        1.302188    0.583408    1.328040
      8          1           0        2.056744   -1.357003    0.347699
      9          1           0       -0.050478    0.733882   -1.457205
     10          1           0       -0.037028    2.116416   -0.342117
     11          1           0       -2.185370    0.961291    0.006618
     12          1           0       -1.166148    0.435703    1.408410
     13          1           0       -0.655454   -1.423176   -0.121040
 ---------------------------------------------------------------------
 Rotational constants (GHZ):      7.7213548      3.8636351      2.8713795
 Standard basis: VSTO-6G (5D, 7F)
 There are    28 symmetry adapted cartesian basis functions of A   symmetry.
 There are    28 symmetry adapted basis functions of A   symmetry.
    28 basis functions,   168 primitive gaussians,    28 cartesian basis functions
    16 alpha electrons       16 beta electrons
       nuclear repulsion energy       137.0738503825 Hartrees.
 Integral buffers will be    131072 words long.
 Regular integral format.
 Two-electron integral symmetry is turned off.
 Do NDO integrals.
 One-electron integrals computed using PRISM.
 NBasis=    28 RedAO= F EigKep=  0.00D+00  NBF=    28
 NBsUse=    28 1.00D-04 EigRej=  0.00D+00 NBFU=    28
 Initial guess from the checkpoint file:  "1-3-propanediol-opt.chk"
 B after Tr=     0.000000   -0.000000    0.000000
         Rot=    0.999991    0.001087    0.001997   -0.003507 Ang=   0.48 deg.
 Overlap will be assumed to be unity.
 Keep J ints in memory in canonical form, NReq=891302.
 Requested convergence on RMS density matrix=1.00D-08 within 128 cycles.
 Requested convergence on MAX density matrix=1.00D-06.
 Requested convergence on             energy=1.00D-06.
 No special actions if energy rises.
 SCF Done:  E(RPM6) = -0.161823919601     A.U. after   11 cycles
            NFock= 10  Conv=0.34D-08     -V/T= 0.9910
 Calling FoFJK, ICntrl=      2127 FMM=F ISym2X=0 I1Cent= 0 IOpClX= 0 NMat=1 NMatS=1 NMatT=0.
 ***** Axes restored to original set *****
 -------------------------------------------------------------------
 Center     Atomic                   Forces (Hartrees/Bohr)
 Number     Number              X              Y              Z
 -------------------------------------------------------------------
      1        6          -0.000360751    0.000707285   -0.000530903
      2        8          -0.000057202   -0.000165760    0.000005665
      3        6          -0.000154016   -0.001027457    0.000130067
      4        6           0.001035922   -0.000282763   -0.000048964
      5        8          -0.000246063    0.000060004    0.000180129
      6        1           0.000153140   -0.000052859    0.000439081
      7        1          -0.000183984    0.000036478    0.000027135
      8        1           0.000026748    0.000085056    0.000078473
      9        1           0.000086267   -0.000054627   -0.000178093
     10        1           0.000127055    0.000390384   -0.000264199
     11        1          -0.000577796    0.000543569    0.000221009
     12        1           0.000123706   -0.000377160    0.000266006
     13        1           0.000026974    0.000137850   -0.000325405
 -------------------------------------------------------------------
 Cartesian Forces:  Max     0.001035922 RMS     0.000353483

 GradGradGradGradGradGradGradGradGradGradGradGradGradGradGradGradGradGrad
 Berny optimization.
 Using GEDIIS/GDIIS optimizer.
 FormGI is forming the generalized inverse of G from B-inverse, IUseBI=4.
 GSVD:  received Info=                   1 from GESDD.
 Internal  Forces:  Max     0.000766385 RMS     0.000212744
 Search for a local minimum.
 Step number   5 out of a maximum of   66
 All quantities printed in internal units (Hartrees-Bohrs-Radians)
 Mixed Optimization -- En-DIIS/RFO-DIIS
 Swapping is turned off.
 Update second derivatives using D2CorX and points    2    3    4    5
 DE= -8.55D-05 DEPred=-7.60D-05 R= 1.13D+00
 TightC=F SS=  1.41D+00  RLast= 1.27D-01 DXNew= 1.4270D+00 3.8209D-01
 Trust test= 1.13D+00 RLast= 1.27D-01 DXMaxT set to 8.49D-01
 ITU=  1  1  1  1  0
     Eigenvalues ---    0.00251   0.00380   0.01193   0.01511   0.03658
     Eigenvalues ---    0.04745   0.05145   0.05328   0.05578   0.05835
     Eigenvalues ---    0.08323   0.11216   0.12009   0.12251   0.13414
     Eigenvalues ---    0.13966   0.16007   0.19311   0.21796   0.21957
     Eigenvalues ---    0.26582   0.29521   0.32200   0.32984   0.33355
     Eigenvalues ---    0.33616   0.33745   0.34066   0.36739   0.40258
     Eigenvalues ---    0.50526   0.53665   0.53902
 En-DIIS/RFO-DIIS IScMMF=        0 using points:     5    4
 RFO step:  Lambda=-5.77902644D-06.
 DidBck=F Rises=F RFO-DIIS coefs:    1.17678   -0.17678
 Iteration  1 RMS(Cart)=  0.00854324 RMS(Int)=  0.00004612
 Iteration  2 RMS(Cart)=  0.00004571 RMS(Int)=  0.00000186
 Iteration  3 RMS(Cart)=  0.00000000 RMS(Int)=  0.00000186
 Variable       Old X    -DE/DX   Delta X   Delta X   Delta X     New X
                                 (Linear)    (Quad)   (Total)
    R1        2.73668  -0.00011   0.00065  -0.00027   0.00038   2.73706
    R2        2.88263   0.00073  -0.00011   0.00218   0.00206   2.88469
    R3        2.08988  -0.00033  -0.00016  -0.00104  -0.00121   2.08867
    R4        2.08527   0.00007  -0.00045   0.00017  -0.00028   2.08499
    R5        1.84122   0.00007  -0.00004   0.00019   0.00015   1.84137
    R6        2.89404   0.00047   0.00002   0.00104   0.00106   2.89510
    R7        2.10408   0.00020   0.00018   0.00074   0.00092   2.10500
    R8        2.09183  -0.00046  -0.00019  -0.00153  -0.00172   2.09011
    R9        2.70526   0.00007   0.00141  -0.00055   0.00086   2.70612
   R10        2.09368  -0.00077  -0.00004  -0.00248  -0.00252   2.09116
   R11        2.08805   0.00010  -0.00023   0.00022  -0.00001   2.08804
   R12        1.87683   0.00020   0.00041   0.00043   0.00084   1.87767
    A1        1.83636  -0.00003  -0.00081   0.00044  -0.00038   1.83598
    A2        1.88090   0.00013   0.00058   0.00153   0.00212   1.88302
    A3        1.90141  -0.00001  -0.00007  -0.00003  -0.00011   1.90130
    A4        1.95207   0.00001   0.00022   0.00007   0.00029   1.95236
    A5        1.96660   0.00007  -0.00009   0.00030   0.00022   1.96681
    A6        1.92208  -0.00016   0.00016  -0.00211  -0.00195   1.92014
    A7        1.92650   0.00003  -0.00087   0.00022  -0.00065   1.92585
    A8        1.96303  -0.00013  -0.00018  -0.00050  -0.00069   1.96234
    A9        1.90188   0.00004  -0.00112   0.00020  -0.00092   1.90096
   A10        1.91904   0.00003   0.00119   0.00012   0.00131   1.92035
   A11        1.89396   0.00002  -0.00045  -0.00008  -0.00054   1.89342
   A12        1.92790   0.00011   0.00124   0.00087   0.00211   1.93001
   A13        1.85448  -0.00006  -0.00076  -0.00063  -0.00138   1.85309
   A14        1.94349  -0.00036  -0.00067  -0.00109  -0.00175   1.94174
   A15        1.95450   0.00005  -0.00021   0.00010  -0.00010   1.95440
   A16        1.95683   0.00013  -0.00036   0.00100   0.00063   1.95746
   A17        1.79757   0.00024   0.00186   0.00070   0.00255   1.80012
   A18        1.88665   0.00021  -0.00026   0.00217   0.00190   1.88856
   A19        1.91737  -0.00026  -0.00019  -0.00289  -0.00308   1.91428
   A20        1.91274   0.00037  -0.00141   0.00120  -0.00020   1.91254
    D1       -2.98093   0.00005   0.00214   0.00486   0.00700  -2.97394
    D2        1.21697  -0.00001   0.00202   0.00378   0.00581   1.22278
    D3       -0.86822   0.00012   0.00154   0.00545   0.00698  -0.86124
    D4        1.19256  -0.00004   0.00543   0.00888   0.01430   1.20686
    D5       -0.90831  -0.00001   0.00689   0.00916   0.01605  -0.89226
    D6       -2.93432   0.00002   0.00777   0.00974   0.01751  -2.91681
    D7       -3.05335   0.00010   0.00575   0.01100   0.01675  -3.03660
    D8        1.12897   0.00014   0.00721   0.01128   0.01849   1.14746
    D9       -0.89704   0.00017   0.00809   0.01186   0.01995  -0.87709
   D10       -0.87690  -0.00005   0.00607   0.00848   0.01455  -0.86235
   D11       -2.97776  -0.00002   0.00753   0.00876   0.01629  -2.96147
   D12        1.27941   0.00002   0.00841   0.00934   0.01775   1.29716
   D13       -1.34198   0.00004   0.00353   0.00259   0.00612  -1.33586
   D14        2.93897  -0.00007   0.00177   0.00233   0.00410   2.94307
   D15        0.77440   0.00014   0.00246   0.00531   0.00777   0.78217
   D16        0.76345   0.00002   0.00170   0.00247   0.00417   0.76761
[...]
     Eigenvalues ---    0.33687   0.34117   0.35199   0.37129   0.43469
     Eigenvalues ---    0.51195   0.53741   0.58101
 En-DIIS/RFO-DIIS IScMMF=        0 using points:    14   13   12   11   10
 RFO step:  Lambda=-8.45288229D-09.
 DidBck=F Rises=F RFO-DIIS coefs:    1.08587    0.09135   -0.56600    0.40059   -0.01180
 Iteration  1 RMS(Cart)=  0.00023498 RMS(Int)=  0.00000005
 Iteration  2 RMS(Cart)=  0.00000005 RMS(Int)=  0.00000001
 Variable       Old X    -DE/DX   Delta X   Delta X   Delta X     New X
                                 (Linear)    (Quad)   (Total)
    R1        2.73619  -0.00002  -0.00008   0.00000  -0.00007   2.73612
    R2        2.88489   0.00001   0.00004   0.00000   0.00004   2.88493
    R3        2.08859   0.00001  -0.00000   0.00003   0.00003   2.08862
    R4        2.08520   0.00002   0.00005   0.00001   0.00005   2.08525
    R5        1.84201   0.00002   0.00002   0.00003   0.00005   1.84206
    R6        2.89486  -0.00002   0.00001  -0.00006  -0.00005   2.89481
    R7        2.10498   0.00001   0.00003   0.00001   0.00003   2.10501
    R8        2.08966  -0.00001  -0.00007   0.00000  -0.00006   2.08959
    R9        2.70506  -0.00004  -0.00008  -0.00003  -0.00011   2.70495
   R10        2.09086   0.00001  -0.00003   0.00005   0.00002   2.09089
   R11        2.08869   0.00001   0.00004   0.00000   0.00004   2.08873
   R12        1.87779   0.00001   0.00004   0.00001   0.00005   1.87784
    A1        1.83610  -0.00000   0.00001   0.00003   0.00004   1.83614
    A2        1.88074   0.00000   0.00004  -0.00004   0.00001   1.88075
    A3        1.90437   0.00000   0.00005   0.00006   0.00010   1.90448
    A4        1.95235   0.00000   0.00002  -0.00001   0.00001   1.95236
    A5        1.96715   0.00000   0.00001   0.00002   0.00003   1.96718
    A6        1.91894  -0.00001  -0.00012  -0.00005  -0.00018   1.91877
    A7        1.92646   0.00002   0.00005   0.00006   0.00010   1.92657
    A8        1.96200  -0.00001  -0.00008   0.00000  -0.00008   1.96192
    A9        1.90035   0.00000  -0.00001   0.00001   0.00001   1.90036
   A10        1.92008   0.00001   0.00005   0.00001   0.00005   1.92013
   A11        1.89483  -0.00000  -0.00007   0.00002  -0.00005   1.89478
   A12        1.92979   0.00000   0.00008  -0.00005   0.00003   1.92982
   A13        1.85316   0.00000   0.00004   0.00001   0.00005   1.85321
   A14        1.94565  -0.00001  -0.00008   0.00003  -0.00005   1.94560
   A15        1.95414   0.00001   0.00009   0.00000   0.00009   1.95423
   A16        1.95799   0.00000  -0.00001   0.00000  -0.00001   1.95799
   A17        1.80164  -0.00000   0.00003  -0.00000   0.00003   1.80167
   A18        1.88548   0.00000   0.00011  -0.00005   0.00006   1.88554
   A19        1.91156  -0.00001  -0.00013   0.00001  -0.00012   1.91144
   A20        1.91642   0.00001   0.00004   0.00000   0.00004   1.91646
    D1       -2.92012  -0.00000   0.00046   0.00023   0.00068  -2.91944
    D2        1.27766  -0.00000   0.00040   0.00024   0.00064   1.27831
    D3       -0.80534   0.00001   0.00050   0.00030   0.00079  -0.80455
    D4        1.22299   0.00000  -0.00008   0.00002  -0.00007   1.22292
    D5       -0.87727   0.00000   0.00006  -0.00002   0.00004  -0.87723
    D6       -2.90141  -0.00000  -0.00001  -0.00004  -0.00005  -2.90145
    D7       -3.02311   0.00000  -0.00002  -0.00002  -0.00003  -3.02314
    D8        1.15981   0.00001   0.00013  -0.00005   0.00008   1.15989
    D9       -0.86432   0.00000   0.00006  -0.00007  -0.00001  -0.86433
   D10       -0.85019  -0.00000  -0.00015  -0.00008  -0.00023  -0.85043
   D11       -2.95046  -0.00000  -0.00001  -0.00011  -0.00012  -2.95058
   D12        1.30859  -0.00001  -0.00007  -0.00014  -0.00021   1.30838
   D13       -1.31179   0.00000  -0.00034   0.00012  -0.00022  -1.31201
   D14        2.96297  -0.00000  -0.00038   0.00010  -0.00029   2.96268
   D15        0.80545   0.00000  -0.00027   0.00008  -0.00019   0.80526
   D16        0.79166  -0.00000  -0.00044   0.00014  -0.00030   0.79136
   D17       -1.21677  -0.00000  -0.00049   0.00012  -0.00036  -1.21713
   D18        2.90890  -0.00000  -0.00038   0.00011  -0.00027   2.90863
   D19        2.81802  -0.00000  -0.00040   0.00014  -0.00026   2.81777
   D20        0.80960  -0.00000  -0.00044   0.00012  -0.00032   0.80928
   D21       -1.34792  -0.00000  -0.00033   0.00011  -0.00023  -1.34814
   D22        0.70828  -0.00000   0.00041  -0.00011   0.00029   0.70858
   D23        2.80888   0.00000   0.00049  -0.00009   0.00039   2.80927
   D24       -1.45064  -0.00000   0.00040  -0.00011   0.00030  -1.45034
         Item               Value     Threshold  Converged?
 Maximum Force            0.000040     0.000450     YES
 RMS     Force            0.000009     0.000300     YES
 Maximum Displacement     0.000923     0.001800     YES
 RMS     Displacement     0.000235     0.001200     YES
 Predicted change in Energy=-1.067924D-08
 Optimization completed.
    -- Stationary point found.
                           ----------------------------
                           !   Optimized Parameters   !
                           ! (Angstroms and Degrees)  !
 --------------------------                            --------------------------
 ! Name  Definition              Value          Derivative Info.                !
 --------------------------------------------------------------------------------
 ! R1    R(1,2)                  1.4479         -DE/DX =    0.0                 !
 ! R2    R(1,3)                  1.5266         -DE/DX =    0.0                 !
 ! R3    R(1,6)                  1.1052         -DE/DX =    0.0                 !
 ! R4    R(1,7)                  1.1034         -DE/DX =    0.0                 !
 ! R5    R(2,8)                  0.9748         -DE/DX =    0.0                 !
 ! R6    R(3,4)                  1.5319         -DE/DX =    0.0                 !
 ! R7    R(3,9)                  1.1139         -DE/DX =    0.0                 !
 ! R8    R(3,10)                 1.1058         -DE/DX =    0.0                 !
 ! R9    R(4,5)                  1.4315         -DE/DX =    0.0                 !
 ! R10   R(4,11)                 1.1064         -DE/DX =    0.0                 !
 ! R11   R(4,12)                 1.1053         -DE/DX =    0.0                 !
 ! R12   R(5,13)                 0.9937         -DE/DX =    0.0                 !
 ! A1    A(2,1,3)              105.2009         -DE/DX =    0.0                 !
 ! A2    A(2,1,6)              107.7587         -DE/DX =    0.0                 !
 ! A3    A(2,1,7)              109.1125         -DE/DX =    0.0                 !
 ! A4    A(3,1,6)              111.8615         -DE/DX =    0.0                 !
 ! A5    A(3,1,7)              112.7093         -DE/DX =    0.0                 !
 ! A6    A(6,1,7)              109.9473         -DE/DX =    0.0                 !
 ! A7    A(1,2,8)              110.3783         -DE/DX =    0.0                 !
 ! A8    A(1,3,4)              112.4144         -DE/DX =    0.0                 !
 ! A9    A(1,3,9)              108.8819         -DE/DX =    0.0                 !
 ! A10   A(1,3,10)             110.0125         -DE/DX =    0.0                 !
 ! A11   A(4,3,9)              108.5658         -DE/DX =    0.0                 !
 ! A12   A(4,3,10)             110.5687         -DE/DX =    0.0                 !
 ! A13   A(9,3,10)             106.1782         -DE/DX =    0.0                 !
 ! A14   A(3,4,5)              111.4775         -DE/DX =    0.0                 !
 ! A15   A(3,4,11)             111.964          -DE/DX =    0.0                 !
 ! A16   A(3,4,12)             112.1848         -DE/DX =    0.0                 !
 ! A17   A(5,4,11)             103.2264         -DE/DX =    0.0                 !
 ! A18   A(5,4,12)             108.0303         -DE/DX =    0.0                 !
 ! A19   A(11,4,12)            109.5245         -DE/DX =    0.0                 !
 ! A20   A(4,5,13)             109.8027         -DE/DX =    0.0                 !
 ! D1    D(3,1,2,8)           -167.3105         -DE/DX =    0.0                 !
 ! D2    D(6,1,2,8)             73.2048         -DE/DX =    0.0                 !
 ! D3    D(7,1,2,8)            -46.1427         -DE/DX =    0.0                 !
 ! D4    D(2,1,3,4)             70.0722         -DE/DX =    0.0                 !
 ! D5    D(2,1,3,9)            -50.2641         -DE/DX =    0.0                 !
 ! D6    D(2,1,3,10)          -166.2383         -DE/DX =    0.0                 !
 ! D7    D(6,1,3,4)           -173.2116         -DE/DX =    0.0                 !
 ! D8    D(6,1,3,9)             66.4522         -DE/DX =    0.0                 !
 ! D9    D(6,1,3,10)           -49.5221         -DE/DX =    0.0                 !
 ! D10   D(7,1,3,4)            -48.7125         -DE/DX =    0.0                 !
 ! D11   D(7,1,3,9)           -169.0488         -DE/DX =    0.0                 !
 ! D12   D(7,1,3,10)            74.977          -DE/DX =    0.0                 !
 ! D13   D(1,3,4,5)            -75.1599         -DE/DX =    0.0                 !
 ! D14   D(1,3,4,11)           169.7657         -DE/DX =    0.0                 !
 ! D15   D(1,3,4,12)            46.1491         -DE/DX =    0.0                 !
 ! D16   D(9,3,4,5)             45.3588         -DE/DX =    0.0                 !
 ! D17   D(9,3,4,11)           -69.7156         -DE/DX =    0.0                 !
 ! D18   D(9,3,4,12)           166.6678         -DE/DX =    0.0                 !
 ! D19   D(10,3,4,5)           161.4609         -DE/DX =    0.0                 !
 ! D20   D(10,3,4,11)           46.3866         -DE/DX =    0.0                 !
 ! D21   D(10,3,4,12)          -77.2301         -DE/DX =    0.0                 !
 ! D22   D(3,4,5,13)            40.5816         -DE/DX =    0.0                 !
 ! D23   D(11,4,5,13)          160.937          -DE/DX =    0.0                 !
 ! D24   D(12,4,5,13)          -83.1153         -DE/DX =    0.0                 !
 --------------------------------------------------------------------------------
 GradGradGradGradGradGradGradGradGradGradGradGradGradGradGradGradGradGrad

                          Input orientation:                          
 ---------------------------------------------------------------------
 Center     Atomic      Atomic             Coordinates (Angstroms)
 Number     Number       Type             X           Y           Z
 ---------------------------------------------------------------------
      1          6           0        0.977009    2.029291    1.279317
      2          8           0        1.566788    3.155181    0.585753
      3          6           0        1.981787    0.890858    1.121337
      4          6           0        3.260113    1.123201    1.932874
      5          8           0        4.100388    2.105178    1.317466
      6          1           0        0.013467    1.798732    0.789448
      7          1           0        0.806710    2.303816    2.334406
      8          1           0        1.089436    3.976441    0.804409
      9          1           0        2.256324    0.799031    0.045707
     10          1           0        1.512304   -0.070008    1.402607
     11          1           0        3.902007    0.222427    1.960831
     12          1           0        3.044747    1.455495    2.964792
     13          1           0        3.545120    2.849755    0.964353
 ---------------------------------------------------------------------
                    Distance matrix (angstroms):
                    1          2          3          4          5
     1  C    0.000000
     2  O    1.447929   0.000000
     3  C    1.526619   2.363521   0.000000
     4  C    2.541791   2.968338   1.531892   0.000000
     5  O    3.124534   2.838493   2.449799   1.431457   0.000000
     6  H    1.105233   2.072257   2.192867   3.507773   4.132268
     7  H    1.103439   2.088141   2.201997   2.752138   3.452817
     8  H    2.007379   0.974752   3.227623   3.758490   3.581994
     9  H    2.161477   2.513674   1.113905   2.161962   2.593061
    10  H    2.169976   3.327471   1.105799   2.181689   3.381843
    11  H    3.504973   3.993136   2.199726   1.106438   1.999507
    12  H    2.728664   3.276144   2.201595   1.105285   2.061589
    13  H    2.714325   2.037259   2.511162   2.000063   0.993683
                    6          7          8          9         10
     6  H    0.000000
     7  H    1.808656   0.000000
     8  H    2.429063   2.284404   0.000000
     9  H    2.565728   3.099017   3.468889   0.000000
    10  H    2.472785   2.645969   4.112226   1.774817   0.000000
    11  H    4.356330   3.748680   4.831199   2.590066   2.471399
    12  H    3.746810   2.475044   3.853006   3.094125   2.667576
    13  H    3.688877   3.110304   2.706545   2.590439   3.584609
                   11         12         13
    11  H    0.000000
    12  H    1.806458   0.000000
    13  H    2.832524   2.489195   0.000000
 Stoichiometry    C3H8O2
 Framework group  C1[X(C3H8O2)]
 Deg. of freedom    33
 Full point group                 C1      NOp   1
 Largest Abelian subgroup         C1      NOp   1
 Largest concise Abelian subgroup C1      NOp   1
                         Standard orientation:                         
 ---------------------------------------------------------------------
 Center     Atomic      Atomic             Coordinates (Angstroms)
 Number     Number       Type             X           Y           Z
 ---------------------------------------------------------------------
      1          6           0        1.268175    0.492968    0.245106
      2          8           0        1.345898   -0.900004   -0.142308
      3          6           0       -0.024712    1.010787   -0.380091
      4          6           0       -1.272382    0.429255    0.292096
      5          8           0       -1.492080   -0.930492   -0.097632
      6          1           0        2.157425    1.006623   -0.163470
      7          1           0        1.266339    0.562128    1.346374
      8          1           0        2.032609   -1.358562    0.375663
      9          1           0       -0.040435    0.732259   -1.458497
     10          1           0       -0.044957    2.115904   -0.346976
     11          1           0       -2.196601    0.939851   -0.038534
     12          1           0       -1.206228    0.462635    1.394894
     13          1           0       -0.625187   -1.414932   -0.132596
 ---------------------------------------------------------------------
 Rotational constants (GHZ):      7.7056290      3.8666806      2.8720875

 **********************************************************************

            Population analysis using the SCF density.

 **********************************************************************

 Orbital symmetries:
       Occupied  (A) (A) (A) (A) (A) (A) (A) (A) (A) (A) (A) (A)
                 (A) (A) (A) (A)
       Virtual   (A) (A) (A) (A) (A) (A) (A) (A) (A) (A) (A) (A)
 The electronic state is 1-A.
 Alpha  occ. eigenvalues --   -1.11606  -1.07379  -0.99645  -0.88222  -0.77650
 Alpha  occ. eigenvalues --   -0.68268  -0.64949  -0.57694  -0.56641  -0.54674
 Alpha  occ. eigenvalues --   -0.50927  -0.47874  -0.47077  -0.43633  -0.39594
 Alpha  occ. eigenvalues --   -0.37247
 Alpha virt. eigenvalues --    0.08034   0.11373   0.12380   0.13918   0.18141
 Alpha virt. eigenvalues --    0.18715   0.19202   0.19604   0.19994   0.20745
 Alpha virt. eigenvalues --    0.22294   0.23555
          Condensed to atoms (all electrons):
               1          2          3          4          5          6
     1  C    3.976989   0.000000   0.000000   0.000000   0.000000   0.000000
     2  O    0.000000   6.567273   0.000000   0.000000   0.000000   0.000000
     3  C    0.000000   0.000000   4.376430   0.000000   0.000000   0.000000
     4  C    0.000000   0.000000   0.000000   3.962611   0.000000   0.000000
     5  O    0.000000   0.000000   0.000000   0.000000   6.566169   0.000000
     6  H    0.000000   0.000000   0.000000   0.000000   0.000000   0.884557
     7  H    0.000000   0.000000   0.000000   0.000000   0.000000   0.000000
     8  H    0.000000   0.000000   0.000000   0.000000   0.000000   0.000000
     9  H    0.000000   0.000000   0.000000   0.000000   0.000000   0.000000
    10  H    0.000000   0.000000   0.000000   0.000000   0.000000   0.000000
    11  H    0.000000   0.000000   0.000000   0.000000   0.000000   0.000000
    12  H    0.000000   0.000000   0.000000   0.000000   0.000000   0.000000
    13  H    0.000000   0.000000   0.000000   0.000000   0.000000   0.000000
               7          8          9         10         11         12
     1  C    0.000000   0.000000   0.000000   0.000000   0.000000   0.000000
     2  O    0.000000   0.000000   0.000000   0.000000   0.000000   0.000000
     3  C    0.000000   0.000000   0.000000   0.000000   0.000000   0.000000
     4  C    0.000000   0.000000   0.000000   0.000000   0.000000   0.000000
     5  O    0.000000   0.000000   0.000000   0.000000   0.000000   0.000000
     6  H    0.000000   0.000000   0.000000   0.000000   0.000000   0.000000
     7  H    0.889213   0.000000   0.000000   0.000000   0.000000   0.000000
     8  H    0.000000   0.690844   0.000000   0.000000   0.000000   0.000000
     9  H    0.000000   0.000000   0.816872   0.000000   0.000000   0.000000
    10  H    0.000000   0.000000   0.000000   0.844831   0.000000   0.000000
    11  H    0.000000   0.000000   0.000000   0.000000   0.866374   0.000000
    12  H    0.000000   0.000000   0.000000   0.000000   0.000000   0.891172
    13  H    0.000000   0.000000   0.000000   0.000000   0.000000   0.000000
              13
     1  C    0.000000
     2  O    0.000000
     3  C    0.000000
     4  C    0.000000
     5  O    0.000000
     6  H    0.000000
     7  H    0.000000
     8  H    0.000000
     9  H    0.000000
    10  H    0.000000
    11  H    0.000000
    12  H    0.000000
    13  H    0.666665
 Mulliken charges:
               1
     1  C    0.023011
     2  O   -0.567273
     3  C   -0.376430
     4  C    0.037389
     5  O   -0.566169
     6  H    0.115443
     7  H    0.110787
     8  H    0.309156
     9  H    0.183128
    10  H    0.155169
    11  H    0.133626
    12  H    0.108828
    13  H    0.333335
 Sum of Mulliken charges =   0.00000
 Mulliken charges with hydrogens summed into heavy atoms:
               1
     1  C    0.249241
     2  O   -0.258116
     3  C   -0.038133
     4  C    0.279842
     5  O   -0.232834
 Charge=              0.0000 electrons
 Dipole moment (field-independent basis, Debye):
    X=              2.7440    Y=              2.3119    Z=              1.5888  Tot=              3.9242
 N-N= 1.370844486094D+02 E-N=-2.355139228975D+02  KE=-1.791707576078D+01
 1\1\GINC-GTX1080DELTA\FOpt\RPM6\ZDO\C3H8O2\MVEROT\17-Apr-2022\0\\#n PM
 6 Opt\\Optimisation de geometrie\\0,1\C,0.9770087323,2.0292912693,1.27
 93172474\O,1.566787718,3.1551814192,0.585752644\C,1.9817866688,0.89085
 84413,1.1213374828\C,3.2601128642,1.1232014174,1.9328741761\O,4.100388
 4823,2.1051783026,1.3174664673\H,0.01346746,1.7987324009,0.7894483438\
 H,0.8067097187,2.3038156253,2.3344062234\H,1.0894363864,3.9764408978,0
 .8044086767\H,2.2563243948,0.799031002,0.0457065129\H,1.51230388,-0.07
 00077111,1.4026072\H,3.9020066584,0.222426641,1.9608308081\H,3.0447466
 06,1.4554952379,2.9647915087\H,3.5451204302,2.8497550564,0.9643527087\
 \Version=AM64L-G09RevD.01\State=1-A\HF=-0.161856\RMSD=2.924e-09\RMSF=1
 .733e-05\Dipole=-1.4390791,-0.1876157,0.5267274\PG=C01 [X(C3H8O2)]\\@


 SEEN ON A WALL AT THE UNIVERSITY OF ILLINOIS AT CHICAGO CIRCLE:

 TO DO IS TO BE  -- SOCRATES
 TO BE IS TO DO  -- SARTRE
 OO BE DO BE DO  -- SINATRA
 Job cpu time:       0 days  0 hours  0 minutes  7.7 seconds.
 File lengths (MBytes):  RWF=     72 Int=      0 D2E=      0 Chk=      2 Scr=      2
 Normal termination of Gaussian 09 at Sun Apr 17 23:24:16 2022.
