 Entering Gaussian System, Link 0=g09
 Input=/scratch/mverot/ethane-opt/ethane-opt.com
 Output=/scratch/mverot/ethane-opt/ethane-opt.log
 Initial command:
 /opt/g09/l1.exe "/scratch/mverot/ethane-opt/Gau-754129.inp" -scrdir="/scratch/mverot/ethane-opt/"
 Entering Link 1 = /opt/g09/l1.exe PID=    754131.
  
 Copyright (c) 1988,1990,1992,1993,1995,1998,2003,2009,2013,
            Gaussian, Inc.  All Rights Reserved.
  
 This is part of the Gaussian(R) 09 program.  It is based on
 the Gaussian(R) 03 system (copyright 2003, Gaussian, Inc.),
 the Gaussian(R) 98 system (copyright 1998, Gaussian, Inc.),
 the Gaussian(R) 94 system (copyright 1995, Gaussian, Inc.),
 the Gaussian 92(TM) system (copyright 1992, Gaussian, Inc.),
 the Gaussian 90(TM) system (copyright 1990, Gaussian, Inc.),
 the Gaussian 88(TM) system (copyright 1988, Gaussian, Inc.),
 the Gaussian 86(TM) system (copyright 1986, Carnegie Mellon
 University), and the Gaussian 82(TM) system (copyright 1983,
 Carnegie Mellon University). Gaussian is a federally registered
 trademark of Gaussian, Inc.
  
 This software contains proprietary and confidential information,
 including trade secrets, belonging to Gaussian, Inc.
  
 This software is provided under written license and may be
 used, copied, transmitted, or stored only in accord with that
 written license.
  
 The following legend is applicable only to US Government
 contracts under FAR:
  
                    RESTRICTED RIGHTS LEGEND
  
 Use, reproduction and disclosure by the US Government is
 subject to restrictions as set forth in subparagraphs (a)
 and (c) of the Commercial Computer Software - Restricted
 Rights clause in FAR 52.227-19.
  
 Gaussian, Inc.
 340 Quinnipiac St., Bldg. 40, Wallingford CT 06492
  
  
 ---------------------------------------------------------------
 Warning -- This program may not be used in any manner that
 competes with the business of Gaussian, Inc. or will provide
 assistance to any competitor of Gaussian, Inc.  The licensee
 of this program is prohibited from giving any competitor of
 Gaussian, Inc. access to this program.  By using this program,
 the user acknowledges that Gaussian, Inc. is engaged in the
 business of creating and licensing software in the field of
 computational chemistry and represents and warrants to the
 licensee that it is not a competitor of Gaussian, Inc. and that
 it will not use this program in any manner prohibited above.
 ---------------------------------------------------------------
  

 Cite this work as:
 Gaussian 09, Revision D.01,
 M. J. Frisch, G. W. Trucks, H. B. Schlegel, G. E. Scuseria, 
 M. A. Robb, J. R. Cheeseman, G. Scalmani, V. Barone, B. Mennucci, 
 G. A. Petersson, H. Nakatsuji, M. Caricato, X. Li, H. P. Hratchian, 
 A. F. Izmaylov, J. Bloino, G. Zheng, J. L. Sonnenberg, M. Hada, 
 M. Ehara, K. Toyota, R. Fukuda, J. Hasegawa, M. Ishida, T. Nakajima, 
 Y. Honda, O. Kitao, H. Nakai, T. Vreven, J. A. Montgomery, Jr., 
 J. E. Peralta, F. Ogliaro, M. Bearpark, J. J. Heyd, E. Brothers, 
 K. N. Kudin, V. N. Staroverov, T. Keith, R. Kobayashi, J. Normand, 
 K. Raghavachari, A. Rendell, J. C. Burant, S. S. Iyengar, J. Tomasi, 
 M. Cossi, N. Rega, J. M. Millam, M. Klene, J. E. Knox, J. B. Cross, 
 V. Bakken, C. Adamo, J. Jaramillo, R. Gomperts, R. E. Stratmann, 
 O. Yazyev, A. J. Austin, R. Cammi, C. Pomelli, J. W. Ochterski, 
 R. L. Martin, K. Morokuma, V. G. Zakrzewski, G. A. Voth, 
 P. Salvador, J. J. Dannenberg, S. Dapprich, A. D. Daniels, 
 O. Farkas, J. B. Foresman, J. V. Ortiz, J. Cioslowski, 
 and D. J. Fox, Gaussian, Inc., Wallingford CT, 2013.
 
 ******************************************
 Gaussian 09:  AM64L-G09RevD.01 24-Apr-2013
                16-Apr-2022 
 ******************************************
 %chk=ethane-opt
 ---------------
 #n AM1 Opt freq
 ---------------
 1/14=-1,18=20,19=15,26=1,38=1/1,3;
 2/9=110,12=2,17=6,18=5,40=1/2;
 3/5=2,16=1,25=1,41=700000,71=1/1,2,3;
 4/35=1/1;
 5/5=2,35=1,38=5/2;
 6/7=2,8=2,9=2,10=2,28=1/1;
 7//1,2,3,16;
 1/14=-1,18=20,19=15,26=1/3(2);
 2/9=110/2;
 99//99;
 2/9=110/2;
 3/5=2,16=1,25=1,41=700000,71=1,135=20/1,2,3;
 4/5=5,16=3,35=1/1;
 5/5=2,35=1,38=5/2;
 7//1,2,3,16;
 1/14=-1,18=20,19=15,26=1/3(-5);
 2/9=110/2;
 6/7=2,8=2,9=2,10=2,19=2,28=1/1;
 99/9=1/99;
 -------------------------
 Optimisation de geometrie
 -------------------------
 Symbolic Z-matrix:
 Charge =  0 Multiplicity = 1
 H                     0.5397    1.7666   -0.0025 
 C                     0.7166    0.898     0.6425 
 H                     0.4899    0.0005    0.0551 
 H                    -0.0078    0.9452    1.464 
 C                     2.1541    0.8745    1.1659 
 H                     2.3313    0.0053    1.81 
 H                     2.8785    0.8284    0.3444 
 H                     2.3805    1.7715    1.7542 
 

 GradGradGradGradGradGradGradGradGradGradGradGradGradGradGradGradGradGrad
 Berny optimization.
 Initialization pass.
                           ----------------------------
                           !    Initial Parameters    !
                           ! (Angstroms and Degrees)  !
 --------------------------                            --------------------------
 ! Name  Definition              Value          Derivative Info.                !
 --------------------------------------------------------------------------------
 ! R1    R(1,2)                  1.0963         estimate D2E/DX2                !
 ! R2    R(2,3)                  1.0963         estimate D2E/DX2                !
 ! R3    R(2,4)                  1.0963         estimate D2E/DX2                !
 ! R4    R(2,5)                  1.53           estimate D2E/DX2                !
 ! R5    R(5,6)                  1.0963         estimate D2E/DX2                !
 ! R6    R(5,7)                  1.0962         estimate D2E/DX2                !
 ! R7    R(5,8)                  1.0963         estimate D2E/DX2                !
 ! A1    A(1,2,3)              107.4593         estimate D2E/DX2                !
 ! A2    A(1,2,4)              107.4665         estimate D2E/DX2                !
 ! A3    A(1,2,5)              111.411          estimate D2E/DX2                !
 ! A4    A(3,2,4)              107.4637         estimate D2E/DX2                !
 ! A5    A(3,2,5)              111.4072         estimate D2E/DX2                !
 ! A6    A(4,2,5)              111.4163         estimate D2E/DX2                !
 ! A7    A(2,5,6)              111.4101         estimate D2E/DX2                !
 ! A8    A(2,5,7)              111.4164         estimate D2E/DX2                !
 ! A9    A(2,5,8)              111.4088         estimate D2E/DX2                !
 ! A10   A(6,5,7)              107.4659         estimate D2E/DX2                !
 ! A11   A(6,5,8)              107.4611         estimate D2E/DX2                !
 ! A12   A(7,5,8)              107.4616         estimate D2E/DX2                !
 ! D1    D(1,2,5,6)           -179.937          estimate D2E/DX2                !
 ! D2    D(1,2,5,7)            -59.9311         estimate D2E/DX2                !
 ! D3    D(1,2,5,8)             60.0684         estimate D2E/DX2                !
 ! D4    D(3,2,5,6)            -59.9452         estimate D2E/DX2                !
 ! D5    D(3,2,5,7)             60.0607         estimate D2E/DX2                !
 ! D6    D(3,2,5,8)           -179.9398         estimate D2E/DX2                !
 ! D7    D(4,2,5,6)             60.0558         estimate D2E/DX2                !
 ! D8    D(4,2,5,7)           -179.9383         estimate D2E/DX2                !
 ! D9    D(4,2,5,8)            -59.9388         estimate D2E/DX2                !
 --------------------------------------------------------------------------------
 Trust Radius=3.00D-01 FncErr=1.00D-07 GrdErr=1.00D-07
 Number of steps in this run=     38 maximum allowed number of steps=    100.
 GradGradGradGradGradGradGradGradGradGradGradGradGradGradGradGradGradGrad

                          Input orientation:                          
 ---------------------------------------------------------------------
 Center     Atomic      Atomic             Coordinates (Angstroms)
 Number     Number       Type             X           Y           Z
 ---------------------------------------------------------------------
      1          1           0        0.539700    1.766600   -0.002500
      2          6           0        0.716600    0.898000    0.642500
      3          1           0        0.489900    0.000500    0.055100
      4          1           0       -0.007800    0.945200    1.464000
      5          6           0        2.154100    0.874500    1.165900
      6          1           0        2.331300    0.005300    1.810000
      7          1           0        2.878500    0.828400    0.344400
      8          1           0        2.380500    1.771500    1.754200
 ---------------------------------------------------------------------
                    Distance matrix (angstroms):
                    1          2          3          4          5
     1  H    0.000000
     2  C    1.096259   0.000000
     3  H    1.767741   1.096329   0.000000
     4  H    1.767789   1.096287   1.767813   0.000000
     5  C    2.183412   1.530002   2.183418   2.183500   0.000000
     6  H    3.097929   2.183398   2.543708   2.544507   1.096254
     7  H    2.543726   2.183465   2.544508   3.098044   1.096240
     8  H    2.544516   2.183447   3.098024   2.543809   1.096341
                    6          7          8
     6  H    0.000000
     7  H    1.767740   0.000000
     8  H    1.767766   1.767761   0.000000
 Stoichiometry    C2H6
 Framework group  C1[X(C2H6)]
 Deg. of freedom    18
 Full point group                 C1      NOp   1
 Largest Abelian subgroup         C1      NOp   1
 Largest concise Abelian subgroup C1      NOp   1
                         Standard orientation:                         
 ---------------------------------------------------------------------
 Center     Atomic      Atomic             Coordinates (Angstroms)
 Number     Number       Type             X           Y           Z
 ---------------------------------------------------------------------
      1          1           0       -1.165183   -0.166321   -1.006973
      2          6           0       -0.765001    0.000018   -0.000012
      3          1           0       -1.165183   -0.789010    0.647465
      4          1           0       -1.165285    0.955194    0.359512
      5          6           0        0.765001   -0.000018    0.000012
      6          1           0        1.165166    0.165214    1.007157
      7          1           0        1.165268   -0.954765   -0.360525
      8          1           0        1.165217    0.789689   -0.646635
 ---------------------------------------------------------------------
 Rotational constants (GHZ):     80.2327079     19.8929288     19.8928189
 Standard basis: VSTO-6G (5D, 7F)
 There are    14 symmetry adapted cartesian basis functions of A   symmetry.
 There are    14 symmetry adapted basis functions of A   symmetry.
    14 basis functions,    84 primitive gaussians,    14 cartesian basis functions
     7 alpha electrons        7 beta electrons
       nuclear repulsion energy        34.2042367455 Hartrees.
 Integral buffers will be    131072 words long.
 Regular integral format.
 Two-electron integral symmetry is turned off.
 Do NDO integrals.
 One-electron integrals computed using PRISM.
 NBasis=    14 RedAO= F EigKep=  0.00D+00  NBF=    14
 NBsUse=    14 1.00D-04 EigRej=  0.00D+00 NBFU=    14
 Simple Huckel Guess.
 Overlap will be assumed to be unity.
 Keep J ints in memory in canonical form, NReq=885605.
 Requested convergence on RMS density matrix=1.00D-08 within 128 cycles.
 Requested convergence on MAX density matrix=1.00D-06.
 Requested convergence on             energy=1.00D-06.
 No special actions if energy rises.
 SCF Done:  E(RAM1) = -0.252243349367E-01 A.U. after   10 cycles
            NFock=  9  Conv=0.76D-08     -V/T= 0.9970

 **********************************************************************

            Population analysis using the SCF density.

 **********************************************************************

 Orbital symmetries:
       Occupied  (A) (A) (A) (A) (A) (A) (A)
       Virtual   (A) (A) (A) (A) (A) (A) (A)
 The electronic state is 1-A.
 Alpha  occ. eigenvalues --   -1.21903  -0.88495  -0.54585  -0.54583  -0.48387
 Alpha  occ. eigenvalues --   -0.43793  -0.43791
 Alpha virt. eigenvalues --    0.15523   0.15524   0.16851   0.18528   0.18713
 Alpha virt. eigenvalues --    0.18715   0.19916
          Condensed to atoms (all electrons):
               1          2          3          4          5          6
     1  H    0.930641   0.000000   0.000000   0.000000   0.000000   0.000000
     2  C    0.000000   4.208085   0.000000   0.000000   0.000000   0.000000
     3  H    0.000000   0.000000   0.930648   0.000000   0.000000   0.000000
     4  H    0.000000   0.000000   0.000000   0.930626   0.000000   0.000000
     5  C    0.000000   0.000000   0.000000   0.000000   4.208083   0.000000
     6  H    0.000000   0.000000   0.000000   0.000000   0.000000   0.930640
     7  H    0.000000   0.000000   0.000000   0.000000   0.000000   0.000000
     8  H    0.000000   0.000000   0.000000   0.000000   0.000000   0.000000
               7          8
     1  H    0.000000   0.000000
     2  C    0.000000   0.000000
     3  H    0.000000   0.000000
     4  H    0.000000   0.000000
     5  C    0.000000   0.000000
     6  H    0.000000   0.000000
     7  H    0.930630   0.000000
     8  H    0.000000   0.930648
 Mulliken charges:
               1
     1  H    0.069359
     2  C   -0.208085
     3  H    0.069352
     4  H    0.069374
     5  C   -0.208083
     6  H    0.069360
     7  H    0.069370
     8  H    0.069352
 Sum of Mulliken charges =  -0.00000
 Mulliken charges with hydrogens summed into heavy atoms:
               1
     2  C    0.000001
     5  C   -0.000001
 Charge=             -0.0000 electrons
 Dipole moment (field-independent basis, Debye):
    X=              0.0000    Y=             -0.0000    Z=              0.0000  Tot=              0.0000
 N-N= 3.420423674547D+01 E-N=-5.087497239514D+01  KE=-8.473179584670D+00
 Calling FoFJK, ICntrl=      2127 FMM=F ISym2X=0 I1Cent= 0 IOpClX= 0 NMat=1 NMatS=1 NMatT=0.
 ***** Axes restored to original set *****
 -------------------------------------------------------------------
 Center     Atomic                   Forces (Hartrees/Bohr)
 Number     Number              X              Y              Z
 -------------------------------------------------------------------
      1        1           0.001124000    0.012594914   -0.008038982
      2        6           0.026227564   -0.000468845    0.009526683
      3        1           0.000406517   -0.013096738   -0.007179790
      4        1          -0.006826664    0.000626095    0.013298522
      5        6          -0.026244513    0.000479297   -0.009504875
      6        1          -0.001120065   -0.012603411    0.008034011
      7        1           0.006848785   -0.000614890   -0.013325692
      8        1          -0.000415625    0.013083577    0.007190123
 -------------------------------------------------------------------
 Cartesian Forces:  Max     0.026244513 RMS     0.010996912

 GradGradGradGradGradGradGradGradGradGradGradGradGradGradGradGradGradGrad
 Berny optimization.
 FormGI is forming the generalized inverse of G from B-inverse, IUseBI=4.
 Internal  Forces:  Max     0.022273316 RMS     0.008283749
 Search for a local minimum.
 Step number   1 out of a maximum of   38
 All quantities printed in internal units (Hartrees-Bohrs-Radians)
 Mixed Optimization -- RFO/linear search
 Second derivative matrix not updated -- first step.
 ITU=  0
     Eigenvalues ---    0.00369   0.05449   0.05450   0.05451   0.05451
     Eigenvalues ---    0.16000   0.16000   0.16000   0.16000   0.16000
     Eigenvalues ---    0.16000   0.29423   0.34090   0.34091   0.34096
     Eigenvalues ---    0.34099   0.34100   0.34101
 RFO step:  Lambda=-6.26337764D-03 EMin= 3.69078754D-03
 Linear search not attempted -- first point.
 Iteration  1 RMS(Cart)=  0.03996910 RMS(Int)=  0.00050376
 Iteration  2 RMS(Cart)=  0.00067209 RMS(Int)=  0.00014604
 Iteration  3 RMS(Cart)=  0.00000022 RMS(Int)=  0.00014604
 Variable       Old X    -DE/DX   Delta X   Delta X   Delta X     New X
                                 (Linear)    (Quad)   (Total)
    R1        2.07163   0.01453   0.00000   0.04184   0.04184   2.11347
    R2        2.07176   0.01448   0.00000   0.04172   0.04172   2.11348
    R3        2.07168   0.01450   0.00000   0.04177   0.04177   2.11345
    R4        2.89128  -0.02227   0.00000  -0.07412  -0.07412   2.81716
    R5        2.07162   0.01453   0.00000   0.04185   0.04185   2.11347
    R6        2.07159   0.01454   0.00000   0.04186   0.04186   2.11346
    R7        2.07178   0.01448   0.00000   0.04170   0.04170   2.11348
    A1        1.87552   0.00379   0.00000   0.02287   0.02265   1.89817
    A2        1.87564   0.00379   0.00000   0.02278   0.02256   1.89820
    A3        1.94449  -0.00355   0.00000  -0.02132  -0.02155   1.92294
    A4        1.87560   0.00379   0.00000   0.02280   0.02258   1.89817
    A5        1.94442  -0.00354   0.00000  -0.02128  -0.02151   1.92291
    A6        1.94458  -0.00356   0.00000  -0.02143  -0.02166   1.92292
    A7        1.94447  -0.00354   0.00000  -0.02132  -0.02154   1.92293
    A8        1.94458  -0.00356   0.00000  -0.02142  -0.02165   1.92293
    A9        1.94445  -0.00355   0.00000  -0.02132  -0.02154   1.92291
   A10        1.87563   0.00379   0.00000   0.02280   0.02258   1.89821
   A11        1.87555   0.00379   0.00000   0.02284   0.02262   1.89817
   A12        1.87556   0.00380   0.00000   0.02283   0.02261   1.89817
    D1       -3.14049  -0.00000   0.00000  -0.00012  -0.00012  -3.14061
    D2       -1.04600  -0.00001   0.00000  -0.00017  -0.00017  -1.04617
    D3        1.04839  -0.00001   0.00000  -0.00019  -0.00019   1.04820
    D4       -1.04624   0.00001   0.00000   0.00001   0.00001  -1.04623
    D5        1.04826   0.00000   0.00000  -0.00004  -0.00004   1.04821
    D6       -3.14054   0.00000   0.00000  -0.00006  -0.00006  -3.14060
    D7        1.04817   0.00000   0.00000  -0.00003  -0.00003   1.04814
    D8       -3.14052  -0.00000   0.00000  -0.00008  -0.00008  -3.14060
    D9       -1.04613  -0.00000   0.00000  -0.00010  -0.00010  -1.04623
         Item               Value     Threshold  Converged?
 Maximum Force            0.022273     0.000450     NO 
 RMS     Force            0.008284     0.000300     NO 
 Maximum Displacement     0.073808     0.001800     NO 
 RMS     Displacement     0.040474     0.001200     NO 
 Predicted change in Energy=-3.200003D-03
 GradGradGradGradGradGradGradGradGradGradGradGradGradGradGradGradGradGrad

                          Input orientation:                          
 ---------------------------------------------------------------------
 Center     Atomic      Atomic             Coordinates (Angstroms)
 Number     Number       Type             X           Y           Z
 ---------------------------------------------------------------------
      1          1           0        0.577384    1.790769   -0.005319
      2          6           0        0.735039    0.897685    0.649174
      3          1           0        0.526189   -0.025806    0.053876
      4          1           0        0.014334    0.945802    1.503028
      5          6           0        2.135663    0.874812    1.159222
      6          1           0        2.293597   -0.018825    1.812894
      7          1           0        2.856409    0.827738    0.305342
      8          1           0        2.344185    1.797823    1.755382
 ---------------------------------------------------------------------
                    Distance matrix (angstroms):
                    1          2          3          4          5
     1  H    0.000000
     2  C    1.118398   0.000000
     3  H    1.818260   1.118407   0.000000
     4  H    1.818269   1.118390   1.818256   0.000000
     5  C    2.150201   1.490778   2.150188   2.150181   0.000000
     6  H    3.086408   2.150195   2.493577   2.494306   1.118399
     7  H    2.493571   2.150192   2.494334   3.086386   1.118393
     8  H    2.494334   2.150184   3.086398   2.493557   1.118408
                    6          7          8
     6  H    0.000000
     7  H    1.818279   0.000000
     8  H    1.818262   1.818256   0.000000
 Stoichiometry    C2H6
 Framework group  C1[X(C2H6)]
 Deg. of freedom    18
 Full point group                 C1      NOp   1
 Largest Abelian subgroup         C1      NOp   1
 Largest concise Abelian subgroup C1      NOp   1
                         Standard orientation:                         
 ---------------------------------------------------------------------
 Center     Atomic      Atomic             Coordinates (Angstroms)
 Number     Number       Type             X           Y           Z
 ---------------------------------------------------------------------
      1          1           0       -1.131135   -0.967479   -0.407433
      2          6           0       -0.745389    0.000000   -0.000006
      3          1           0       -1.131121    0.130889    1.041586
      4          1           0       -1.131108    0.836602   -0.634130
      5          6           0        0.745389   -0.000001    0.000007
      6          1           0        1.131125    0.967084    0.408384
      7          1           0        1.131122   -0.837231    0.633299
      8          1           0        1.131115   -0.129858   -1.041717
 ---------------------------------------------------------------------
 Rotational constants (GHZ):     75.8382632     20.7096124     20.7095443
 Standard basis: VSTO-6G (5D, 7F)
 There are    14 symmetry adapted cartesian basis functions of A   symmetry.
 There are    14 symmetry adapted basis functions of A   symmetry.
    14 basis functions,    84 primitive gaussians,    14 cartesian basis functions
     7 alpha electrons        7 beta electrons
       nuclear repulsion energy        34.2163653738 Hartrees.
 Integral buffers will be    131072 words long.
 Regular integral format.
 Two-electron integral symmetry is turned off.
 Do NDO integrals.
 One-electron integrals computed using PRISM.
 NBasis=    14 RedAO= F EigKep=  0.00D+00  NBF=    14
 NBsUse=    14 1.00D-04 EigRej=  0.00D+00 NBFU=    14
 Initial guess from the checkpoint file:  "ethane-opt.chk"
 B after Tr=     0.000000   -0.000000    0.000000
         Rot=    0.875510    0.483201   -0.000002    0.000012 Ang=  57.79 deg.
 Overlap will be assumed to be unity.
 Keep J ints in memory in canonical form, NReq=885605.
 Requested convergence on RMS density matrix=1.00D-08 within 128 cycles.
 Requested convergence on MAX density matrix=1.00D-06.
 Requested convergence on             energy=1.00D-06.
 No special actions if energy rises.
 SCF Done:  E(RAM1) = -0.276071142757E-01 A.U. after    8 cycles
            NFock=  7  Conv=0.82D-08     -V/T= 0.9967
 Calling FoFJK, ICntrl=      2127 FMM=F ISym2X=0 I1Cent= 0 IOpClX= 0 NMat=1 NMatS=1 NMatT=0.
 ***** Axes restored to original set *****
 -------------------------------------------------------------------
 Center     Atomic                   Forces (Hartrees/Bohr)
 Number     Number              X              Y              Z
 -------------------------------------------------------------------
      1        1          -0.001686497   -0.001098679    0.000144870
      2        6          -0.005926879    0.000088337   -0.002166213
      3        1          -0.001620728    0.001204366    0.000067559
      4        1          -0.000977301   -0.000030062   -0.001764892
      5        6           0.005927546   -0.000087698    0.002166042
      6        1           0.001686206    0.001101760   -0.000142157
      7        1           0.000975220    0.000024715    0.001766311
      8        1           0.001622433   -0.001202741   -0.000071520
 -------------------------------------------------------------------
 Cartesian Forces:  Max     0.005927546 RMS     0.002082880

 GradGradGradGradGradGradGradGradGradGradGradGradGradGradGradGradGradGrad
 Berny optimization.
 Using GEDIIS/GDIIS optimizer.
 FormGI is forming the generalized inverse of G from B-inverse, IUseBI=4.
 Internal  Forces:  Max     0.010868681 RMS     0.002447033
 Search for a local minimum.
 Step number   2 out of a maximum of   38
 All quantities printed in internal units (Hartrees-Bohrs-Radians)
 Mixed Optimization -- RFO/linear search
 Update second derivatives using D2CorX and points    1    2
 DE= -2.38D-03 DEPred=-3.20D-03 R= 7.45D-01
 TightC=F SS=  1.41D+00  RLast= 1.48D-01 DXNew= 5.0454D-01 4.4324D-01
 Trust test= 7.45D-01 RLast= 1.48D-01 DXMaxT set to 4.43D-01
 ITU=  1  0
 Use linear search instead of GDIIS.
     Eigenvalues ---    0.00369   0.05676   0.05676   0.05677   0.05677
     Eigenvalues ---    0.16000   0.16000   0.16000   0.16000   0.16000
     Eigenvalues ---    0.17411   0.30022   0.34091   0.34093   0.34097
     Eigenvalues ---    0.34099   0.34101   0.38954
 RFO step:  Lambda=-2.11327591D-04 EMin= 3.69078708D-03
 Quartic linear search produced a step of -0.19344.
 Iteration  1 RMS(Cart)=  0.01501527 RMS(Int)=  0.00004193
 Iteration  2 RMS(Cart)=  0.00003368 RMS(Int)=  0.00000393
 Iteration  3 RMS(Cart)=  0.00000000 RMS(Int)=  0.00000393
 Variable       Old X    -DE/DX   Delta X   Delta X   Delta X     New X
                                 (Linear)    (Quad)   (Total)
    R1        2.11347  -0.00072  -0.00809   0.00800  -0.00009   2.11338
    R2        2.11348  -0.00073  -0.00807   0.00797  -0.00010   2.11338
    R3        2.11345  -0.00072  -0.00808   0.00800  -0.00008   2.11337
    R4        2.81716   0.01087   0.01434   0.01251   0.02685   2.84401
    R5        2.11347  -0.00073  -0.00810   0.00800  -0.00009   2.11338
    R6        2.11346  -0.00072  -0.00810   0.00802  -0.00008   2.11337
    R7        2.11348  -0.00073  -0.00807   0.00796  -0.00011   2.11338
    A1        1.89817  -0.00199  -0.00438  -0.00471  -0.00908   1.88909
    A2        1.89820  -0.00199  -0.00436  -0.00475  -0.00910   1.88910
    A3        1.92294   0.00194   0.00417   0.00460   0.00877   1.93171
    A4        1.89817  -0.00199  -0.00437  -0.00472  -0.00909   1.88909
    A5        1.92291   0.00194   0.00416   0.00463   0.00880   1.93171
    A6        1.92292   0.00194   0.00419   0.00459   0.00879   1.93171
    A7        1.92293   0.00194   0.00417   0.00461   0.00878   1.93171
    A8        1.92293   0.00194   0.00419   0.00458   0.00878   1.93171
    A9        1.92291   0.00194   0.00417   0.00463   0.00880   1.93171
   A10        1.89821  -0.00199  -0.00437  -0.00475  -0.00911   1.88910
   A11        1.89817  -0.00199  -0.00438  -0.00471  -0.00908   1.88909
   A12        1.89817  -0.00199  -0.00437  -0.00471  -0.00908   1.88909
    D1       -3.14061  -0.00000   0.00002  -0.00028  -0.00026  -3.14087
    D2       -1.04617  -0.00000   0.00003  -0.00032  -0.00029  -1.04646
    D3        1.04820  -0.00000   0.00004  -0.00031  -0.00027   1.04793
    D4       -1.04623  -0.00000  -0.00000  -0.00024  -0.00025  -1.04648
    D5        1.04821  -0.00000   0.00001  -0.00029  -0.00028   1.04793
    D6       -3.14060  -0.00000   0.00001  -0.00027  -0.00026  -3.14086
    D7        1.04814   0.00000   0.00001  -0.00024  -0.00023   1.04791
    D8       -3.14060  -0.00000   0.00002  -0.00028  -0.00026  -3.14086
    D9       -1.04623  -0.00000   0.00002  -0.00027  -0.00025  -1.04648
         Item               Value     Threshold  Converged?
 Maximum Force            0.010869     0.000450     NO 
 RMS     Force            0.002447     0.000300     NO 
 Maximum Displacement     0.030277     0.001800     NO 
 RMS     Displacement     0.015012     0.001200     NO 
 Predicted change in Energy=-2.521753D-04
 GradGradGradGradGradGradGradGradGradGradGradGradGradGradGradGradGradGrad

                          Input orientation:                          
 ---------------------------------------------------------------------
 Center     Atomic      Atomic             Coordinates (Angstroms)
 Number     Number       Type             X           Y           Z
 ---------------------------------------------------------------------
      1          1           0        0.561362    1.788155   -0.009050
      2          6           0        0.728364    0.897787    0.646742
      3          1           0        0.510414   -0.022417    0.049722
      4          1           0        0.000198    0.945779    1.494192
      5          6           0        2.142336    0.874712    1.161657
      6          1           0        2.309549   -0.016061    1.816845
      7          1           0        2.870528    0.827483    0.314184
      8          1           0        2.360049    1.794562    1.759309
 ---------------------------------------------------------------------
                    Distance matrix (angstroms):
                    1          2          3          4          5
     1  H    0.000000
     2  C    1.118350   0.000000
     3  H    1.812241   1.118352   0.000000
     4  H    1.812247   1.118347   1.812240   0.000000
     5  C    2.168966   1.504987   2.168965   2.168959   0.000000
     6  H    3.105680   2.168964   2.521835   2.522368   1.118350
     7  H    2.521828   2.168963   2.522381   3.105673   1.118349
     8  H    2.522381   2.168964   3.105680   2.521828   1.118352
                    6          7          8
     6  H    0.000000
     7  H    1.812251   0.000000
     8  H    1.812241   1.812241   0.000000
 Stoichiometry    C2H6
 Framework group  C1[X(C2H6)]
 Deg. of freedom    18
 Full point group                 C1      NOp   1
 Largest Abelian subgroup         C1      NOp   1
 Largest concise Abelian subgroup C1      NOp   1
                         Standard orientation:                         
 ---------------------------------------------------------------------
 Center     Atomic      Atomic             Coordinates (Angstroms)
 Number     Number       Type             X           Y           Z
 ---------------------------------------------------------------------
      1          1           0       -1.147419   -0.926512   -0.486124
      2          6           0       -0.752494    0.000000   -0.000002
      3          1           0       -1.147421    0.042259    1.045444
      4          1           0       -1.147411    0.884256   -0.559317
      5          6           0        0.752494   -0.000001    0.000003
      6          1           0        1.147417    0.926161    0.486796
      7          1           0        1.147415   -0.884664    0.558672
      8          1           0        1.147419   -0.041498   -1.045475
 ---------------------------------------------------------------------
 Rotational constants (GHZ):     76.3429365     20.3281530     20.3281209
 Standard basis: VSTO-6G (5D, 7F)
 There are    14 symmetry adapted cartesian basis functions of A   symmetry.
 There are    14 symmetry adapted basis functions of A   symmetry.
    14 basis functions,    84 primitive gaussians,    14 cartesian basis functions
     7 alpha electrons        7 beta electrons
       nuclear repulsion energy        34.1369305832 Hartrees.
 Integral buffers will be    131072 words long.
 Regular integral format.
 Two-electron integral symmetry is turned off.
 Do NDO integrals.
 One-electron integrals computed using PRISM.
 NBasis=    14 RedAO= F EigKep=  0.00D+00  NBF=    14
 NBsUse=    14 1.00D-04 EigRej=  0.00D+00 NBFU=    14
 Initial guess from the checkpoint file:  "ethane-opt.chk"
 B after Tr=     0.000000    0.000000   -0.000000
         Rot=    0.999108   -0.042225    0.000001   -0.000001 Ang=  -4.84 deg.
 Overlap will be assumed to be unity.
 Keep J ints in memory in canonical form, NReq=885605.
 Requested convergence on RMS density matrix=1.00D-08 within 128 cycles.
 Requested convergence on MAX density matrix=1.00D-06.
 Requested convergence on             energy=1.00D-06.
 No special actions if energy rises.
 SCF Done:  E(RAM1) = -0.277972563512E-01 A.U. after    8 cycles
            NFock=  7  Conv=0.76D-08     -V/T= 0.9967
 Calling FoFJK, ICntrl=      2127 FMM=F ISym2X=0 I1Cent= 0 IOpClX= 0 NMat=1 NMatS=1 NMatT=0.
 ***** Axes restored to original set *****
 -------------------------------------------------------------------
 Center     Atomic                   Forces (Hartrees/Bohr)
 Number     Number              X              Y              Z
 -------------------------------------------------------------------
      1        1           0.000231646   -0.000833417    0.000642548
      2        6           0.002551230   -0.000043442    0.000927024
      3        1           0.000280345    0.000860769    0.000585680
      4        1           0.000755599   -0.000046567   -0.000764284
      5        6          -0.002550695    0.000043565   -0.000927471
      6        1          -0.000232135    0.000835149   -0.000640675
      7        1          -0.000756650    0.000043417    0.000765274
      8        1          -0.000279340   -0.000859475   -0.000588097
 -------------------------------------------------------------------
 Cartesian Forces:  Max     0.002551230 RMS     0.000950954

 GradGradGradGradGradGradGradGradGradGradGradGradGradGradGradGradGradGrad
 Berny optimization.
 Using GEDIIS/GDIIS optimizer.
 FormGI is forming the generalized inverse of G from B-inverse, IUseBI=4.
 Internal  Forces:  Max     0.004064739 RMS     0.000916636
 Search for a local minimum.
 Step number   3 out of a maximum of   38
 All quantities printed in internal units (Hartrees-Bohrs-Radians)
 Mixed Optimization -- En-DIIS/RFO-DIIS
 Update second derivatives using D2CorX and points    1    2    3
 DE= -1.90D-04 DEPred=-2.52D-04 R= 7.54D-01
 TightC=F SS=  1.41D+00  RLast= 4.10D-02 DXNew= 7.4545D-01 1.2299D-01
 Trust test= 7.54D-01 RLast= 4.10D-02 DXMaxT set to 4.43D-01
 ITU=  1  1  0
 Use linear search instead of GDIIS.
     Eigenvalues ---    0.00369   0.05584   0.05584   0.05584   0.05584
     Eigenvalues ---    0.16000   0.16000   0.16000   0.16000   0.16000
     Eigenvalues ---    0.16072   0.34091   0.34093   0.34097   0.34099
     Eigenvalues ---    0.34101   0.34495   0.50292
 RFO step:  Lambda=-2.78312995D-05 EMin= 3.69075436D-03
 Quartic linear search produced a step of -0.19302.
 Iteration  1 RMS(Cart)=  0.00265178 RMS(Int)=  0.00000481
 Iteration  2 RMS(Cart)=  0.00000049 RMS(Int)=  0.00000480
 Variable       Old X    -DE/DX   Delta X   Delta X   Delta X     New X
                                 (Linear)    (Quad)   (Total)
    R1        2.11338  -0.00107   0.00002  -0.00275  -0.00273   2.11064
    R2        2.11338  -0.00108   0.00002  -0.00276  -0.00274   2.11064
    R3        2.11337  -0.00107   0.00002  -0.00274  -0.00273   2.11064
    R4        2.84401  -0.00406  -0.00518  -0.00302  -0.00820   2.83582
    R5        2.11338  -0.00108   0.00002  -0.00275  -0.00273   2.11064
    R6        2.11337  -0.00107   0.00002  -0.00275  -0.00273   2.11064
    R7        2.11338  -0.00108   0.00002  -0.00276  -0.00274   2.11064
    A1        1.88909   0.00008   0.00175  -0.00211  -0.00035   1.88874
    A2        1.88910   0.00008   0.00176  -0.00212  -0.00036   1.88874
    A3        1.93171  -0.00008  -0.00169   0.00202   0.00034   1.93205
    A4        1.88909   0.00008   0.00175  -0.00211  -0.00035   1.88874
    A5        1.93171  -0.00008  -0.00170   0.00203   0.00034   1.93205
    A6        1.93171  -0.00008  -0.00170   0.00203   0.00034   1.93205
    A7        1.93171  -0.00008  -0.00169   0.00202   0.00034   1.93205
    A8        1.93171  -0.00008  -0.00169   0.00203   0.00034   1.93205
    A9        1.93171  -0.00008  -0.00170   0.00203   0.00034   1.93205
   A10        1.88910   0.00008   0.00176  -0.00213  -0.00036   1.88874
   A11        1.88909   0.00008   0.00175  -0.00211  -0.00035   1.88874
   A12        1.88909   0.00008   0.00175  -0.00211  -0.00035   1.88874
    D1       -3.14087  -0.00000   0.00005  -0.00010  -0.00005  -3.14092
    D2       -1.04646  -0.00000   0.00006  -0.00011  -0.00006  -1.04651
    D3        1.04793  -0.00000   0.00005  -0.00010  -0.00005   1.04788
    D4       -1.04648  -0.00000   0.00005  -0.00009  -0.00005  -1.04652
    D5        1.04793  -0.00000   0.00005  -0.00011  -0.00006   1.04788
    D6       -3.14086  -0.00000   0.00005  -0.00010  -0.00005  -3.14092
    D7        1.04791  -0.00000   0.00004  -0.00009  -0.00004   1.04787
    D8       -3.14086  -0.00000   0.00005  -0.00010  -0.00005  -3.14091
    D9       -1.04648  -0.00000   0.00005  -0.00009  -0.00005  -1.04652
         Item               Value     Threshold  Converged?
 Maximum Force            0.004065     0.000450     NO 
 RMS     Force            0.000917     0.000300     NO 
 Maximum Displacement     0.005090     0.001800     NO 
 RMS     Displacement     0.002652     0.001200     NO 
 Predicted change in Energy=-2.516670D-05
 GradGradGradGradGradGradGradGradGradGradGradGradGradGradGradGradGradGrad

                          Input orientation:                          
 ---------------------------------------------------------------------
 Center     Atomic      Atomic             Coordinates (Angstroms)
 Number     Number       Type             X           Y           Z
 ---------------------------------------------------------------------
      1          1           0        0.563252    1.786876   -0.007491
      2          6           0        0.730402    0.897753    0.647484
      3          1           0        0.512393   -0.021124    0.051153
      4          1           0        0.002886    0.945659    1.493592
      5          6           0        2.140298    0.874747    1.160916
      6          1           0        2.307647   -0.014755    1.815327
      7          1           0        2.867834    0.827548    0.314786
      8          1           0        2.358089    1.793295    1.757834
 ---------------------------------------------------------------------
                    Distance matrix (angstroms):
                    1          2          3          4          5
     1  H    0.000000
     2  C    1.116903   0.000000
     3  H    1.809666   1.116904   0.000000
     4  H    1.809670   1.116903   1.809668   0.000000
     5  C    2.164308   1.500649   2.164309   2.164309   0.000000
     6  H    3.100235   2.164308   2.517000   2.517505   1.116903
     7  H    2.516997   2.164309   2.517509   3.100236   1.116903
     8  H    2.517510   2.164310   3.100238   2.517001   1.116904
                    6          7          8
     6  H    0.000000
     7  H    1.809671   0.000000
     8  H    1.809667   1.809667   0.000000
 Stoichiometry    C2H6
 Framework group  C1[X(C2H6)]
 Deg. of freedom    18
 Full point group                 C1      NOp   1
 Largest Abelian subgroup         C1      NOp   1
 Largest concise Abelian subgroup C1      NOp   1
                         Standard orientation:                         
 ---------------------------------------------------------------------
 Center     Atomic      Atomic             Coordinates (Angstroms)
 Number     Number       Type             X           Y           Z
 ---------------------------------------------------------------------
      1          1           0       -1.145090   -0.838503   -0.623335
      2          6           0       -0.750324    0.000000   -0.000001
      3          1           0       -1.145093   -0.120574    1.037831
      4          1           0       -1.145090    0.959076   -0.414496
      5          6           0        0.750324   -0.000000    0.000001
      6          1           0        1.145089    0.838081    0.623903
      7          1           0        1.145091   -0.959357    0.413845
      8          1           0        1.145093    0.121277   -1.037749
 ---------------------------------------------------------------------
 Rotational constants (GHZ):     76.5604024     20.4266509     20.4266368
 Standard basis: VSTO-6G (5D, 7F)
 There are    14 symmetry adapted cartesian basis functions of A   symmetry.
 There are    14 symmetry adapted basis functions of A   symmetry.
    14 basis functions,    84 primitive gaussians,    14 cartesian basis functions
     7 alpha electrons        7 beta electrons
       nuclear repulsion energy        34.1688079450 Hartrees.
 Integral buffers will be    131072 words long.
 Regular integral format.
 Two-electron integral symmetry is turned off.
 Do NDO integrals.
 One-electron integrals computed using PRISM.
 NBasis=    14 RedAO= F EigKep=  0.00D+00  NBF=    14
 NBsUse=    14 1.00D-04 EigRej=  0.00D+00 NBFU=    14
 Initial guess from the checkpoint file:  "ethane-opt.chk"
 B after Tr=     0.000000   -0.000000    0.000000
         Rot=    0.996958   -0.077938   -0.000000   -0.000001 Ang=  -8.94 deg.
 Overlap will be assumed to be unity.
 Keep J ints in memory in canonical form, NReq=885605.
 Requested convergence on RMS density matrix=1.00D-08 within 128 cycles.
 Requested convergence on MAX density matrix=1.00D-06.
 Requested convergence on             energy=1.00D-06.
 No special actions if energy rises.
 SCF Done:  E(RAM1) = -0.278223423750E-01 A.U. after    7 cycles
            NFock=  7  Conv=0.28D-08     -V/T= 0.9967
 Calling FoFJK, ICntrl=      2127 FMM=F ISym2X=0 I1Cent= 0 IOpClX= 0 NMat=1 NMatS=1 NMatT=0.
 ***** Axes restored to original set *****
 -------------------------------------------------------------------
 Center     Atomic                   Forces (Hartrees/Bohr)
 Number     Number              X              Y              Z
 -------------------------------------------------------------------
      1        1          -0.000050192    0.000087399   -0.000074594
      2        6           0.000349719   -0.000006195    0.000126777
      3        1          -0.000054209   -0.000087781   -0.000070532
      4        1          -0.000104034    0.000004365    0.000069684
      5        6          -0.000349707    0.000006363   -0.000126761
      6        1           0.000049692   -0.000086339    0.000076186
      7        1           0.000103987   -0.000006461   -0.000069657
      8        1           0.000054745    0.000088649    0.000068898
 -------------------------------------------------------------------
 Cartesian Forces:  Max     0.000349719 RMS     0.000124314

 GradGradGradGradGradGradGradGradGradGradGradGradGradGradGradGradGradGrad
 Berny optimization.
 Using GEDIIS/GDIIS optimizer.
 FormGI is forming the generalized inverse of G from B-inverse, IUseBI=4.
 Internal  Forces:  Max     0.000150337 RMS     0.000066614
 Search for a local minimum.
 Step number   4 out of a maximum of   38
 All quantities printed in internal units (Hartrees-Bohrs-Radians)
 Mixed Optimization -- En-DIIS/RFO-DIIS
 Swapping is turned off.
 Update second derivatives using D2CorX and points    1    2    3    4
 DE= -2.51D-05 DEPred=-2.52D-05 R= 9.97D-01
 TightC=F SS=  1.41D+00  RLast= 1.07D-02 DXNew= 7.4545D-01 3.1964D-02
 Trust test= 9.97D-01 RLast= 1.07D-02 DXMaxT set to 4.43D-01
 ITU=  1  1  1  0
     Eigenvalues ---    0.00369   0.05581   0.05581   0.05581   0.05581
     Eigenvalues ---    0.14928   0.16000   0.16000   0.16000   0.16000
     Eigenvalues ---    0.16000   0.34091   0.34093   0.34097   0.34099
     Eigenvalues ---    0.34101   0.37723   0.48883
 En-DIIS/RFO-DIIS IScMMF=        0 using points:     4    3
 RFO step:  Lambda=-2.29285144D-07.
 DidBck=F Rises=F RFO-DIIS coefs:    0.98823    0.01177
 Iteration  1 RMS(Cart)=  0.00021681 RMS(Int)=  0.00000004
 Iteration  2 RMS(Cart)=  0.00000004 RMS(Int)=  0.00000002
 Variable       Old X    -DE/DX   Delta X   Delta X   Delta X     New X
                                 (Linear)    (Quad)   (Total)
    R1        2.11064   0.00012   0.00003   0.00030   0.00034   2.11098
    R2        2.11064   0.00012   0.00003   0.00030   0.00033   2.11098
    R3        2.11064   0.00012   0.00003   0.00030   0.00034   2.11098
    R4        2.83582  -0.00015   0.00010  -0.00065  -0.00056   2.83526
    R5        2.11064   0.00012   0.00003   0.00030   0.00034   2.11098
    R6        2.11064   0.00012   0.00003   0.00030   0.00034   2.11098
    R7        2.11064   0.00012   0.00003   0.00030   0.00033   2.11098
    A1        1.88874  -0.00004   0.00000  -0.00029  -0.00029   1.88845
    A2        1.88874  -0.00004   0.00000  -0.00029  -0.00029   1.88845
    A3        1.93205   0.00003  -0.00000   0.00028   0.00028   1.93233
    A4        1.88874  -0.00004   0.00000  -0.00029  -0.00029   1.88845
    A5        1.93205   0.00003  -0.00000   0.00028   0.00028   1.93233
    A6        1.93205   0.00003  -0.00000   0.00028   0.00027   1.93233
    A7        1.93205   0.00003  -0.00000   0.00028   0.00028   1.93233
    A8        1.93205   0.00003  -0.00000   0.00028   0.00027   1.93233
    A9        1.93205   0.00003  -0.00000   0.00028   0.00028   1.93233
   A10        1.88874  -0.00004   0.00000  -0.00030  -0.00029   1.88845
   A11        1.88874  -0.00004   0.00000  -0.00029  -0.00029   1.88845
   A12        1.88874  -0.00004   0.00000  -0.00029  -0.00029   1.88845
    D1       -3.14092  -0.00000   0.00000  -0.00019  -0.00019  -3.14110
    D2       -1.04651  -0.00000   0.00000  -0.00019  -0.00019  -1.04671
    D3        1.04788  -0.00000   0.00000  -0.00019  -0.00019   1.04769
    D4       -1.04652  -0.00000   0.00000  -0.00019  -0.00019  -1.04671
    D5        1.04788  -0.00000   0.00000  -0.00019  -0.00019   1.04769
    D6       -3.14092  -0.00000   0.00000  -0.00019  -0.00019  -3.14110
    D7        1.04787  -0.00000   0.00000  -0.00019  -0.00018   1.04769
    D8       -3.14091  -0.00000   0.00000  -0.00019  -0.00019  -3.14110
    D9       -1.04652  -0.00000   0.00000  -0.00019  -0.00019  -1.04671
         Item               Value     Threshold  Converged?
 Maximum Force            0.000150     0.000450     YES
 RMS     Force            0.000067     0.000300     YES
 Maximum Displacement     0.000403     0.001800     YES
 RMS     Displacement     0.000217     0.001200     YES
 Predicted change in Energy=-2.220478D-07
 Optimization completed.
    -- Stationary point found.
                           ----------------------------
                           !   Optimized Parameters   !
                           ! (Angstroms and Degrees)  !
 --------------------------                            --------------------------
 ! Name  Definition              Value          Derivative Info.                !
 --------------------------------------------------------------------------------
 ! R1    R(1,2)                  1.1169         -DE/DX =    0.0001              !
 ! R2    R(2,3)                  1.1169         -DE/DX =    0.0001              !
 ! R3    R(2,4)                  1.1169         -DE/DX =    0.0001              !
 ! R4    R(2,5)                  1.5006         -DE/DX =   -0.0002              !
 ! R5    R(5,6)                  1.1169         -DE/DX =    0.0001              !
 ! R6    R(5,7)                  1.1169         -DE/DX =    0.0001              !
 ! R7    R(5,8)                  1.1169         -DE/DX =    0.0001              !
 ! A1    A(1,2,3)              108.2166         -DE/DX =    0.0                 !
 ! A2    A(1,2,4)              108.217          -DE/DX =    0.0                 !
 ! A3    A(1,2,5)              110.6983         -DE/DX =    0.0                 !
 ! A4    A(3,2,4)              108.2167         -DE/DX =    0.0                 !
 ! A5    A(3,2,5)              110.6983         -DE/DX =    0.0                 !
 ! A6    A(4,2,5)              110.6983         -DE/DX =    0.0                 !
 ! A7    A(2,5,6)              110.6983         -DE/DX =    0.0                 !
 ! A8    A(2,5,7)              110.6983         -DE/DX =    0.0                 !
 ! A9    A(2,5,8)              110.6983         -DE/DX =    0.0                 !
 ! A10   A(6,5,7)              108.217          -DE/DX =    0.0                 !
 ! A11   A(6,5,8)              108.2166         -DE/DX =    0.0                 !
 ! A12   A(7,5,8)              108.2166         -DE/DX =    0.0                 !
 ! D1    D(1,2,5,6)           -179.9612         -DE/DX =    0.0                 !
 ! D2    D(1,2,5,7)            -59.9609         -DE/DX =    0.0                 !
 ! D3    D(1,2,5,8)             60.039          -DE/DX =    0.0                 !
 ! D4    D(3,2,5,6)            -59.9614         -DE/DX =    0.0                 !
 ! D5    D(3,2,5,7)             60.0389         -DE/DX =    0.0                 !
 ! D6    D(3,2,5,8)           -179.9612         -DE/DX =    0.0                 !
 ! D7    D(4,2,5,6)             60.0385         -DE/DX =    0.0                 !
 ! D8    D(4,2,5,7)           -179.9611         -DE/DX =    0.0                 !
 ! D9    D(4,2,5,8)            -59.9612         -DE/DX =    0.0                 !
 --------------------------------------------------------------------------------
 GradGradGradGradGradGradGradGradGradGradGradGradGradGradGradGradGradGrad

                          Input orientation:                          
 ---------------------------------------------------------------------
 Center     Atomic      Atomic             Coordinates (Angstroms)
 Number     Number       Type             X           Y           Z
 ---------------------------------------------------------------------
      1          1           0        0.563252    1.786876   -0.007491
      2          6           0        0.730402    0.897753    0.647484
      3          1           0        0.512393   -0.021124    0.051153
      4          1           0        0.002886    0.945659    1.493592
      5          6           0        2.140298    0.874747    1.160916
      6          1           0        2.307647   -0.014755    1.815327
      7          1           0        2.867834    0.827548    0.314786
      8          1           0        2.358089    1.793295    1.757834
 ---------------------------------------------------------------------
                    Distance matrix (angstroms):
                    1          2          3          4          5
     1  H    0.000000
     2  C    1.116903   0.000000
     3  H    1.809666   1.116904   0.000000
     4  H    1.809670   1.116903   1.809668   0.000000
     5  C    2.164308   1.500649   2.164309   2.164309   0.000000
     6  H    3.100235   2.164308   2.517000   2.517505   1.116903
     7  H    2.516997   2.164309   2.517509   3.100236   1.116903
     8  H    2.517510   2.164310   3.100238   2.517001   1.116904
                    6          7          8
     6  H    0.000000
     7  H    1.809671   0.000000
     8  H    1.809667   1.809667   0.000000
 Stoichiometry    C2H6
 Framework group  C1[X(C2H6)]
 Deg. of freedom    18
 Full point group                 C1      NOp   1
 Largest Abelian subgroup         C1      NOp   1
 Largest concise Abelian subgroup C1      NOp   1
                         Standard orientation:                         
 ---------------------------------------------------------------------
 Center     Atomic      Atomic             Coordinates (Angstroms)
 Number     Number       Type             X           Y           Z
 ---------------------------------------------------------------------
      1          1           0       -1.145090   -0.838503   -0.623335
      2          6           0       -0.750324    0.000000   -0.000001
      3          1           0       -1.145093   -0.120574    1.037831
      4          1           0       -1.145090    0.959076   -0.414496
      5          6           0        0.750324   -0.000000    0.000001
      6          1           0        1.145089    0.838081    0.623903
      7          1           0        1.145091   -0.959357    0.413845
      8          1           0        1.145093    0.121277   -1.037749
 ---------------------------------------------------------------------
 Rotational constants (GHZ):     76.5604024     20.4266509     20.4266368

 **********************************************************************

            Population analysis using the SCF density.

 **********************************************************************

 Orbital symmetries:
       Occupied  (A) (A) (A) (A) (A) (A) (A)
       Virtual   (A) (A) (A) (A) (A) (A) (A)
 The electronic state is 1-A.
 Alpha  occ. eigenvalues --   -1.22049  -0.86715  -0.54700  -0.54700  -0.48322
 Alpha  occ. eigenvalues --   -0.43248  -0.43248
 Alpha virt. eigenvalues --    0.15140   0.15140   0.17148   0.18172   0.18521
 Alpha virt. eigenvalues --    0.18521   0.19282
          Condensed to atoms (all electrons):
               1          2          3          4          5          6
     1  H    0.929383   0.000000   0.000000   0.000000   0.000000   0.000000
     2  C    0.000000   4.211852   0.000000   0.000000   0.000000   0.000000
     3  H    0.000000   0.000000   0.929383   0.000000   0.000000   0.000000
     4  H    0.000000   0.000000   0.000000   0.929383   0.000000   0.000000
     5  C    0.000000   0.000000   0.000000   0.000000   4.211852   0.000000
     6  H    0.000000   0.000000   0.000000   0.000000   0.000000   0.929383
     7  H    0.000000   0.000000   0.000000   0.000000   0.000000   0.000000
     8  H    0.000000   0.000000   0.000000   0.000000   0.000000   0.000000
               7          8
     1  H    0.000000   0.000000
     2  C    0.000000   0.000000
     3  H    0.000000   0.000000
     4  H    0.000000   0.000000
     5  C    0.000000   0.000000
     6  H    0.000000   0.000000
     7  H    0.929383   0.000000
     8  H    0.000000   0.929383
 Mulliken charges:
               1
     1  H    0.070617
     2  C   -0.211852
     3  H    0.070617
     4  H    0.070617
     5  C   -0.211852
     6  H    0.070617
     7  H    0.070617
     8  H    0.070617
 Sum of Mulliken charges =   0.00000
 Mulliken charges with hydrogens summed into heavy atoms:
               1
     2  C    0.000000
     5  C   -0.000000
 Charge=              0.0000 electrons
 Dipole moment (field-independent basis, Debye):
    X=              0.0000    Y=             -0.0000    Z=             -0.0000  Tot=              0.0000
 N-N= 3.416880794500D+01 E-N=-5.089028306059D+01  KE=-8.443354517984D+00
 1\1\GINC-GTX1080DELTA\FOpt\RAM1\ZDO\C2H6\MVEROT\16-Apr-2022\0\\#n AM1 
 Opt freq\\Optimisation de geometrie\\0,1\H,0.5632516425,1.7868762861,-
 0.0074914002\C,0.7304021955,0.8977528623,0.6474842992\H,0.5123925522,-
 0.0211243997,0.0511529664\H,0.0028856735,0.9456594463,1.4935916015\C,2
 .1402977588,0.8747469248,1.160915734\H,2.3076471013,-0.014754526,1.815
 3270594\H,2.8678342059,0.8275483508,0.3147858391\H,2.3580888702,1.7932
 950554,1.7578339006\\Version=AM64L-G09RevD.01\State=1-A\HF=-0.0278223\
 RMSD=2.786e-09\RMSF=1.243e-04\Dipole=0.,0.,0.\PG=C01 [X(C2H6)]\\@


 The mind is not a vessel to be filled but a fire to be kindled.
                                  -- Plutarch
 Job cpu time:       0 days  0 hours  0 minutes  2.5 seconds.
 File lengths (MBytes):  RWF=     72 Int=      0 D2E=      0 Chk=      2 Scr=      2
 Normal termination of Gaussian 09 at Sat Apr 16 12:12:33 2022.
 Link1:  Proceeding to internal job step number  2.
 -------------------------------------------------------------
 #N Geom=AllCheck Guess=TCheck SCRF=Check GenChk RAM1/ZDO Freq
 -------------------------------------------------------------
 1/10=4,29=7,30=1,38=1,40=1/1,3;
 2/12=2,40=1/2;
 3/5=2,14=-4,16=1,25=1,41=700000,70=2,71=2,116=1,135=40,140=1/1,2,3;
 4/5=101,35=1/1;
 5/5=2,35=1,98=1/2;
 8/6=4,10=90,11=11/1;
 11/6=1,8=1,9=11,15=111,16=1/1,2,10;
 10/6=1/2;
 6/7=2,8=2,9=2,10=2,18=1,28=1/1;
 7/8=1,10=1,25=1/1,2,3,16;
 1/10=4,30=1/3;
 99//99;
 Structure from the checkpoint file:  "ethane-opt.chk"
 -------------------------
 Optimisation de geometrie
 -------------------------
 Charge =  0 Multiplicity = 1
 Redundant internal coordinates found in file.
 H,0,0.5632516425,1.7868762861,-0.0074914002
 C,0,0.7304021955,0.8977528623,0.6474842992
 H,0,0.5123925522,-0.0211243997,0.0511529664
 H,0,0.0028856735,0.9456594463,1.4935916015
 C,0,2.1402977588,0.8747469248,1.160915734
 H,0,2.3076471013,-0.014754526,1.8153270594
 H,0,2.8678342059,0.8275483508,0.3147858391
 H,0,2.3580888702,1.7932950554,1.7578339006
 Recover connectivity data from disk.

 GradGradGradGradGradGradGradGradGradGradGradGradGradGradGradGradGradGrad
 Berny optimization.
 Initialization pass.
                           ----------------------------
                           !    Initial Parameters    !
                           ! (Angstroms and Degrees)  !
 --------------------------                            --------------------------
 ! Name  Definition              Value          Derivative Info.                !
 --------------------------------------------------------------------------------
 ! R1    R(1,2)                  1.1169         calculate D2E/DX2 analytically  !
 ! R2    R(2,3)                  1.1169         calculate D2E/DX2 analytically  !
 ! R3    R(2,4)                  1.1169         calculate D2E/DX2 analytically  !
 ! R4    R(2,5)                  1.5006         calculate D2E/DX2 analytically  !
 ! R5    R(5,6)                  1.1169         calculate D2E/DX2 analytically  !
 ! R6    R(5,7)                  1.1169         calculate D2E/DX2 analytically  !
 ! R7    R(5,8)                  1.1169         calculate D2E/DX2 analytically  !
 ! A1    A(1,2,3)              108.2166         calculate D2E/DX2 analytically  !
 ! A2    A(1,2,4)              108.217          calculate D2E/DX2 analytically  !
 ! A3    A(1,2,5)              110.6983         calculate D2E/DX2 analytically  !
 ! A4    A(3,2,4)              108.2167         calculate D2E/DX2 analytically  !
 ! A5    A(3,2,5)              110.6983         calculate D2E/DX2 analytically  !
 ! A6    A(4,2,5)              110.6983         calculate D2E/DX2 analytically  !
 ! A7    A(2,5,6)              110.6983         calculate D2E/DX2 analytically  !
 ! A8    A(2,5,7)              110.6983         calculate D2E/DX2 analytically  !
 ! A9    A(2,5,8)              110.6983         calculate D2E/DX2 analytically  !
 ! A10   A(6,5,7)              108.217          calculate D2E/DX2 analytically  !
 ! A11   A(6,5,8)              108.2166         calculate D2E/DX2 analytically  !
 ! A12   A(7,5,8)              108.2166         calculate D2E/DX2 analytically  !
 ! D1    D(1,2,5,6)           -179.9612         calculate D2E/DX2 analytically  !
 ! D2    D(1,2,5,7)            -59.9609         calculate D2E/DX2 analytically  !
 ! D3    D(1,2,5,8)             60.039          calculate D2E/DX2 analytically  !
 ! D4    D(3,2,5,6)            -59.9614         calculate D2E/DX2 analytically  !
 ! D5    D(3,2,5,7)             60.0389         calculate D2E/DX2 analytically  !
 ! D6    D(3,2,5,8)           -179.9612         calculate D2E/DX2 analytically  !
 ! D7    D(4,2,5,6)             60.0385         calculate D2E/DX2 analytically  !
 ! D8    D(4,2,5,7)           -179.9611         calculate D2E/DX2 analytically  !
 ! D9    D(4,2,5,8)            -59.9612         calculate D2E/DX2 analytically  !
 --------------------------------------------------------------------------------
 Trust Radius=3.00D-01 FncErr=1.00D-07 GrdErr=1.00D-07
 Number of steps in this run=      2 maximum allowed number of steps=      2.
 GradGradGradGradGradGradGradGradGradGradGradGradGradGradGradGradGradGrad

                          Input orientation:                          
 ---------------------------------------------------------------------
 Center     Atomic      Atomic             Coordinates (Angstroms)
 Number     Number       Type             X           Y           Z
 ---------------------------------------------------------------------
      1          1           0        0.563252    1.786876   -0.007491
      2          6           0        0.730402    0.897753    0.647484
      3          1           0        0.512393   -0.021124    0.051153
      4          1           0        0.002886    0.945659    1.493592
      5          6           0        2.140298    0.874747    1.160916
      6          1           0        2.307647   -0.014755    1.815327
      7          1           0        2.867834    0.827548    0.314786
      8          1           0        2.358089    1.793295    1.757834
 ---------------------------------------------------------------------
                    Distance matrix (angstroms):
                    1          2          3          4          5
     1  H    0.000000
     2  C    1.116903   0.000000
     3  H    1.809666   1.116904   0.000000
     4  H    1.809670   1.116903   1.809668   0.000000
     5  C    2.164308   1.500649   2.164309   2.164309   0.000000
     6  H    3.100235   2.164308   2.517000   2.517505   1.116903
     7  H    2.516997   2.164309   2.517509   3.100236   1.116903
     8  H    2.517510   2.164310   3.100238   2.517001   1.116904
                    6          7          8
     6  H    0.000000
     7  H    1.809671   0.000000
     8  H    1.809667   1.809667   0.000000
 Stoichiometry    C2H6
 Framework group  C1[X(C2H6)]
 Deg. of freedom    18
 Full point group                 C1      NOp   1
 Largest Abelian subgroup         C1      NOp   1
 Largest concise Abelian subgroup C1      NOp   1
                         Standard orientation:                         
 ---------------------------------------------------------------------
 Center     Atomic      Atomic             Coordinates (Angstroms)
 Number     Number       Type             X           Y           Z
 ---------------------------------------------------------------------
      1          1           0       -1.145090   -0.838503   -0.623335
      2          6           0       -0.750324    0.000000   -0.000001
      3          1           0       -1.145093   -0.120574    1.037831
      4          1           0       -1.145090    0.959076   -0.414496
      5          6           0        0.750324   -0.000000    0.000001
      6          1           0        1.145089    0.838081    0.623903
      7          1           0        1.145091   -0.959357    0.413845
      8          1           0        1.145093    0.121277   -1.037749
 ---------------------------------------------------------------------
 Rotational constants (GHZ):     76.5604024     20.4266509     20.4266368
 Standard basis: VSTO-6G (5D, 7F)
 There are    14 symmetry adapted cartesian basis functions of A   symmetry.
 There are    14 symmetry adapted basis functions of A   symmetry.
    14 basis functions,    84 primitive gaussians,    14 cartesian basis functions
     7 alpha electrons        7 beta electrons
       nuclear repulsion energy        34.1688079450 Hartrees.
 Integral buffers will be    131072 words long.
 Regular integral format.
 Two-electron integral symmetry is turned off.
 Do NDO integrals.
 One-electron integrals computed using PRISM.
 NBasis=    14 RedAO= F EigKep=  0.00D+00  NBF=    14
 NBsUse=    14 1.00D-04 EigRej=  0.00D+00 NBFU=    14
 Initial guess from the checkpoint file:  "ethane-opt.chk"
 B after Tr=    -0.000000   -0.000000   -0.000000
         Rot=    1.000000   -0.000000    0.000000    0.000000 Ang=   0.00 deg.
 Overlap will be assumed to be unity.
 Keep J ints in memory in canonical form, NReq=885605.
 Requested convergence on RMS density matrix=1.00D-08 within 128 cycles.
 Requested convergence on MAX density matrix=1.00D-06.
 Requested convergence on             energy=1.00D-06.
 No special actions if energy rises.
 SCF Done:  E(RAM1) = -0.278223423750E-01 A.U. after    2 cycles
            NFock=  1  Conv=0.20D-09     -V/T= 0.9967
 Range of M.O.s used for correlation:     1    14
 NBasis=    14 NAE=     7 NBE=     7 NFC=     0 NFV=     0
 NROrb=     14 NOA=     7 NOB=     7 NVA=     7 NVB=     7
 Symmetrizing basis deriv contribution to polar:
 IMax=3 JMax=2 DiffMx= 0.00D+00
 G2DrvN: will do     9 centers at a time, making    1 passes.
 Calling FoFCou, ICntrl=  3107 FMM=F I1Cent=   0 AccDes= 0.00D+00.
 End of G2Drv F.D. properties file   721 does not exist.
 End of G2Drv F.D. properties file   722 does not exist.
 End of G2Drv F.D. properties file   788 does not exist.
          IDoAtm=11111111
          Differentiating once with respect to electric field.
                with respect to dipole field.
          Differentiating once with respect to nuclear coordinates.
          Electric field/nuclear overlap derivatives assumed to be zero.
 Keep J ints in memory in canonical form, NReq=869072.
          There are    27 degrees of freedom in the 1st order CPHF.  IDoFFX=5 NUNeed=    27.
 LinEq1:  Iter=  0 NonCon=    27 RMS=2.91D-01 Max=1.04D+00 NDo=    27
 AX will form    27 AO Fock derivatives at one time.
 LinEq1:  Iter=  1 NonCon=    27 RMS=2.55D-02 Max=1.03D-01 NDo=    27
 LinEq1:  Iter=  2 NonCon=    27 RMS=2.44D-03 Max=1.16D-02 NDo=    27
 LinEq1:  Iter=  3 NonCon=    27 RMS=2.43D-04 Max=8.76D-04 NDo=    27
 LinEq1:  Iter=  4 NonCon=    27 RMS=2.61D-05 Max=1.15D-04 NDo=    27
 LinEq1:  Iter=  5 NonCon=    27 RMS=1.76D-06 Max=6.30D-06 NDo=    27
 LinEq1:  Iter=  6 NonCon=     3 RMS=5.21D-08 Max=1.97D-07 NDo=    27
 LinEq1:  Iter=  7 NonCon=     0 RMS=1.36D-09 Max=4.53D-09 NDo=    27
 Linear equations converged to 1.000D-08 1.000D-07 after     7 iterations.
 Isotropic polarizability for W=    0.000000       17.29 Bohr**3.
 End of Minotr F.D. properties file   721 does not exist.
 End of Minotr F.D. properties file   722 does not exist.
 End of Minotr F.D. properties file   788 does not exist.

 **********************************************************************

            Population analysis using the SCF density.

 **********************************************************************

 Orbital symmetries:
       Occupied  (A) (A) (A) (A) (A) (A) (A)
       Virtual   (A) (A) (A) (A) (A) (A) (A)
 The electronic state is 1-A.
 Alpha  occ. eigenvalues --   -1.22049  -0.86715  -0.54700  -0.54700  -0.48322
 Alpha  occ. eigenvalues --   -0.43248  -0.43248
 Alpha virt. eigenvalues --    0.15140   0.15140   0.17148   0.18172   0.18521
 Alpha virt. eigenvalues --    0.18521   0.19282
          Condensed to atoms (all electrons):
               1          2          3          4          5          6
     1  H    0.929383   0.000000   0.000000   0.000000   0.000000   0.000000
     2  C    0.000000   4.211852   0.000000   0.000000   0.000000   0.000000
     3  H    0.000000   0.000000   0.929383   0.000000   0.000000   0.000000
     4  H    0.000000   0.000000   0.000000   0.929383   0.000000   0.000000
     5  C    0.000000   0.000000   0.000000   0.000000   4.211852   0.000000
     6  H    0.000000   0.000000   0.000000   0.000000   0.000000   0.929383
     7  H    0.000000   0.000000   0.000000   0.000000   0.000000   0.000000
     8  H    0.000000   0.000000   0.000000   0.000000   0.000000   0.000000
               7          8
     1  H    0.000000   0.000000
     2  C    0.000000   0.000000
     3  H    0.000000   0.000000
     4  H    0.000000   0.000000
     5  C    0.000000   0.000000
     6  H    0.000000   0.000000
     7  H    0.929383   0.000000
     8  H    0.000000   0.929383
 Mulliken charges:
               1
     1  H    0.070617
     2  C   -0.211852
     3  H    0.070617
     4  H    0.070617
     5  C   -0.211852
     6  H    0.070617
     7  H    0.070617
     8  H    0.070617
 Sum of Mulliken charges =  -0.00000
 Mulliken charges with hydrogens summed into heavy atoms:
               1
     2  C    0.000000
     5  C   -0.000000
 APT charges:
               1
     1  H    0.016747
     2  C   -0.050241
     3  H    0.016747
     4  H    0.016748
     5  C   -0.050241
     6  H    0.016747
     7  H    0.016748
     8  H    0.016747
 Sum of APT charges =   0.00000
 APT charges with hydrogens summed into heavy atoms:
               1
     2  C    0.000001
     5  C    0.000001
 Charge=             -0.0000 electrons
 Dipole moment (field-independent basis, Debye):
    X=              0.0000    Y=             -0.0000    Z=             -0.0000  Tot=              0.0000
 N-N= 3.416880794500D+01 E-N=-5.089028306154D+01  KE=-8.443354517989D+00
  Exact polarizability:  16.391   0.000  17.737  -0.000   0.000  17.737
 Approx polarizability:   9.303   0.000  10.496  -0.000   0.000  10.496
 Calling FoFJK, ICntrl=    100127 FMM=F ISym2X=0 I1Cent= 0 IOpClX= 0 NMat=1 NMatS=1 NMatT=0.
 Full mass-weighted force constant matrix:
 Low frequencies ---  -36.6676  -12.1738  -12.1562   -0.0032   -0.0003   -0.0003
 Low frequencies ---  197.9636  888.5805  888.5817
 Diagonal vibrational polarizability:
        0.0069886       0.1331787       0.1331804
 Harmonic frequencies (cm**-1), IR intensities (KM/Mole), Raman scattering
 activities (A**4/AMU), depolarization ratios for plane and unpolarized
 incident light, reduced masses (AMU), force constants (mDyne/A),
 and normal coordinates:
                      1                      2                      3
                      A                      A                      A
 Frequencies --    197.9636               888.5805               888.5817
 Red. masses --      1.0078                 1.0552                 1.0552
 Frc consts  --      0.0233                 0.4909                 0.4909
 IR Inten    --      0.0000                 3.2156                 3.2156
  Atom  AN      X      Y      Z        X      Y      Z        X      Y      Z
     1   1    -0.00  -0.24   0.33    -0.33   0.00   0.19    -0.40   0.18  -0.02
     2   6    -0.00   0.00  -0.00     0.00  -0.00  -0.05    -0.00  -0.05   0.00
     3   1    -0.00   0.41   0.05     0.51   0.01   0.18    -0.08   0.19  -0.01
     4   1    -0.00  -0.16  -0.37    -0.18   0.01   0.19     0.48   0.18  -0.00
     5   6     0.00   0.00  -0.00     0.00  -0.00  -0.05    -0.00  -0.05   0.00
     6   1     0.00  -0.24   0.33    -0.33   0.00   0.19    -0.40   0.18  -0.02
     7   1     0.00  -0.16  -0.37    -0.18   0.01   0.19     0.48   0.18  -0.00
     8   1     0.00   0.41   0.05     0.51   0.01   0.18    -0.08   0.19  -0.01
                      4                      5                      6
                      A                      A                      A
 Frequencies --   1182.4626              1182.4630              1246.7807
 Red. masses --      1.4083                 1.4083                 2.2154
 Frc consts  --      1.1602                 1.1602                 2.0290
 IR Inten    --      0.0000                 0.0000                 0.0000
  Atom  AN      X      Y      Z        X      Y      Z        X      Y      Z
     1   1     0.38  -0.02  -0.10     0.39  -0.10   0.01     0.38  -0.05  -0.04
     2   6    -0.00   0.02   0.13    -0.00   0.13  -0.02     0.23   0.00   0.00
     3   1    -0.53  -0.01  -0.10     0.13  -0.10   0.01     0.38  -0.01   0.07
     4   1     0.15  -0.01  -0.10    -0.53  -0.10   0.02     0.38   0.06  -0.03
     5   6     0.00  -0.02  -0.13     0.00  -0.13   0.02    -0.23  -0.00  -0.00
     6   1    -0.38   0.02   0.10    -0.39   0.10  -0.01    -0.38   0.05   0.04
     7   1    -0.15   0.01   0.10     0.53   0.10  -0.01    -0.38  -0.06   0.03
     8   1     0.53   0.01   0.10    -0.14   0.10  -0.01    -0.38   0.01  -0.07
                      7                      8                      9
                      A                      A                      A
 Frequencies --   1393.2966              1393.2990              1394.5656
 Red. masses --      1.0716                 1.0716                 1.0721
 Frc consts  --      1.2257                 1.2257                 1.2285
 IR Inten    --      0.0000                 0.0000                 1.6819
  Atom  AN      X      Y      Z        X      Y      Z        X      Y      Z
     1   1     0.10  -0.31   0.33     0.15   0.12  -0.28    -0.11   0.31  -0.32
     2   6    -0.00   0.00  -0.05     0.00  -0.05  -0.00     0.00  -0.00   0.05
     3   1    -0.18   0.04  -0.08     0.01   0.53   0.07     0.20  -0.04   0.10
     4   1     0.08   0.23   0.42    -0.16   0.02   0.25    -0.09  -0.23  -0.41
     5   6     0.00  -0.00   0.05     0.00   0.05   0.00     0.00  -0.00   0.05
     6   1    -0.10   0.31  -0.33    -0.15  -0.12   0.28    -0.11   0.31  -0.32
     7   1    -0.08  -0.23  -0.43     0.17  -0.02  -0.25    -0.09  -0.23  -0.42
     8   1     0.18  -0.05   0.08    -0.01  -0.53  -0.07     0.20  -0.04   0.10
                     10                     11                     12
                      A                      A                      A
 Frequencies --   1394.5680              1430.5110              1444.5271
 Red. masses --      1.0721                 1.2002                 1.5646
 Frc consts  --      1.2285                 1.4471                 1.9236
 IR Inten    --      1.6819                 0.5233                 0.0000
  Atom  AN      X      Y      Z        X      Y      Z        X      Y      Z
     1   1    -0.17  -0.10   0.28    -0.37   0.13   0.10     0.36  -0.13  -0.10
     2   6    -0.00   0.05   0.00     0.09   0.00  -0.00    -0.16   0.00  -0.00
     3   1    -0.01  -0.52  -0.07    -0.37   0.02  -0.16     0.36  -0.02   0.17
     4   1     0.18  -0.01  -0.26    -0.37  -0.15   0.06     0.36   0.15  -0.07
     5   6    -0.00   0.05   0.00     0.09   0.00  -0.00     0.16  -0.00   0.00
     6   1    -0.17  -0.11   0.28    -0.37   0.13   0.10    -0.36   0.13   0.10
     7   1     0.18  -0.01  -0.25    -0.37  -0.15   0.06    -0.36  -0.15   0.07
     8   1    -0.01  -0.52  -0.07    -0.37   0.02  -0.16    -0.36   0.02  -0.17
                     13                     14                     15
                      A                      A                      A
 Frequencies --   3049.9890              3049.9944              3073.1729
 Red. masses --      1.0858                 1.0858                 1.0948
 Frc consts  --      5.9512                 5.9512                 6.0923
 IR Inten    --      0.0000                 0.0000                 0.1077
  Atom  AN      X      Y      Z        X      Y      Z        X      Y      Z
     1   1     0.11   0.24   0.14     0.18   0.36   0.29    -0.11  -0.24  -0.15
     2   6     0.00   0.01  -0.06     0.00  -0.06  -0.01    -0.00  -0.01   0.06
     3   1    -0.21  -0.06   0.53     0.00  -0.03  -0.02     0.22   0.06  -0.53
     4   1     0.10  -0.25   0.08    -0.19   0.42  -0.20    -0.10   0.24  -0.07
     5   6    -0.00  -0.01   0.06    -0.00   0.06   0.01    -0.00  -0.01   0.06
     6   1    -0.11  -0.24  -0.14    -0.18  -0.36  -0.29    -0.11  -0.24  -0.15
     7   1    -0.10   0.25  -0.08     0.19  -0.42   0.20    -0.10   0.24  -0.07
     8   1     0.21   0.06  -0.53    -0.01   0.03   0.02     0.22   0.06  -0.53
                     16                     17                     18
                      A                      A                      A
 Frequencies --   3073.1782              3148.8809              3165.4469
 Red. masses --      1.0948                 1.0232                 1.0327
 Frc consts  --      6.0923                 5.9778                 6.0964
 IR Inten    --      0.1078                 0.0000                 0.0400
  Atom  AN      X      Y      Z        X      Y      Z        X      Y      Z
     1   1    -0.18  -0.35  -0.28     0.13   0.31   0.23    -0.13  -0.31  -0.23
     2   6    -0.00   0.06   0.01    -0.03  -0.00  -0.00     0.03  -0.00   0.00
     3   1    -0.01   0.03   0.02     0.13   0.04  -0.38    -0.13  -0.04   0.38
     4   1     0.19  -0.42   0.20     0.13  -0.35   0.15    -0.13   0.35  -0.15
     5   6    -0.00   0.06   0.01     0.03  -0.00   0.00     0.03  -0.00   0.00
     6   1    -0.18  -0.35  -0.28    -0.13  -0.31  -0.23    -0.13  -0.31  -0.23
     7   1     0.19  -0.43   0.20    -0.13   0.35  -0.15    -0.13   0.35  -0.15
     8   1    -0.01   0.03   0.02    -0.13  -0.04   0.38    -0.13  -0.04   0.38

 -------------------
 - Thermochemistry -
 -------------------
 Temperature   298.150 Kelvin.  Pressure   1.00000 Atm.
 Atom     1 has atomic number  1 and mass   1.00783
 Atom     2 has atomic number  6 and mass  12.00000
 Atom     3 has atomic number  1 and mass   1.00783
 Atom     4 has atomic number  1 and mass   1.00783
 Atom     5 has atomic number  6 and mass  12.00000
 Atom     6 has atomic number  1 and mass   1.00783
 Atom     7 has atomic number  1 and mass   1.00783
 Atom     8 has atomic number  1 and mass   1.00783
 Molecular mass:    30.04695 amu.
 Principal axes and moments of inertia in atomic units:
                           1         2         3
     Eigenvalues --    23.57278  88.35228  88.35234
           X            1.00000   0.00000  -0.00000
           Y           -0.00000   1.00000   0.00000
           Z            0.00000  -0.00000   1.00000
 This molecule is an asymmetric top.
 Rotational symmetry number  1.
 Rotational temperatures (Kelvin)      3.67432     0.98032     0.98032
 Rotational constants (GHZ):          76.56040    20.42665    20.42664
 Zero-point vibrational energy     194980.9 (Joules/Mol)
                                   46.60155 (Kcal/Mol)
 Warning -- explicit consideration of   1 degrees of freedom as
           vibrations may cause significant error
 Vibrational temperatures:    284.83  1278.47  1278.47  1701.30  1701.30
          (Kelvin)           1793.84  2004.64  2004.64  2006.47  2006.47
                             2058.18  2078.35  4388.25  4388.26  4421.60
                             4421.61  4530.53  4554.37
 
 Zero-point correction=                           0.074264 (Hartree/Particle)
 Thermal correction to Energy=                    0.077867
 Thermal correction to Enthalpy=                  0.078811
 Thermal correction to Gibbs Free Energy=         0.050943
 Sum of electronic and zero-point Energies=              0.046442
 Sum of electronic and thermal Energies=                 0.050044
 Sum of electronic and thermal Enthalpies=               0.050988
 Sum of electronic and thermal Free Energies=            0.023120
 
                     E (Thermal)             CV                S
                      KCal/Mol        Cal/Mol-Kelvin    Cal/Mol-Kelvin
 Total                   48.862             10.065             58.654
 Electronic               0.000              0.000              0.000
 Translational            0.889              2.981             36.134
 Rotational               0.889              2.981             19.848
 Vibrational             47.085              4.103              2.672
 Vibration     1          0.637              1.843              2.152
                       Q            Log10(Q)             Ln(Q)
 Total Bot       0.369905D-23        -23.431909        -53.953965
 Total V=0       0.533613D+11         10.727226         24.700352
 Vib (Bot)       0.117670D-33        -33.929335        -78.125181
 Vib (Bot)    1  0.100801D+01          0.003466          0.007981
 Vib (V=0)       0.169747D+01          0.229801          0.529136
 Vib (V=0)    1  0.162521D+01          0.210909          0.485635
 Electronic      0.100000D+01          0.000000          0.000000
 Translational   0.647375D+07          6.811156         15.683266
 Rotational      0.485590D+04          3.686270          8.487950
 ***** Axes restored to original set *****
 -------------------------------------------------------------------
 Center     Atomic                   Forces (Hartrees/Bohr)
 Number     Number              X              Y              Z
 -------------------------------------------------------------------
      1        1          -0.000050192    0.000087399   -0.000074594
      2        6           0.000349719   -0.000006195    0.000126777
      3        1          -0.000054209   -0.000087781   -0.000070533
      4        1          -0.000104034    0.000004365    0.000069684
      5        6          -0.000349707    0.000006363   -0.000126761
      6        1           0.000049692   -0.000086339    0.000076186
      7        1           0.000103987   -0.000006461   -0.000069657
      8        1           0.000054745    0.000088649    0.000068897
 -------------------------------------------------------------------
 Cartesian Forces:  Max     0.000349719 RMS     0.000124314
 FormGI is forming the generalized inverse of G from B-inverse, IUseBI=4.

 GradGradGradGradGradGradGradGradGradGradGradGradGradGradGradGradGradGrad
 Berny optimization.
 Internal  Forces:  Max     0.000150337 RMS     0.000066614
 Search for a local minimum.
 Step number   1 out of a maximum of    2
 All quantities printed in internal units (Hartrees-Bohrs-Radians)
 Second derivative matrix not updated -- analytic derivatives used.
 ITU=  0
     Eigenvalues ---    0.00100   0.04614   0.04614   0.04652   0.04652
     Eigenvalues ---    0.12686   0.12686   0.12868   0.13604   0.15178
     Eigenvalues ---    0.15178   0.33115   0.33115   0.33182   0.33182
     Eigenvalues ---    0.35777   0.37363   0.49227
 Angle between quadratic step and forces=  55.38 degrees.
 Linear search not attempted -- first point.
 Iteration  1 RMS(Cart)=  0.00039651 RMS(Int)=  0.00000012
 Iteration  2 RMS(Cart)=  0.00000011 RMS(Int)=  0.00000004
 Variable       Old X    -DE/DX   Delta X   Delta X   Delta X     New X
                                 (Linear)    (Quad)   (Total)
    R1        2.11064   0.00012   0.00000   0.00038   0.00038   2.11102
    R2        2.11064   0.00012   0.00000   0.00038   0.00038   2.11102
    R3        2.11064   0.00012   0.00000   0.00038   0.00038   2.11102
    R4        2.83582  -0.00015   0.00000  -0.00067  -0.00067   2.83515
    R5        2.11064   0.00012   0.00000   0.00038   0.00038   2.11102
    R6        2.11064   0.00012   0.00000   0.00038   0.00038   2.11102
    R7        2.11064   0.00012   0.00000   0.00038   0.00038   2.11102
    A1        1.88874  -0.00004   0.00000  -0.00036  -0.00036   1.88837
    A2        1.88874  -0.00004   0.00000  -0.00037  -0.00037   1.88837
    A3        1.93205   0.00003   0.00000   0.00035   0.00035   1.93240
    A4        1.88874  -0.00004   0.00000  -0.00036  -0.00036   1.88837
    A5        1.93205   0.00003   0.00000   0.00035   0.00035   1.93240
    A6        1.93205   0.00003   0.00000   0.00035   0.00035   1.93240
    A7        1.93205   0.00003   0.00000   0.00035   0.00035   1.93240
    A8        1.93205   0.00003   0.00000   0.00035   0.00035   1.93240
    A9        1.93205   0.00003   0.00000   0.00035   0.00035   1.93240
   A10        1.88874  -0.00004   0.00000  -0.00037  -0.00037   1.88837
   A11        1.88874  -0.00004   0.00000  -0.00036  -0.00036   1.88837
   A12        1.88874  -0.00004   0.00000  -0.00036  -0.00036   1.88837
    D1       -3.14092  -0.00000   0.00000  -0.00068  -0.00068  -3.14159
    D2       -1.04651  -0.00000   0.00000  -0.00068  -0.00068  -1.04720
    D3        1.04788  -0.00000   0.00000  -0.00068  -0.00068   1.04720
    D4       -1.04652  -0.00000   0.00000  -0.00067  -0.00067  -1.04720
    D5        1.04788  -0.00000   0.00000  -0.00068  -0.00068   1.04720
    D6       -3.14092  -0.00000   0.00000  -0.00068  -0.00068  -3.14159
    D7        1.04787  -0.00000   0.00000  -0.00067  -0.00067   1.04720
    D8       -3.14091  -0.00000   0.00000  -0.00068  -0.00068  -3.14159
    D9       -1.04652  -0.00000   0.00000  -0.00068  -0.00068  -1.04720
         Item               Value     Threshold  Converged?
 Maximum Force            0.000150     0.000450     YES
 RMS     Force            0.000067     0.000300     YES
 Maximum Displacement     0.000764     0.001800     YES
 RMS     Displacement     0.000397     0.001200     YES
 Predicted change in Energy=-2.643660D-07
 Optimization completed.
    -- Stationary point found.
                           ----------------------------
                           !   Optimized Parameters   !
                           ! (Angstroms and Degrees)  !
 --------------------------                            --------------------------
 ! Name  Definition              Value          Derivative Info.                !
 --------------------------------------------------------------------------------
 ! R1    R(1,2)                  1.1169         -DE/DX =    0.0001              !
 ! R2    R(2,3)                  1.1169         -DE/DX =    0.0001              !
 ! R3    R(2,4)                  1.1169         -DE/DX =    0.0001              !
 ! R4    R(2,5)                  1.5006         -DE/DX =   -0.0002              !
 ! R5    R(5,6)                  1.1169         -DE/DX =    0.0001              !
 ! R6    R(5,7)                  1.1169         -DE/DX =    0.0001              !
 ! R7    R(5,8)                  1.1169         -DE/DX =    0.0001              !
 ! A1    A(1,2,3)              108.2166         -DE/DX =    0.0                 !
 ! A2    A(1,2,4)              108.217          -DE/DX =    0.0                 !
 ! A3    A(1,2,5)              110.6983         -DE/DX =    0.0                 !
 ! A4    A(3,2,4)              108.2167         -DE/DX =    0.0                 !
 ! A5    A(3,2,5)              110.6983         -DE/DX =    0.0                 !
 ! A6    A(4,2,5)              110.6983         -DE/DX =    0.0                 !
 ! A7    A(2,5,6)              110.6983         -DE/DX =    0.0                 !
 ! A8    A(2,5,7)              110.6983         -DE/DX =    0.0                 !
 ! A9    A(2,5,8)              110.6983         -DE/DX =    0.0                 !
 ! A10   A(6,5,7)              108.217          -DE/DX =    0.0                 !
 ! A11   A(6,5,8)              108.2166         -DE/DX =    0.0                 !
 ! A12   A(7,5,8)              108.2166         -DE/DX =    0.0                 !
 ! D1    D(1,2,5,6)           -179.9612         -DE/DX =    0.0                 !
 ! D2    D(1,2,5,7)            -59.9609         -DE/DX =    0.0                 !
 ! D3    D(1,2,5,8)             60.039          -DE/DX =    0.0                 !
 ! D4    D(3,2,5,6)            -59.9614         -DE/DX =    0.0                 !
 ! D5    D(3,2,5,7)             60.0389         -DE/DX =    0.0                 !
 ! D6    D(3,2,5,8)           -179.9612         -DE/DX =    0.0                 !
 ! D7    D(4,2,5,6)             60.0385         -DE/DX =    0.0                 !
 ! D8    D(4,2,5,7)           -179.9611         -DE/DX =    0.0                 !
 ! D9    D(4,2,5,8)            -59.9612         -DE/DX =    0.0                 !
 --------------------------------------------------------------------------------
 GradGradGradGradGradGradGradGradGradGradGradGradGradGradGradGradGradGrad

 1\1\GINC-GTX1080DELTA\Freq\RAM1\ZDO\C2H6\MVEROT\16-Apr-2022\0\\#N Geom
 =AllCheck Guess=TCheck SCRF=Check GenChk RAM1/ZDO Freq\\Optimisation d
 e geometrie\\0,1\H,0.5632516425,1.7868762861,-0.0074914002\C,0.7304021
 955,0.8977528623,0.6474842992\H,0.5123925522,-0.0211243997,0.051152966
 4\H,0.0028856735,0.9456594463,1.4935916015\C,2.1402977588,0.8747469248
 ,1.160915734\H,2.3076471013,-0.014754526,1.8153270594\H,2.8678342059,0
 .8275483508,0.3147858391\H,2.3580888702,1.7932950554,1.7578339006\\Ver
 sion=AM64L-G09RevD.01\State=1-A\HF=-0.0278223\RMSD=2.046e-10\RMSF=1.24
 3e-04\ZeroPoint=0.0742643\Thermal=0.0778666\Dipole=0.,0.,0.\DipoleDeri
 v=0.0136748,0.0117316,-0.0142729,0.0015776,0.0168541,0.0106254,-0.0074
 863,0.0142134,0.0197131,-0.0263071,-0.0006385,0.0140039,-0.0006166,-0.
 0647524,-0.0002584,0.0140047,-0.0001983,-0.0596632,0.0129062,-0.012458
 9,-0.0140822,-0.0019072,0.0160764,-0.0095665,-0.0081505,-0.0135049,0.0
 212586,-0.000273,0.0013544,0.0143507,0.0009577,0.031823,-0.000832,0.00
 16325,-0.0004789,0.0186927,-0.0263071,-0.0006167,0.0140049,-0.0006386,
 -0.0647524,-0.0001982,0.0140037,-0.0002583,-0.0596632,0.0136807,0.0117
 237,-0.0142926,0.0015811,0.0168414,0.0106214,-0.0074856,0.0142028,0.01
 97201,-0.0002728,0.0013688,0.0143506,0.0009488,0.0318239,-0.000819,0.0
 016334,-0.0004595,0.0186916,0.0129002,-0.0124645,-0.0140624,-0.0019027
 ,0.0160882,-0.0095728,-0.0081521,-0.0135166,0.0212527\Polar=16.5486345
 ,0.0194472,17.7363492,-0.4326226,0.0070568,17.5791819\HyperPolar=0.000
 3008,0.0034652,-0.001642,-0.0296764,-0.0006489,-0.0094933,0.0031863,0.
 0013471,0.0262503,-0.0025386\PG=C01 [X(C2H6)]\NImag=0\\0.05584183,-0.0
 3532294,0.23203107,0.02854543,-0.13981176,0.14584038,-0.04499619,0.027
 97202,-0.01999298,0.56567719,0.02696341,-0.19785689,0.11433917,-0.0007
 9786,0.51678486,-0.01931661,0.11469543,-0.12517265,0.01780863,-0.00029
 162,0.52325914,0.00443007,0.00111533,0.00055454,-0.04865439,-0.0371670
 9,-0.02350832,0.06048960,-0.00311322,-0.03203166,-0.00806279,-0.038217
 02,-0.20862896,-0.10794129,0.04749767,0.24499316,0.00121810,0.01064787
 ,0.00851618,-0.02409633,-0.10754924,-0.11074142,0.03350334,0.13146228,
 0.12822969,0.00246645,-0.00226454,0.00433061,-0.14179504,0.00672749,0.
 12040057,0.00330506,0.00220414,0.00293475,0.17568531,-0.01237189,-0.00
 097946,0.02153244,0.00676889,-0.04192526,-0.00801910,0.01289443,-0.003
 83160,-0.02285187,-0.00845949,0.04260202,0.01327580,0.00788550,-0.0205
 7215,0.12166498,-0.00805466,-0.18430555,0.01195876,-0.00971052,-0.0185
 5876,-0.14495850,0.00970146,0.21542596,-0.01410277,0.00840520,-0.01199
 443,-0.26420614,0.00318101,-0.07100359,-0.01591846,-0.00842579,-0.0121
 2456,-0.03600419,0.00111363,-0.00026172,0.56567727,0.02355208,-0.00179
 065,0.01213989,0.00318216,-0.06928045,0.00115699,-0.02418908,-0.001166
 81,-0.01187337,0.00172880,0.00386418,0.00013305,-0.00079765,0.51678482
 ,-0.02214650,0.00678831,-0.00846419,-0.07100354,0.00116018,-0.09508541
 ,-0.02095850,-0.00599010,-0.00727232,0.01872427,-0.00040205,0.00778241
 ,0.01780856,-0.00029190,0.52325909,-0.00359606,-0.00013927,-0.00131492
 ,-0.01410873,0.02356250,-0.02213476,0.00011728,0.00005445,-0.00024601,
 -0.00015960,0.00037621,-0.00001573,-0.04500922,0.02701050,-0.01932453,
 0.05585621,-0.00013924,0.00048950,-0.00011554,0.00840866,-0.00179557,0
 .00678823,-0.00006422,0.00022108,-0.00005870,0.00029724,-0.00008239,-0
 .00003261,0.02801981,-0.19799014,0.11464526,-0.03537917,0.23219289,-0.
 00131528,-0.00011477,0.00000360,-0.01199317,0.01213994,-0.00845333,-0.
 00023957,0.00003456,-0.00036594,0.00010987,-0.00005544,0.00021311,-0.0
 1999959,0.11428854,-0.12502645,0.02855610,-0.13975005,0.14566424,-0.00
 015997,0.00029807,0.00011030,-0.03600493,0.00171007,0.01872498,-0.0001
 9676,-0.00028289,0.00013195,-0.00330072,0.00004933,-0.00167401,-0.1418
 0080,0.00662666,0.12040718,0.00246958,-0.00226657,0.00432452,0.1756921
 5,0.00037759,-0.00008190,-0.00005558,0.00110566,0.00386497,-0.00039815
 ,-0.00036980,-0.00003861,0.00006605,0.00005000,0.00039053,0.00002788,0
 .00666659,-0.04191192,-0.00790075,-0.01237991,-0.00100164,0.02154575,-
 0.00833870,0.04258590,-0.00001601,-0.00003234,0.00021427,-0.00026154,0
 .00013047,0.00778237,0.00001057,0.00005012,0.00020652,-0.00167402,0.00
 002842,-0.00019276,0.12167165,-0.00793592,-0.18431318,0.01326635,0.007
 90103,-0.02055307,-0.14496651,0.00955655,0.21543529,0.00011663,-0.0000
 6391,-0.00023851,-0.01591175,-0.02417953,-0.02097089,-0.00357241,0.000
 28273,-0.00132123,-0.00019724,-0.00037114,0.00001037,-0.04863568,-0.03
 711347,-0.02350694,0.00443051,0.00112345,0.00055717,0.00330147,0.01288
 855,0.01196944,0.06046847,0.00005419,0.00021999,0.00003418,-0.00842252
 ,-0.00116269,-0.00599049,0.00028279,0.00048337,0.00015698,-0.00028363,
 -0.00003801,0.00004990,-0.03816279,-0.20850901,-0.10800895,-0.00310534
 ,-0.03203374,-0.00808853,0.00220402,-0.00380733,-0.00969833,0.04743336
 ,0.24484741,-0.00024490,-0.00005828,-0.00036547,-0.01212606,-0.0118742
 3,-0.00728313,-0.00132083,0.00015773,-0.00001388,0.00013244,0.00006620
 ,0.00020769,-0.02409632,-0.10761728,-0.11087994,0.00121352,0.01062234,
 0.00851783,0.00294159,-0.02284170,-0.01857949,0.03350058,0.13154523,0.
 12839645\\0.00005019,-0.00008740,0.00007459,-0.00034972,0.00000619,-0.
 00012678,0.00005421,0.00008778,0.00007053,0.00010403,-0.00000436,-0.00
 006968,0.00034971,-0.00000636,0.00012676,-0.00004969,0.00008634,-0.000
 07619,-0.00010399,0.00000646,0.00006966,-0.00005475,-0.00008865,-0.000
 06890\\\@


 ALL THINGS ARE POSSIBLE EXCEPT SKIING THROUGH A REVOLVING DOOR.
 Job cpu time:       0 days  0 hours  0 minutes  1.0 seconds.
 File lengths (MBytes):  RWF=     82 Int=      0 D2E=      0 Chk=      2 Scr=      2
 Normal termination of Gaussian 09 at Sat Apr 16 12:12:35 2022.
