 Entering Gaussian System, Link 0=g09
 Input=/scratch/mverot/1-4-butanediol-open-opt/1-4-butanediol-open-opt.com
 Output=/scratch/mverot/1-4-butanediol-open-opt/1-4-butanediol-open-opt.log
 Initial command:
 /opt/g09/l1.exe "/scratch/mverot/1-4-butanediol-open-opt/Gau-1476827.inp" -scrdir="/scratch/mverot/1-4-butanediol-open-opt/"
 Entering Link 1 = /opt/g09/l1.exe PID=   1476829.
  
 Copyright (c) 1988,1990,1992,1993,1995,1998,2003,2009,2013,
            Gaussian, Inc.  All Rights Reserved.
  
 This is part of the Gaussian(R) 09 program.  It is based on
 the Gaussian(R) 03 system (copyright 2003, Gaussian, Inc.),
 the Gaussian(R) 98 system (copyright 1998, Gaussian, Inc.),
 the Gaussian(R) 94 system (copyright 1995, Gaussian, Inc.),
 the Gaussian 92(TM) system (copyright 1992, Gaussian, Inc.),
 the Gaussian 90(TM) system (copyright 1990, Gaussian, Inc.),
 the Gaussian 88(TM) system (copyright 1988, Gaussian, Inc.),
 the Gaussian 86(TM) system (copyright 1986, Carnegie Mellon
 University), and the Gaussian 82(TM) system (copyright 1983,
 Carnegie Mellon University). Gaussian is a federally registered
 trademark of Gaussian, Inc.
  
 This software contains proprietary and confidential information,
 including trade secrets, belonging to Gaussian, Inc.
  
 This software is provided under written license and may be
 used, copied, transmitted, or stored only in accord with that
 written license.
  
 The following legend is applicable only to US Government
 contracts under FAR:
  
                    RESTRICTED RIGHTS LEGEND
  
 Use, reproduction and disclosure by the US Government is
 subject to restrictions as set forth in subparagraphs (a)
 and (c) of the Commercial Computer Software - Restricted
 Rights clause in FAR 52.227-19.
  
 Gaussian, Inc.
 340 Quinnipiac St., Bldg. 40, Wallingford CT 06492
  
  
 ---------------------------------------------------------------
 Warning -- This program may not be used in any manner that
 competes with the business of Gaussian, Inc. or will provide
 assistance to any competitor of Gaussian, Inc.  The licensee
 of this program is prohibited from giving any competitor of
 Gaussian, Inc. access to this program.  By using this program,
 the user acknowledges that Gaussian, Inc. is engaged in the
 business of creating and licensing software in the field of
 computational chemistry and represents and warrants to the
 licensee that it is not a competitor of Gaussian, Inc. and that
 it will not use this program in any manner prohibited above.
 ---------------------------------------------------------------
  

 Cite this work as:
 Gaussian 09, Revision D.01,
 M. J. Frisch, G. W. Trucks, H. B. Schlegel, G. E. Scuseria, 
 M. A. Robb, J. R. Cheeseman, G. Scalmani, V. Barone, B. Mennucci, 
 G. A. Petersson, H. Nakatsuji, M. Caricato, X. Li, H. P. Hratchian, 
 A. F. Izmaylov, J. Bloino, G. Zheng, J. L. Sonnenberg, M. Hada, 
 M. Ehara, K. Toyota, R. Fukuda, J. Hasegawa, M. Ishida, T. Nakajima, 
 Y. Honda, O. Kitao, H. Nakai, T. Vreven, J. A. Montgomery, Jr., 
 J. E. Peralta, F. Ogliaro, M. Bearpark, J. J. Heyd, E. Brothers, 
 K. N. Kudin, V. N. Staroverov, T. Keith, R. Kobayashi, J. Normand, 
 K. Raghavachari, A. Rendell, J. C. Burant, S. S. Iyengar, J. Tomasi, 
 M. Cossi, N. Rega, J. M. Millam, M. Klene, J. E. Knox, J. B. Cross, 
 V. Bakken, C. Adamo, J. Jaramillo, R. Gomperts, R. E. Stratmann, 
 O. Yazyev, A. J. Austin, R. Cammi, C. Pomelli, J. W. Ochterski, 
 R. L. Martin, K. Morokuma, V. G. Zakrzewski, G. A. Voth, 
 P. Salvador, J. J. Dannenberg, S. Dapprich, A. D. Daniels, 
 O. Farkas, J. B. Foresman, J. V. Ortiz, J. Cioslowski, 
 and D. J. Fox, Gaussian, Inc., Wallingford CT, 2013.
 
 ******************************************
 Gaussian 09:  AM64L-G09RevD.01 24-Apr-2013
                17-Apr-2022 
 ******************************************
 %chk=1-4-butanediol-open-opt
 ----------
 #n AM1 Opt
 ----------
 1/14=-1,18=20,19=15,26=1,38=1/1,3;
 2/9=110,12=2,17=6,18=5,40=1/2;
 3/5=2,16=1,25=1,41=700000,71=1/1,2,3;
 4/35=1/1;
 5/5=2,35=1,38=5/2;
 6/7=2,8=2,9=2,10=2,28=1/1;
 7//1,2,3,16;
 1/14=-1,18=20,19=15,26=1/3(2);
 2/9=110/2;
 99//99;
 2/9=110/2;
 3/5=2,16=1,25=1,41=700000,71=1,135=20/1,2,3;
 4/5=5,16=3,35=1/1;
 5/5=2,35=1,38=5/2;
 7//1,2,3,16;
 1/14=-1,18=20,19=15,26=1/3(-5);
 2/9=110/2;
 6/7=2,8=2,9=2,10=2,19=2,28=1/1;
 99/9=1/99;
 -------------------------
 Optimisation de geometrie
 -------------------------
 Symbolic Z-matrix:
 Charge =  0 Multiplicity = 1
 C                     1.86044   1.2563    1.75226 
 C                     1.19501   1.01015   3.10498 
 O                     0.61456  -0.28906   3.15807 
 C                     3.17259   0.4746    1.58556 
 C                     4.40977   1.31124   1.90304 
 O                     4.94461   1.81958   0.68742 
 H                     2.0354    2.33026   1.61933 
 H                     1.16754   0.93821   0.96397 
 H                     0.38356   1.72792   3.25625 
 H                     1.90135   1.11531   3.93431 
 H                     1.31089  -0.94627   3.01125 
 H                     3.23222   0.11378   0.55156 
 H                     3.1716   -0.40732   2.2338 
 H                     5.17359   0.68166   2.37058 
 H                     4.19425   2.15114   2.57076 
 H                     5.8891    1.9983    0.83809 
 

 GradGradGradGradGradGradGradGradGradGradGradGradGradGradGradGradGradGrad
 Berny optimization.
 Initialization pass.
                           ----------------------------
                           !    Initial Parameters    !
                           ! (Angstroms and Degrees)  !
 --------------------------                            --------------------------
 ! Name  Definition              Value          Derivative Info.                !
 --------------------------------------------------------------------------------
 ! R1    R(1,2)                  1.5275         estimate D2E/DX2                !
 ! R2    R(1,4)                  1.5364         estimate D2E/DX2                !
 ! R3    R(1,7)                  1.0962         estimate D2E/DX2                !
 ! R4    R(1,8)                  1.0967         estimate D2E/DX2                !
 ! R5    R(2,3)                  1.424          estimate D2E/DX2                !
 ! R6    R(2,9)                  1.0939         estimate D2E/DX2                !
 ! R7    R(2,10)                 1.0944         estimate D2E/DX2                !
 ! R8    R(3,11)                 0.9687         estimate D2E/DX2                !
 ! R9    R(4,5)                  1.5269         estimate D2E/DX2                !
 ! R10   R(4,12)                 1.0968         estimate D2E/DX2                !
 ! R11   R(4,13)                 1.0945         estimate D2E/DX2                !
 ! R12   R(5,6)                  1.422          estimate D2E/DX2                !
 ! R13   R(5,14)                 1.0947         estimate D2E/DX2                !
 ! R14   R(5,15)                 1.0944         estimate D2E/DX2                !
 ! R15   R(6,16)                 0.973          estimate D2E/DX2                !
 ! A1    A(2,1,4)              112.7147         estimate D2E/DX2                !
 ! A2    A(2,1,7)              109.56           estimate D2E/DX2                !
 ! A3    A(2,1,8)              108.3351         estimate D2E/DX2                !
 ! A4    A(4,1,7)              110.4256         estimate D2E/DX2                !
 ! A5    A(4,1,8)              108.3025         estimate D2E/DX2                !
 ! A6    A(7,1,8)              107.3279         estimate D2E/DX2                !
 ! A7    A(1,2,3)              110.9542         estimate D2E/DX2                !
 ! A8    A(1,2,9)              109.8702         estimate D2E/DX2                !
 ! A9    A(1,2,10)             111.9892         estimate D2E/DX2                !
 ! A10   A(3,2,9)              106.9266         estimate D2E/DX2                !
 ! A11   A(3,2,10)             108.8141         estimate D2E/DX2                !
 ! A12   A(9,2,10)             108.1152         estimate D2E/DX2                !
 ! A13   A(2,3,11)             108.6836         estimate D2E/DX2                !
 ! A14   A(1,4,5)              112.995          estimate D2E/DX2                !
 ! A15   A(1,4,12)             108.4274         estimate D2E/DX2                !
 ! A16   A(1,4,13)             110.1769         estimate D2E/DX2                !
 ! A17   A(5,4,12)             109.4046         estimate D2E/DX2                !
 ! A18   A(5,4,13)             108.6079         estimate D2E/DX2                !
 ! A19   A(12,4,13)            107.0573         estimate D2E/DX2                !
 ! A20   A(4,5,6)              108.8369         estimate D2E/DX2                !
 ! A21   A(4,5,14)             109.8178         estimate D2E/DX2                !
 ! A22   A(4,5,15)             112.8183         estimate D2E/DX2                !
 ! A23   A(6,5,14)             107.9543         estimate D2E/DX2                !
 ! A24   A(6,5,15)             108.7404         estimate D2E/DX2                !
 ! A25   A(14,5,15)            108.5538         estimate D2E/DX2                !
 ! A26   A(5,6,16)             107.3602         estimate D2E/DX2                !
 ! D1    D(4,1,2,3)            -73.1206         estimate D2E/DX2                !
 ! D2    D(4,1,2,9)            168.8516         estimate D2E/DX2                !
 ! D3    D(4,1,2,10)            48.6869         estimate D2E/DX2                !
 ! D4    D(7,1,2,3)            163.4962         estimate D2E/DX2                !
 ! D5    D(7,1,2,9)             45.4684         estimate D2E/DX2                !
 ! D6    D(7,1,2,10)           -74.6963         estimate D2E/DX2                !
 ! D7    D(8,1,2,3)             46.7057         estimate D2E/DX2                !
 ! D8    D(8,1,2,9)            -71.3222         estimate D2E/DX2                !
 ! D9    D(8,1,2,10)           168.5132         estimate D2E/DX2                !
 ! D10   D(2,1,4,5)            -97.1911         estimate D2E/DX2                !
 ! D11   D(2,1,4,12)           141.3546         estimate D2E/DX2                !
 ! D12   D(2,1,4,13)            24.4934         estimate D2E/DX2                !
 ! D13   D(7,1,4,5)             25.7098         estimate D2E/DX2                !
 ! D14   D(7,1,4,12)           -95.7445         estimate D2E/DX2                !
 ! D15   D(7,1,4,13)           147.3942         estimate D2E/DX2                !
 ! D16   D(8,1,4,5)            142.9638         estimate D2E/DX2                !
 ! D17   D(8,1,4,12)            21.5095         estimate D2E/DX2                !
 ! D18   D(8,1,4,13)           -95.3517         estimate D2E/DX2                !
 ! D19   D(1,2,3,11)            59.2282         estimate D2E/DX2                !
 ! D20   D(9,2,3,11)           179.0289         estimate D2E/DX2                !
 ! D21   D(10,2,3,11)          -64.4171         estimate D2E/DX2                !
 ! D22   D(1,4,5,6)            -96.985          estimate D2E/DX2                !
 ! D23   D(1,4,5,14)           145.0361         estimate D2E/DX2                !
 ! D24   D(1,4,5,15)            23.8            estimate D2E/DX2                !
 ! D25   D(12,4,5,6)            23.9158         estimate D2E/DX2                !
 ! D26   D(12,4,5,14)          -94.0631         estimate D2E/DX2                !
 ! D27   D(12,4,5,15)          144.7008         estimate D2E/DX2                !
 ! D28   D(13,4,5,6)           140.4509         estimate D2E/DX2                !
 ! D29   D(13,4,5,14)           22.472          estimate D2E/DX2                !
 ! D30   D(13,4,5,15)          -98.7641         estimate D2E/DX2                !
 ! D31   D(4,5,6,16)          -155.6603         estimate D2E/DX2                !
 ! D32   D(14,5,6,16)          -36.5104         estimate D2E/DX2                !
 ! D33   D(15,5,6,16)           81.0799         estimate D2E/DX2                !
 --------------------------------------------------------------------------------
 Trust Radius=3.00D-01 FncErr=1.00D-07 GrdErr=1.00D-07
 Number of steps in this run=     84 maximum allowed number of steps=    100.
 GradGradGradGradGradGradGradGradGradGradGradGradGradGradGradGradGradGrad

                          Input orientation:                          
 ---------------------------------------------------------------------
 Center     Atomic      Atomic             Coordinates (Angstroms)
 Number     Number       Type             X           Y           Z
 ---------------------------------------------------------------------
      1          6           0        1.860440    1.256300    1.752260
      2          6           0        1.195010    1.010150    3.104980
      3          8           0        0.614560   -0.289060    3.158070
      4          6           0        3.172590    0.474600    1.585560
      5          6           0        4.409770    1.311240    1.903040
      6          8           0        4.944610    1.819580    0.687420
      7          1           0        2.035400    2.330260    1.619330
      8          1           0        1.167540    0.938210    0.963970
      9          1           0        0.383560    1.727920    3.256250
     10          1           0        1.901350    1.115310    3.934310
     11          1           0        1.310890   -0.946270    3.011250
     12          1           0        3.232220    0.113780    0.551560
     13          1           0        3.171600   -0.407320    2.233800
     14          1           0        5.173590    0.681660    2.370580
     15          1           0        4.194250    2.151140    2.570760
     16          1           0        5.889100    1.998300    0.838090
 ---------------------------------------------------------------------
                    Distance matrix (angstroms):
                    1          2          3          4          5
     1  C    0.000000
     2  C    1.527494   0.000000
     3  O    2.432418   1.423969   0.000000
     4  C    1.536418   2.550740   3.098303   0.000000
     5  C    2.554376   3.445286   4.305773   1.526884   0.000000
     6  O    3.311083   4.534234   5.412930   2.399100   1.422039
     7  H    1.096208   2.157800   3.353706   2.176652   2.599332
     8  H    1.096674   2.142394   2.574112   2.149775   3.396036
     9  H    2.159997   1.093859   2.032537   3.484351   4.267923
    10  H    2.186983   1.094424   2.056850   2.746486   3.233669
    11  H    2.595838   1.962089   0.968688   2.741786   3.990932
    12  H    2.151468   3.387279   3.715955   1.096769   2.155698
    13  H    2.172246   2.583618   2.721528   1.094531   2.143809
    14  H    3.418990   4.059107   4.727282   2.159428   1.094708
    15  H    2.630086   3.253105   4.371921   2.196633   1.094409
    16  H    4.197186   5.305630   6.199604   3.203092   1.947970
                    6          7          8          9         10
     6  O    0.000000
     7  H    3.097217   0.000000
     8  H    3.888387   1.766488   0.000000
     9  H    5.235501   2.402269   2.548100   0.000000
    10  H    4.505521   2.617863   3.064761   1.771650   0.000000
    11  H    5.123869   3.632906   2.786246   2.840996   2.334694
    12  H    2.420845   2.735927   2.261121   4.246841   3.770580
    13  H    3.239435   3.027023   2.727485   3.657570   2.612216
    14  H    2.044583   3.623602   4.253564   4.982315   3.652514
    15  H    2.054250   2.365996   3.635099   3.894916   2.861748
    16  H    0.972987   3.946079   4.840740   6.019267   5.125271
                   11         12         13         14         15
    11  H    0.000000
    12  H    3.296254   0.000000
    13  H    2.087376   1.762144   0.000000
    14  H    4.240409   2.720338   2.283101   0.000000
    15  H    4.254615   3.025476   2.775801   1.777231   0.000000
    16  H    5.861154   3.269943   3.888421   2.143367   2.428584
                   16
    16  H    0.000000
 Stoichiometry    C4H10O2
 Framework group  C1[X(C4H10O2)]
 Deg. of freedom    42
 Full point group                 C1      NOp   1
 Largest Abelian subgroup         C1      NOp   1
 Largest concise Abelian subgroup C1      NOp   1
                         Standard orientation:                         
 ---------------------------------------------------------------------
 Center     Atomic      Atomic             Coordinates (Angstroms)
 Number     Number       Type             X           Y           Z
 ---------------------------------------------------------------------
      1          6           0       -0.539818    0.674504   -0.461990
      2          6           0       -1.748685    0.491729    0.453692
      3          8           0       -2.640163   -0.487805   -0.069248
      4          6           0        0.441218   -0.505865   -0.392125
      5          6           0        1.614012   -0.251647    0.551961
      6          8           0        2.727196    0.198891   -0.209638
      7          1           0       -0.028960    1.611811   -0.212690
      8          1           0       -0.899233    0.762958   -1.494312
      9          1           0       -2.309072    1.428719    0.521112
     10          1           0       -1.455128    0.197198    1.466036
     11          1           0       -2.163872   -1.327021   -0.154221
     12          1           0        0.822006   -0.700429   -1.402099
     13          1           0       -0.080078   -1.411204   -0.065613
     14          1           0        1.900001   -1.184592    1.048157
     15          1           0        1.387240    0.495379    1.318941
     16          1           0        3.530465   -0.013833    0.296537
 ---------------------------------------------------------------------
 Rotational constants (GHZ):     10.3552615      1.4151203      1.3884146
 Standard basis: VSTO-6G (5D, 7F)
 There are    34 symmetry adapted cartesian basis functions of A   symmetry.
 There are    34 symmetry adapted basis functions of A   symmetry.
    34 basis functions,   204 primitive gaussians,    34 cartesian basis functions
    19 alpha electrons       19 beta electrons
       nuclear repulsion energy       175.2468203055 Hartrees.
 Integral buffers will be    131072 words long.
 Regular integral format.
 Two-electron integral symmetry is turned off.
 Do NDO integrals.
 One-electron integrals computed using PRISM.
 NBasis=    34 RedAO= F EigKep=  0.00D+00  NBF=    34
 NBsUse=    34 1.00D-04 EigRej=  0.00D+00 NBFU=    34
 Simple Huckel Guess.
 Overlap will be assumed to be unity.
 Keep J ints in memory in canonical form, NReq=895124.
 Requested convergence on RMS density matrix=1.00D-08 within 128 cycles.
 Requested convergence on MAX density matrix=1.00D-06.
 Requested convergence on             energy=1.00D-06.
 No special actions if energy rises.
 SCF Done:  E(RAM1) = -0.186883085954     A.U. after   13 cycles
            NFock= 12  Conv=0.35D-08     -V/T= 0.9925

 **********************************************************************

            Population analysis using the SCF density.

 **********************************************************************

 Orbital symmetries:
       Occupied  (A) (A) (A) (A) (A) (A) (A) (A) (A) (A) (A) (A)
                 (A) (A) (A) (A) (A) (A) (A)
       Virtual   (A) (A) (A) (A) (A) (A) (A) (A) (A) (A) (A) (A)
                 (A) (A) (A)
 The electronic state is 1-A.
 Alpha  occ. eigenvalues --   -1.43227  -1.39108  -1.24761  -1.06684  -0.91207
 Alpha  occ. eigenvalues --   -0.80127  -0.68870  -0.66205  -0.60604  -0.59143
 Alpha  occ. eigenvalues --   -0.56124  -0.54058  -0.50996  -0.49399  -0.46597
 Alpha  occ. eigenvalues --   -0.44374  -0.43023  -0.40850  -0.40598
 Alpha virt. eigenvalues --    0.11825   0.12950   0.13190   0.13950   0.14592
 Alpha virt. eigenvalues --    0.15129   0.15422   0.16255   0.16467   0.17352
 Alpha virt. eigenvalues --    0.17660   0.18698   0.18801   0.22432   0.23137
          Condensed to atoms (all electrons):
               1          2          3          4          5          6
     1  C    4.198748   0.000000   0.000000   0.000000   0.000000   0.000000
     2  C    0.000000   4.017550   0.000000   0.000000   0.000000   0.000000
     3  O    0.000000   0.000000   6.334057   0.000000   0.000000   0.000000
     4  C    0.000000   0.000000   0.000000   4.161603   0.000000   0.000000
     5  C    0.000000   0.000000   0.000000   0.000000   4.011941   0.000000
     6  O    0.000000   0.000000   0.000000   0.000000   0.000000   6.335413
     7  H    0.000000   0.000000   0.000000   0.000000   0.000000   0.000000
     8  H    0.000000   0.000000   0.000000   0.000000   0.000000   0.000000
     9  H    0.000000   0.000000   0.000000   0.000000   0.000000   0.000000
    10  H    0.000000   0.000000   0.000000   0.000000   0.000000   0.000000
    11  H    0.000000   0.000000   0.000000   0.000000   0.000000   0.000000
    12  H    0.000000   0.000000   0.000000   0.000000   0.000000   0.000000
    13  H    0.000000   0.000000   0.000000   0.000000   0.000000   0.000000
    14  H    0.000000   0.000000   0.000000   0.000000   0.000000   0.000000
    15  H    0.000000   0.000000   0.000000   0.000000   0.000000   0.000000
    16  H    0.000000   0.000000   0.000000   0.000000   0.000000   0.000000
               7          8          9         10         11         12
     1  C    0.000000   0.000000   0.000000   0.000000   0.000000   0.000000
     2  C    0.000000   0.000000   0.000000   0.000000   0.000000   0.000000
     3  O    0.000000   0.000000   0.000000   0.000000   0.000000   0.000000
     4  C    0.000000   0.000000   0.000000   0.000000   0.000000   0.000000
     5  C    0.000000   0.000000   0.000000   0.000000   0.000000   0.000000
     6  O    0.000000   0.000000   0.000000   0.000000   0.000000   0.000000
     7  H    0.901668   0.000000   0.000000   0.000000   0.000000   0.000000
     8  H    0.000000   0.902982   0.000000   0.000000   0.000000   0.000000
     9  H    0.000000   0.000000   0.895538   0.000000   0.000000   0.000000
    10  H    0.000000   0.000000   0.000000   0.940440   0.000000   0.000000
    11  H    0.000000   0.000000   0.000000   0.000000   0.801707   0.000000
    12  H    0.000000   0.000000   0.000000   0.000000   0.000000   0.894834
    13  H    0.000000   0.000000   0.000000   0.000000   0.000000   0.000000
    14  H    0.000000   0.000000   0.000000   0.000000   0.000000   0.000000
    15  H    0.000000   0.000000   0.000000   0.000000   0.000000   0.000000
    16  H    0.000000   0.000000   0.000000   0.000000   0.000000   0.000000
              13         14         15         16
     1  C    0.000000   0.000000   0.000000   0.000000
     2  C    0.000000   0.000000   0.000000   0.000000
     3  O    0.000000   0.000000   0.000000   0.000000
     4  C    0.000000   0.000000   0.000000   0.000000
     5  C    0.000000   0.000000   0.000000   0.000000
     6  O    0.000000   0.000000   0.000000   0.000000
     7  H    0.000000   0.000000   0.000000   0.000000
     8  H    0.000000   0.000000   0.000000   0.000000
     9  H    0.000000   0.000000   0.000000   0.000000
    10  H    0.000000   0.000000   0.000000   0.000000
    11  H    0.000000   0.000000   0.000000   0.000000
    12  H    0.000000   0.000000   0.000000   0.000000
    13  H    0.925750   0.000000   0.000000   0.000000
    14  H    0.000000   0.947192   0.000000   0.000000
    15  H    0.000000   0.000000   0.931375   0.000000
    16  H    0.000000   0.000000   0.000000   0.799202
 Mulliken charges:
               1
     1  C   -0.198748
     2  C   -0.017550
     3  O   -0.334057
     4  C   -0.161603
     5  C   -0.011941
     6  O   -0.335413
     7  H    0.098332
     8  H    0.097018
     9  H    0.104462
    10  H    0.059560
    11  H    0.198293
    12  H    0.105166
    13  H    0.074250
    14  H    0.052808
    15  H    0.068625
    16  H    0.200798
 Sum of Mulliken charges =  -0.00000
 Mulliken charges with hydrogens summed into heavy atoms:
               1
     1  C   -0.003399
     2  C    0.146472
     3  O   -0.135764
     4  C    0.017813
     5  C    0.109493
     6  O   -0.134615
 Charge=              0.0000 electrons
 Dipole moment (field-independent basis, Debye):
    X=              1.5865    Y=             -0.8091    Z=              1.6548  Tot=              2.4310
 N-N= 1.752468203055D+02 E-N=-2.986301492052D+02  KE=-2.491814143747D+01
 Calling FoFJK, ICntrl=      2127 FMM=F ISym2X=0 I1Cent= 0 IOpClX= 0 NMat=1 NMatS=1 NMatT=0.
 ***** Axes restored to original set *****
 -------------------------------------------------------------------
 Center     Atomic                   Forces (Hartrees/Bohr)
 Number     Number              X              Y              Z
 -------------------------------------------------------------------
      1        6           0.016876352   -0.016058733    0.013673792
      2        6           0.008628060   -0.020439548   -0.018476353
      3        8          -0.004124771    0.003654945    0.000999151
      4        6          -0.009121656    0.027603283    0.005282007
      5        6          -0.002874488   -0.005570663   -0.017108457
      6        8           0.001801387    0.002278031   -0.005453115
      7        1           0.004221826    0.015288122   -0.000736841
      8        1          -0.011511757   -0.005505874   -0.011922857
      9        1          -0.018079715    0.007975352    0.001682779
     10        1           0.015462986    0.002770817    0.012978094
     11        1          -0.000817992    0.005980458    0.000006715
     12        1           0.002615722   -0.003923139   -0.016850764
     13        1          -0.000185959   -0.013210565    0.011931251
     14        1           0.012310140   -0.014020917    0.012097936
     15        1          -0.007169174    0.014257106    0.011405246
     16        1          -0.008030963   -0.001078676    0.000491415
 -------------------------------------------------------------------
 Cartesian Forces:  Max     0.027603283 RMS     0.011000100

 GradGradGradGradGradGradGradGradGradGradGradGradGradGradGradGradGradGrad
 Berny optimization.
 FormGI is forming the generalized inverse of G from B-inverse, IUseBI=4.
 Internal  Forces:  Max     0.021819781 RMS     0.006860039
 Search for a local minimum.
 Step number   1 out of a maximum of   84
 All quantities printed in internal units (Hartrees-Bohrs-Radians)
 Mixed Optimization -- RFO/linear search
 Second derivative matrix not updated -- first step.
 ITU=  0
     Eigenvalues ---    0.00284   0.00402   0.00410   0.01375   0.01400
     Eigenvalues ---    0.03505   0.03524   0.04828   0.04851   0.04960
     Eigenvalues ---    0.05175   0.05694   0.05697   0.08308   0.08364
     Eigenvalues ---    0.11438   0.11629   0.12193   0.12227   0.13715
     Eigenvalues ---    0.13869   0.16000   0.16000   0.21934   0.21941
     Eigenvalues ---    0.21995   0.22021   0.28839   0.29656   0.29713
     Eigenvalues ---    0.34042   0.34053   0.34105   0.34274   0.34294
     Eigenvalues ---    0.34306   0.34308   0.34370   0.41868   0.42155
     Eigenvalues ---    0.52771   0.53646
 RFO step:  Lambda=-1.17549971D-02 EMin= 2.84202242D-03
 Linear search not attempted -- first point.
 Iteration  1 RMS(Cart)=  0.05397269 RMS(Int)=  0.00110759
 Iteration  2 RMS(Cart)=  0.00160988 RMS(Int)=  0.00026325
 Iteration  3 RMS(Cart)=  0.00000148 RMS(Int)=  0.00026325
 Iteration  4 RMS(Cart)=  0.00000000 RMS(Int)=  0.00026325
 Variable       Old X    -DE/DX   Delta X   Delta X   Delta X     New X
                                 (Linear)    (Quad)   (Total)
    R1        2.88655  -0.00294   0.00000  -0.00955  -0.00955   2.87700
    R2        2.90341  -0.01252   0.00000  -0.04170  -0.04170   2.86170
    R3        2.07153   0.01574   0.00000   0.04462   0.04462   2.11615
    R4        2.07241   0.01744   0.00000   0.04951   0.04951   2.12192
    R5        2.69091  -0.00674   0.00000  -0.01566  -0.01566   2.67526
    R6        2.06709   0.01888   0.00000   0.05311   0.05311   2.12020
    R7        2.06816   0.02008   0.00000   0.05659   0.05659   2.12475
    R8        1.83056  -0.00465   0.00000  -0.00848  -0.00848   1.82208
    R9        2.88539  -0.00518   0.00000  -0.01677  -0.01677   2.86863
   R10        2.07259   0.01732   0.00000   0.04918   0.04918   2.12177
   R11        2.06836   0.01771   0.00000   0.04993   0.04993   2.11830
   R12        2.68726   0.00233   0.00000   0.00537   0.00537   2.69264
   R13        2.06870   0.02182   0.00000   0.06155   0.06155   2.13025
   R14        2.06813   0.01931   0.00000   0.05443   0.05443   2.12256
   R15        1.83868  -0.00792   0.00000  -0.01468  -0.01468   1.82400
    A1        1.96724  -0.00064   0.00000  -0.00562  -0.00579   1.96145
    A2        1.91218  -0.00001   0.00000  -0.00998  -0.01024   1.90194
    A3        1.89080   0.00011   0.00000   0.00771   0.00770   1.89851
    A4        1.92729  -0.00109   0.00000  -0.01769  -0.01786   1.90943
    A5        1.89023   0.00115   0.00000   0.01569   0.01573   1.90596
    A6        1.87323   0.00059   0.00000   0.01167   0.01179   1.88502
    A7        1.93652   0.00527   0.00000   0.01970   0.01966   1.95618
    A8        1.91760   0.00163   0.00000   0.00643   0.00649   1.92409
    A9        1.95458  -0.00471   0.00000  -0.01816  -0.01836   1.93622
   A10        1.86622  -0.00647   0.00000  -0.05564  -0.05550   1.81072
   A11        1.89916   0.00171   0.00000   0.02511   0.02519   1.92435
   A12        1.88697   0.00241   0.00000   0.02097   0.02118   1.90815
   A13        1.89689  -0.00702   0.00000  -0.04089  -0.04089   1.85600
   A14        1.97213  -0.00337   0.00000  -0.01913  -0.01920   1.95293
   A15        1.89242   0.00177   0.00000   0.01073   0.01060   1.90301
   A16        1.92295   0.00074   0.00000   0.00149   0.00135   1.92430
   A17        1.90947  -0.00015   0.00000  -0.00683  -0.00678   1.90269
   A18        1.89557   0.00074   0.00000  -0.00175  -0.00180   1.89376
   A19        1.86850   0.00046   0.00000   0.01740   0.01735   1.88585
   A20        1.89956  -0.00810   0.00000  -0.03627  -0.03672   1.86284
   A21        1.91668   0.00024   0.00000   0.00338   0.00377   1.92045
   A22        1.96905  -0.00198   0.00000  -0.03178  -0.03234   1.93671
   A23        1.88416   0.00637   0.00000   0.05553   0.05556   1.93972
   A24        1.89788   0.00334   0.00000   0.00302   0.00149   1.89937
   A25        1.89462   0.00060   0.00000   0.01037   0.01003   1.90465
   A26        1.87379  -0.00282   0.00000  -0.01642  -0.01642   1.85737
    D1       -1.27619  -0.00333   0.00000  -0.06044  -0.06038  -1.33657
    D2        2.94702   0.00040   0.00000  -0.00789  -0.00786   2.93916
    D3        0.84975  -0.00067   0.00000  -0.02683  -0.02684   0.82291
    D4        2.85355  -0.00146   0.00000  -0.02632  -0.02633   2.82722
    D5        0.79357   0.00226   0.00000   0.02623   0.02619   0.81977
    D6       -1.30370   0.00119   0.00000   0.00729   0.00721  -1.29648
    D7        0.81517  -0.00222   0.00000  -0.03913  -0.03909   0.77608
    D8       -1.24481   0.00151   0.00000   0.01341   0.01343  -1.23138
    D9        2.94111   0.00044   0.00000  -0.00552  -0.00555   2.93556
   D10       -1.69631   0.00079   0.00000   0.03597   0.03588  -1.66042
   D11        2.46710   0.00194   0.00000   0.04952   0.04953   2.51663
   D12        0.42749  -0.00006   0.00000   0.02151   0.02144   0.44893
   D13        0.44872  -0.00049   0.00000   0.00592   0.00597   0.45469
   D14       -1.67106   0.00066   0.00000   0.01947   0.01961  -1.65145
   D15        2.57251  -0.00134   0.00000  -0.00854  -0.00848   2.56404
   D16        2.49519   0.00028   0.00000   0.01927   0.01921   2.51440
   D17        0.37541   0.00143   0.00000   0.03283   0.03285   0.40826
   D18       -1.66420  -0.00057   0.00000   0.00482   0.00477  -1.65943
   D19        1.03373  -0.00096   0.00000  -0.00050  -0.00025   1.03348
   D20        3.12464   0.00004   0.00000  -0.01572  -0.01558   3.10907
   D21       -1.12429   0.00030   0.00000  -0.00795  -0.00834  -1.13264
   D22       -1.69271   0.00187   0.00000   0.03910   0.03870  -1.65401
   D23        2.53136  -0.00120   0.00000  -0.00866  -0.00867   2.52269
   D24        0.41539  -0.00080   0.00000  -0.00281  -0.00244   0.41294
   D25        0.41741   0.00178   0.00000   0.03524   0.03490   0.45231
   D26       -1.64171  -0.00129   0.00000  -0.01252  -0.01246  -1.65417
   D27        2.52551  -0.00089   0.00000  -0.00667  -0.00624   2.51926
   D28        2.45133   0.00266   0.00000   0.05129   0.05087   2.50220
   D29        0.39221  -0.00041   0.00000   0.00353   0.00351   0.39572
   D30       -1.72376  -0.00001   0.00000   0.00938   0.00973  -1.71403
   D31       -2.71678  -0.00214   0.00000  -0.04618  -0.04592  -2.76271
   D32       -0.63723  -0.00277   0.00000  -0.03077  -0.03136  -0.66859
   D33        1.41511   0.00328   0.00000   0.01383   0.01416   1.42927
         Item               Value     Threshold  Converged?
 Maximum Force            0.021820     0.000450     NO 
 RMS     Force            0.006860     0.000300     NO 
 Maximum Displacement     0.185331     0.001800     NO 
 RMS     Displacement     0.054580     0.001200     NO 
 Predicted change in Energy=-6.233117D-03
 GradGradGradGradGradGradGradGradGradGradGradGradGradGradGradGradGradGrad

                          Input orientation:                          
 ---------------------------------------------------------------------
 Center     Atomic      Atomic             Coordinates (Angstroms)
 Number     Number       Type             X           Y           Z
 ---------------------------------------------------------------------
      1          6           0        1.890311    1.231251    1.734458
      2          6           0        1.242803    1.009927    3.094449
      3          8           0        0.588620   -0.242967    3.174833
      4          6           0        3.179457    0.452635    1.575993
      5          6           0        4.395046    1.294308    1.919924
      6          8           0        4.876802    1.839116    0.694615
      7          1           0        2.097153    2.323944    1.603191
      8          1           0        1.167880    0.916249    0.934641
      9          1           0        0.417576    1.752487    3.256946
     10          1           0        1.999423    1.107737    3.920386
     11          1           0        1.262910   -0.912151    3.009866
     12          1           0        3.266672    0.101127    0.513213
     13          1           0        3.171948   -0.449847    2.240831
     14          1           0        5.179385    0.654998    2.416767
     15          1           0        4.118120    2.138048    2.607685
     16          1           0        5.802375    2.068939    0.843432
 ---------------------------------------------------------------------
                    Distance matrix (angstroms):
                    1          2          3          4          5
     1  C    0.000000
     2  C    1.522441   0.000000
     3  O    2.437704   1.415684   0.000000
     4  C    1.514349   2.523274   3.122914   0.000000
     5  C    2.512383   3.375946   4.292656   1.518011   0.000000
     6  O    3.220233   4.433137   5.373552   2.362232   1.424881
     7  H    1.119818   2.163425   3.366715   2.161925   2.537869
     8  H    1.122872   2.163136   2.588008   2.161646   3.395336
     9  H    2.181422   1.121963   2.004454   3.484710   4.221116
    10  H    2.192132   1.124372   2.090602   2.705147   3.126606
    11  H    2.571861   1.924043   0.964203   2.755320   3.983304
    12  H    2.159395   3.403636   3.791383   1.122793   2.162347
    13  H    2.173729   2.565385   2.754767   1.120955   2.154305
    14  H    3.408170   4.010225   4.738790   2.178890   1.127280
    15  H    2.558894   3.126826   4.295144   2.187714   1.123209
    16  H    4.098767   5.194062   6.161460   3.166825   1.933769
                    6          7          8          9         10
     6  O    0.000000
     7  H    2.964290   0.000000
     8  H    3.829543   1.814418   0.000000
     9  H    5.143709   2.425376   2.579796   0.000000
    10  H    4.384042   2.618798   3.105286   1.832511   0.000000
    11  H    5.098047   3.625880   2.767424   2.806409   2.334833
    12  H    2.376138   2.738017   2.290623   4.286304   3.772003
    13  H    3.246023   3.042316   2.754748   3.670058   2.573284
    14  H    2.111753   3.598255   4.284521   4.958347   3.546548
    15  H    2.079614   2.264481   3.604967   3.776801   2.696962
    16  H    0.965220   3.790901   4.776563   5.909420   4.985378
                   11         12         13         14         15
    11  H    0.000000
    12  H    3.357837   0.000000
    13  H    2.109400   1.815821   0.000000
    14  H    4.259871   2.754771   2.298138   0.000000
    15  H    4.197343   3.043160   2.779753   1.833622   0.000000
    16  H    5.846972   3.226627   3.900789   2.205159   2.440098
                   16
    16  H    0.000000
 Stoichiometry    C4H10O2
 Framework group  C1[X(C4H10O2)]
 Deg. of freedom    42
 Full point group                 C1      NOp   1
 Largest Abelian subgroup         C1      NOp   1
 Largest concise Abelian subgroup C1      NOp   1
                         Standard orientation:                         
 ---------------------------------------------------------------------
 Center     Atomic      Atomic             Coordinates (Angstroms)
 Number     Number       Type             X           Y           Z
 ---------------------------------------------------------------------
      1          6           0       -0.504415    0.657903   -0.452366
      2          6           0       -1.698175    0.459269    0.471380
      3          8           0       -2.652819   -0.430947   -0.076647
      4          6           0        0.449661   -0.517727   -0.422596
      5          6           0        1.591249   -0.295738    0.553034
      6          8           0        2.677930    0.234451   -0.200829
      7          1           0        0.040911    1.587350   -0.147830
      8          1           0       -0.879012    0.803104   -1.500905
      9          1           0       -2.264947    1.420806    0.585473
     10          1           0       -1.367170    0.099969    1.484075
     11          1           0       -2.193970   -1.266998   -0.218642
     12          1           0        0.872351   -0.672434   -1.451218
     13          1           0       -0.094702   -1.451868   -0.126643
     14          1           0        1.874383   -1.270039    1.044290
     15          1           0        1.303882    0.446300    1.345750
     16          1           0        3.477461    0.053535    0.308750
 ---------------------------------------------------------------------
 Rotational constants (GHZ):     10.3616776      1.4423799      1.4205645
 Standard basis: VSTO-6G (5D, 7F)
 There are    34 symmetry adapted cartesian basis functions of A   symmetry.
 There are    34 symmetry adapted basis functions of A   symmetry.
    34 basis functions,   204 primitive gaussians,    34 cartesian basis functions
    19 alpha electrons       19 beta electrons
       nuclear repulsion energy       175.6162015700 Hartrees.
 Integral buffers will be    131072 words long.
 Regular integral format.
 Two-electron integral symmetry is turned off.
 Do NDO integrals.
 One-electron integrals computed using PRISM.
 NBasis=    34 RedAO= F EigKep=  0.00D+00  NBF=    34
 NBsUse=    34 1.00D-04 EigRej=  0.00D+00 NBFU=    34
 Initial guess from the checkpoint file:  "1-4-butanediol-open-opt.chk"
 B after Tr=    -0.000000   -0.000000    0.000000
         Rot=    0.999829   -0.018350    0.000365    0.002381 Ang=  -2.12 deg.
 Overlap will be assumed to be unity.
 Keep J ints in memory in canonical form, NReq=895124.
 Requested convergence on RMS density matrix=1.00D-08 within 128 cycles.
 Requested convergence on MAX density matrix=1.00D-06.
 Requested convergence on             energy=1.00D-06.
 No special actions if energy rises.
 SCF Done:  E(RAM1) = -0.192094727311     A.U. after   12 cycles
            NFock= 11  Conv=0.13D-08     -V/T= 0.9923
 Calling FoFJK, ICntrl=      2127 FMM=F ISym2X=0 I1Cent= 0 IOpClX= 0 NMat=1 NMatS=1 NMatT=0.
 ***** Axes restored to original set *****
 -------------------------------------------------------------------
 Center     Atomic                   Forces (Hartrees/Bohr)
 Number     Number              X              Y              Z
 -------------------------------------------------------------------
      1        6          -0.001236327   -0.002452569    0.001933922
      2        6          -0.001710040    0.001378008   -0.002097892
      3        8           0.003129535    0.000589366    0.000840319
      4        6          -0.002911977   -0.000628199    0.000425295
      5        6           0.003475432   -0.000298447   -0.003267767
      6        8           0.003223306   -0.001767211    0.005978458
      7        1          -0.001430696    0.000935659   -0.000857399
      8        1          -0.000122220    0.000711236    0.001003193
      9        1          -0.000465661    0.001717363    0.000536772
     10        1          -0.000438313   -0.000476509   -0.001251328
     11        1          -0.001477246   -0.002306274   -0.000067514
     12        1           0.000959331   -0.000484605    0.000430885
     13        1          -0.000099145   -0.000727463   -0.000798790
     14        1          -0.001010378    0.002991910   -0.002703370
     15        1           0.001710891   -0.000030401    0.000764426
     16        1          -0.001596493    0.000848138   -0.000869210
 -------------------------------------------------------------------
 Cartesian Forces:  Max     0.005978458 RMS     0.001814155

 GradGradGradGradGradGradGradGradGradGradGradGradGradGradGradGradGradGrad
 Berny optimization.
 Using GEDIIS/GDIIS optimizer.
 FormGI is forming the generalized inverse of G from B-inverse, IUseBI=4.
 Internal  Forces:  Max     0.005591601 RMS     0.001564696
 Search for a local minimum.
 Step number   2 out of a maximum of   84
 All quantities printed in internal units (Hartrees-Bohrs-Radians)
 Mixed Optimization -- RFO/linear search
 Update second derivatives using D2CorX and points    1    2
 DE= -5.21D-03 DEPred=-6.23D-03 R= 8.36D-01
 TightC=F SS=  1.41D+00  RLast= 2.49D-01 DXNew= 5.0454D-01 7.4734D-01
 Trust test= 8.36D-01 RLast= 2.49D-01 DXMaxT set to 5.05D-01
 ITU=  1  0
 Use linear search instead of GDIIS.
     Eigenvalues ---    0.00283   0.00402   0.00409   0.01374   0.01396
     Eigenvalues ---    0.03599   0.03643   0.04861   0.04870   0.04988
     Eigenvalues ---    0.05568   0.05811   0.05833   0.08139   0.08228
     Eigenvalues ---    0.11365   0.11740   0.12065   0.12135   0.13519
     Eigenvalues ---    0.13868   0.16000   0.16490   0.21634   0.21957
     Eigenvalues ---    0.21987   0.22675   0.28939   0.29227   0.29755
     Eigenvalues ---    0.33217   0.34049   0.34085   0.34173   0.34299
     Eigenvalues ---    0.34304   0.34334   0.36758   0.41845   0.43202
     Eigenvalues ---    0.52592   0.53690
 RFO step:  Lambda=-1.17079314D-03 EMin= 2.82672204D-03
 Quartic linear search produced a step of -0.09461.
 Iteration  1 RMS(Cart)=  0.07168481 RMS(Int)=  0.00187561
 Iteration  2 RMS(Cart)=  0.00259065 RMS(Int)=  0.00002987
 Iteration  3 RMS(Cart)=  0.00000264 RMS(Int)=  0.00002981
 Iteration  4 RMS(Cart)=  0.00000000 RMS(Int)=  0.00002981
 Variable       Old X    -DE/DX   Delta X   Delta X   Delta X     New X
                                 (Linear)    (Quad)   (Total)
    R1        2.87700  -0.00154   0.00090  -0.00633  -0.00543   2.87157
    R2        2.86170   0.00325   0.00395   0.00292   0.00686   2.86857
    R3        2.11615   0.00075  -0.00422   0.00968   0.00546   2.12161
    R4        2.12192  -0.00084  -0.00468   0.00634   0.00165   2.12357
    R5        2.67526   0.00080   0.00148  -0.00098   0.00050   2.67576
    R6        2.12020   0.00156  -0.00502   0.01324   0.00822   2.12842
    R7        2.12475  -0.00126  -0.00535   0.00647   0.00112   2.12587
    R8        1.82208   0.00058   0.00080  -0.00049   0.00031   1.82239
    R9        2.86863   0.00559   0.00159   0.01403   0.01561   2.88424
   R10        2.12177  -0.00018  -0.00465   0.00801   0.00336   2.12513
   R11        2.11830   0.00011  -0.00472   0.00891   0.00419   2.12249
   R12        2.69264  -0.00420  -0.00051  -0.00803  -0.00854   2.68409
   R13        2.13025  -0.00359  -0.00582   0.00120  -0.00463   2.12562
   R14        2.12256   0.00002  -0.00515   0.00945   0.00431   2.12686
   R15        1.82400  -0.00146   0.00139  -0.00503  -0.00364   1.82037
    A1        1.96145   0.00164   0.00055   0.00831   0.00886   1.97031
    A2        1.90194  -0.00106   0.00097  -0.00934  -0.00838   1.89357
    A3        1.89851  -0.00066  -0.00073  -0.00185  -0.00265   1.89585
    A4        1.90943   0.00026   0.00169   0.00231   0.00405   1.91347
    A5        1.90596   0.00003  -0.00149   0.00791   0.00640   1.91237
    A6        1.88502  -0.00028  -0.00112  -0.00805  -0.00922   1.87580
    A7        1.95618   0.00183  -0.00186   0.01170   0.00982   1.96600
    A8        1.92409  -0.00019  -0.00061   0.00345   0.00278   1.92687
    A9        1.93622  -0.00116   0.00174  -0.01328  -0.01152   1.92470
   A10        1.81072   0.00007   0.00525  -0.00111   0.00407   1.81479
   A11        1.92435  -0.00069  -0.00238  -0.00170  -0.00406   1.92029
   A12        1.90815   0.00021  -0.00200   0.00182  -0.00020   1.90794
   A13        1.85600   0.00486   0.00387   0.02009   0.02396   1.87996
   A14        1.95293   0.00342   0.00182   0.01380   0.01559   1.96853
   A15        1.90301  -0.00059  -0.00100   0.00238   0.00141   1.90442
   A16        1.92430  -0.00069  -0.00013   0.00086   0.00074   1.92504
   A17        1.90269  -0.00123   0.00064  -0.00670  -0.00611   1.89658
   A18        1.89376  -0.00108   0.00017  -0.00381  -0.00370   1.89007
   A19        1.88585   0.00006  -0.00164  -0.00737  -0.00904   1.87681
   A20        1.86284   0.00411   0.00347   0.01198   0.01546   1.87830
   A21        1.92045   0.00061  -0.00036   0.00703   0.00667   1.92713
   A22        1.93671   0.00028   0.00306   0.00281   0.00591   1.94262
   A23        1.93972  -0.00287  -0.00526  -0.01043  -0.01575   1.92397
   A24        1.89937  -0.00156  -0.00014  -0.00412  -0.00424   1.89514
   A25        1.90465  -0.00054  -0.00095  -0.00709  -0.00808   1.89657
   A26        1.85737   0.00180   0.00155   0.00722   0.00877   1.86615
    D1       -1.33657   0.00038   0.00571  -0.02552  -0.01981  -1.35638
    D2        2.93916  -0.00068   0.00074  -0.03327  -0.03254   2.90662
    D3        0.82291  -0.00005   0.00254  -0.02906  -0.02654   0.79637
    D4        2.82722  -0.00029   0.00249  -0.02742  -0.02488   2.80234
    D5        0.81977  -0.00135  -0.00248  -0.03516  -0.03762   0.78215
    D6       -1.29648  -0.00071  -0.00068  -0.03096  -0.03161  -1.32809
    D7        0.77608   0.00102   0.00370  -0.01148  -0.00778   0.76829
    D8       -1.23138  -0.00004  -0.00127  -0.01922  -0.02052  -1.25190
    D9        2.93556   0.00059   0.00053  -0.01502  -0.01452   2.92104
   D10       -1.66042   0.00046  -0.00339   0.10257   0.09919  -1.56123
   D11        2.51663   0.00021  -0.00469   0.10053   0.09584   2.61247
   D12        0.44893   0.00091  -0.00203   0.10757   0.10557   0.55450
   D13        0.45469   0.00038  -0.00056   0.09783   0.09728   0.55196
   D14       -1.65145   0.00013  -0.00186   0.09580   0.09393  -1.55752
   D15        2.56404   0.00083   0.00080   0.10283   0.10366   2.66769
   D16        2.51440   0.00021  -0.00182   0.09405   0.09223   2.60662
   D17        0.40826  -0.00004  -0.00311   0.09202   0.08887   0.49714
   D18       -1.65943   0.00066  -0.00045   0.09905   0.09861  -1.56083
   D19        1.03348  -0.00063   0.00002  -0.01740  -0.01742   1.01606
   D20        3.10907   0.00010   0.00147  -0.00806  -0.00658   3.10249
   D21       -1.13264   0.00007   0.00079  -0.00733  -0.00651  -1.13915
   D22       -1.65401  -0.00019  -0.00366   0.04878   0.04516  -1.60885
   D23        2.52269   0.00046   0.00082   0.05016   0.05097   2.57366
   D24        0.41294   0.00055   0.00023   0.05254   0.05277   0.46572
   D25        0.45231   0.00043  -0.00330   0.05609   0.05279   0.50510
   D26       -1.65417   0.00107   0.00118   0.05746   0.05860  -1.59558
   D27        2.51926   0.00117   0.00059   0.05985   0.06040   2.57967
   D28        2.50220  -0.00079  -0.00481   0.04141   0.03664   2.53884
   D29        0.39572  -0.00015  -0.00033   0.04278   0.04245   0.43817
   D30       -1.71403  -0.00005  -0.00092   0.04517   0.04426  -1.66977
   D31       -2.76271  -0.00050   0.00434  -0.03795  -0.03358  -2.79629
   D32       -0.66859   0.00115   0.00297  -0.02793  -0.02504  -0.69362
   D33        1.42927  -0.00231  -0.00134  -0.04583  -0.04712   1.38215
         Item               Value     Threshold  Converged?
 Maximum Force            0.005592     0.000450     NO 
 RMS     Force            0.001565     0.000300     NO 
 Maximum Displacement     0.169716     0.001800     NO 
 RMS     Displacement     0.072080     0.001200     NO 
 Predicted change in Energy=-7.298468D-04
 GradGradGradGradGradGradGradGradGradGradGradGradGradGradGradGradGradGrad

                          Input orientation:                          
 ---------------------------------------------------------------------
 Center     Atomic      Atomic             Coordinates (Angstroms)
 Number     Number       Type             X           Y           Z
 ---------------------------------------------------------------------
      1          6           0        1.870544    1.200133    1.700785
      2          6           0        1.261289    1.040072    3.083635
      3          8           0        0.605463   -0.203798    3.249748
      4          6           0        3.173013    0.437770    1.537558
      5          6           0        4.394623    1.263232    1.932263
      6          8           0        4.874576    1.907846    0.761133
      7          1           0        2.047110    2.292977    1.513746
      8          1           0        1.127121    0.842942    0.937539
      9          1           0        0.446425    1.800872    3.244126
     10          1           0        2.050840    1.167933    3.874714
     11          1           0        1.252225   -0.900485    3.087468
     12          1           0        3.283207    0.122696    0.463668
     13          1           0        3.159998   -0.494359    2.164041
     14          1           0        5.192814    0.600016    2.366173
     15          1           0        4.128360    2.050349    2.691391
     16          1           0        5.788872    2.157604    0.933242
 ---------------------------------------------------------------------
                    Distance matrix (angstroms):
                    1          2          3          4          5
     1  C    0.000000
     2  C    1.519568   0.000000
     3  O    2.443510   1.415950   0.000000
     4  C    1.517981   2.531365   3.152065   0.000000
     5  C    2.535456   3.345630   4.271496   1.526274   0.000000
     6  O    3.226145   4.382110   5.373785   2.378923   1.420361
     7  H    1.122705   2.156812   3.365403   2.170258   2.597373
     8  H    1.123747   2.159303   2.591158   2.170221   3.441320
     9  H    2.184239   1.126311   2.010977   3.493523   4.195033
    10  H    2.181631   1.124965   2.088383   2.693457   3.045573
    11  H    2.591873   1.940582   0.964369   2.807592   3.986331
    12  H    2.164935   3.434234   3.878035   1.124569   2.166296
    13  H    2.179129   2.608684   2.790849   1.123171   2.160358
    14  H    3.440983   4.020609   4.740318   2.189183   1.124831
    15  H    2.608045   3.065063   4.219448   2.201006   1.125488
    16  H    4.105992   5.135375   6.148996   3.188377   1.934392
                    6          7          8          9         10
     6  O    0.000000
     7  H    2.951155   0.000000
     8  H    3.899815   1.811352   0.000000
     9  H    5.077914   2.408023   2.588690   0.000000
    10  H    4.267943   2.615322   3.096106   1.836409   0.000000
    11  H    5.140037   3.647827   2.770809   2.823329   2.352849
    12  H    2.409917   2.709376   2.322071   4.312140   3.774452
    13  H    3.267800   3.070936   2.724935   3.714586   2.630561
    14  H    2.094719   3.672629   4.316233   4.974039   3.531321
    15  H    2.074377   2.403605   3.679845   3.731540   2.548529
    16  H    0.963296   3.788944   4.843581   5.831739   4.858456
                   11         12         13         14         15
    11  H    0.000000
    12  H    3.472192   0.000000
    13  H    2.158067   1.813065   0.000000
    14  H    4.277852   2.737510   2.317511   0.000000
    15  H    4.139619   3.064780   2.773330   1.828195   0.000000
    16  H    5.879946   3.261856   3.931762   2.198785   2.420722
                   16
    16  H    0.000000
 Stoichiometry    C4H10O2
 Framework group  C1[X(C4H10O2)]
 Deg. of freedom    42
 Full point group                 C1      NOp   1
 Largest Abelian subgroup         C1      NOp   1
 Largest concise Abelian subgroup C1      NOp   1
                         Standard orientation:                         
 ---------------------------------------------------------------------
 Center     Atomic      Atomic             Coordinates (Angstroms)
 Number     Number       Type             X           Y           Z
 ---------------------------------------------------------------------
      1          6           0       -0.514460    0.678289   -0.458635
      2          6           0       -1.666340    0.437332    0.502718
      3          8           0       -2.658071   -0.416545   -0.037909
      4          6           0        0.455880   -0.487370   -0.521452
      5          6           0        1.578357   -0.378245    0.506968
      6          8           0        2.669194    0.284691   -0.115942
      7          1           0        0.030249    1.605624   -0.136439
      8          1           0       -0.935855    0.872845   -1.482051
      9          1           0       -2.216381    1.399091    0.705330
     10          1           0       -1.282870    0.016441    1.472949
     11          1           0       -2.233505   -1.251876   -0.265890
     12          1           0        0.911800   -0.532066   -1.548483
     13          1           0       -0.086716   -1.455666   -0.349678
     14          1           0        1.892108   -1.400710    0.855350
     15          1           0        1.256192    0.223967    1.401548
     16          1           0        3.455370    0.077142    0.400574
 ---------------------------------------------------------------------
 Rotational constants (GHZ):     10.0447819      1.4480406      1.4264355
 Standard basis: VSTO-6G (5D, 7F)
 There are    34 symmetry adapted cartesian basis functions of A   symmetry.
 There are    34 symmetry adapted basis functions of A   symmetry.
    34 basis functions,   204 primitive gaussians,    34 cartesian basis functions
    19 alpha electrons       19 beta electrons
       nuclear repulsion energy       175.4587914604 Hartrees.
 Integral buffers will be    131072 words long.
 Regular integral format.
 Two-electron integral symmetry is turned off.
 Do NDO integrals.
 One-electron integrals computed using PRISM.
 NBasis=    34 RedAO= F EigKep=  0.00D+00  NBF=    34
 NBsUse=    34 1.00D-04 EigRej=  0.00D+00 NBFU=    34
 Initial guess from the checkpoint file:  "1-4-butanediol-open-opt.chk"
 B after Tr=     0.000000    0.000000   -0.000000
         Rot=    0.999192   -0.040165   -0.001075    0.000173 Ang=  -4.61 deg.
 Overlap will be assumed to be unity.
 Keep J ints in memory in canonical form, NReq=895124.
 Requested convergence on RMS density matrix=1.00D-08 within 128 cycles.
 Requested convergence on MAX density matrix=1.00D-06.
 Requested convergence on             energy=1.00D-06.
 No special actions if energy rises.
 SCF Done:  E(RAM1) = -0.192842391395     A.U. after   12 cycles
            NFock= 11  Conv=0.21D-08     -V/T= 0.9922
 Calling FoFJK, ICntrl=      2127 FMM=F ISym2X=0 I1Cent= 0 IOpClX= 0 NMat=1 NMatS=1 NMatT=0.
 ***** Axes restored to original set *****
 -------------------------------------------------------------------
 Center     Atomic                   Forces (Hartrees/Bohr)
 Number     Number              X              Y              Z
 -------------------------------------------------------------------
      1        6           0.001912135   -0.000966341   -0.000236779
      2        6           0.000074964   -0.000163371    0.000371413
      3        8           0.000183470    0.001222122    0.000389754
      4        6           0.000224195    0.002140699    0.000359538
      5        6          -0.001724602   -0.000499476    0.000186501
      6        8          -0.000799319   -0.001471591   -0.000427685
      7        1           0.000235306   -0.001038254   -0.000681970
      8        1           0.001217959   -0.000121762    0.000894400
      9        1           0.001150923   -0.001108628   -0.000092869
     10        1          -0.000940134   -0.000257216   -0.000503421
     11        1           0.000340687    0.000668850   -0.000411357
     12        1           0.000339016    0.000764115    0.001434023
     13        1          -0.000571738    0.001326793   -0.000788841
     14        1          -0.001372160    0.000341536   -0.000917357
     15        1          -0.000171646   -0.001547469   -0.000104123
     16        1          -0.000099057    0.000709993    0.000528774
 -------------------------------------------------------------------
 Cartesian Forces:  Max     0.002140699 RMS     0.000883092

 GradGradGradGradGradGradGradGradGradGradGradGradGradGradGradGradGradGrad
 Berny optimization.
 Using GEDIIS/GDIIS optimizer.
 FormGI is forming the generalized inverse of G from B-inverse, IUseBI=4.
 Internal  Forces:  Max     0.004859073 RMS     0.001010439
 Search for a local minimum.
 Step number   3 out of a maximum of   84
 All quantities printed in internal units (Hartrees-Bohrs-Radians)
 Mixed Optimization -- RFO/linear search
 Update second derivatives using D2CorX and points    1    2    3
 DE= -7.48D-04 DEPred=-7.30D-04 R= 1.02D+00
 TightC=F SS=  1.41D+00  RLast= 3.48D-01 DXNew= 8.4853D-01 1.0426D+00
 Trust test= 1.02D+00 RLast= 3.48D-01 DXMaxT set to 8.49D-01
 ITU=  1  1  0
 Use linear search instead of GDIIS.
     Eigenvalues ---    0.00173   0.00384   0.00406   0.01302   0.01378
     Eigenvalues ---    0.03533   0.03545   0.04827   0.04857   0.04987
     Eigenvalues ---    0.05460   0.05739   0.05788   0.08301   0.08498
     Eigenvalues ---    0.11695   0.11887   0.12175   0.12211   0.13527
     Eigenvalues ---    0.13962   0.16000   0.16887   0.21769   0.21957
     Eigenvalues ---    0.22001   0.23010   0.28782   0.29506   0.33042
     Eigenvalues ---    0.34044   0.34075   0.34168   0.34279   0.34304
     Eigenvalues ---    0.34330   0.36333   0.40661   0.41869   0.50546
     Eigenvalues ---    0.53225   0.54317
 RFO step:  Lambda=-8.42534884D-04 EMin= 1.73234654D-03
 Quartic linear search produced a step of  0.17928.
 Iteration  1 RMS(Cart)=  0.11169084 RMS(Int)=  0.00394915
 Iteration  2 RMS(Cart)=  0.00580541 RMS(Int)=  0.00001239
 Iteration  3 RMS(Cart)=  0.00001096 RMS(Int)=  0.00000955
 Iteration  4 RMS(Cart)=  0.00000000 RMS(Int)=  0.00000955
 Variable       Old X    -DE/DX   Delta X   Delta X   Delta X     New X
                                 (Linear)    (Quad)   (Total)
    R1        2.87157  -0.00059  -0.00097  -0.00480  -0.00577   2.86579
    R2        2.86857  -0.00450   0.00123  -0.01568  -0.01445   2.85412
    R3        2.12161  -0.00086   0.00098   0.00152   0.00250   2.12411
    R4        2.12357  -0.00137   0.00030  -0.00147  -0.00118   2.12240
    R5        2.67576  -0.00191   0.00009  -0.00536  -0.00527   2.67049
    R6        2.12842  -0.00159   0.00147   0.00077   0.00225   2.13067
    R7        2.12587  -0.00104   0.00020  -0.00032  -0.00011   2.12576
    R8        1.82239  -0.00019   0.00006  -0.00061  -0.00056   1.82184
    R9        2.88424  -0.00486   0.00280  -0.01175  -0.00895   2.87528
   R10        2.12513  -0.00155   0.00060  -0.00133  -0.00073   2.12440
   R11        2.12249  -0.00153   0.00075  -0.00087  -0.00011   2.12237
   R12        2.68409  -0.00073  -0.00153  -0.00519  -0.00672   2.67737
   R13        2.12562  -0.00153  -0.00083  -0.00402  -0.00485   2.12078
   R14        2.12686  -0.00111   0.00077   0.00070   0.00147   2.12834
   R15        1.82037   0.00018  -0.00065  -0.00179  -0.00244   1.81793
    A1        1.97031  -0.00043   0.00159   0.00106   0.00263   1.97294
    A2        1.89357   0.00047  -0.00150   0.00071  -0.00079   1.89278
    A3        1.89585   0.00053  -0.00048   0.00498   0.00449   1.90034
    A4        1.91347  -0.00026   0.00073  -0.00385  -0.00312   1.91035
    A5        1.91237  -0.00025   0.00115  -0.00063   0.00049   1.91286
    A6        1.87580  -0.00003  -0.00165  -0.00236  -0.00402   1.87177
    A7        1.96600  -0.00019   0.00176   0.00391   0.00565   1.97165
    A8        1.92687   0.00023   0.00050   0.00384   0.00432   1.93118
    A9        1.92470   0.00026  -0.00206  -0.00379  -0.00584   1.91886
   A10        1.81479  -0.00002   0.00073  -0.00089  -0.00020   1.81459
   A11        1.92029  -0.00016  -0.00073  -0.00301  -0.00372   1.91657
   A12        1.90794  -0.00015  -0.00004   0.00011   0.00008   1.90802
   A13        1.87996  -0.00141   0.00430  -0.00124   0.00305   1.88301
   A14        1.96853  -0.00142   0.00280  -0.00260   0.00019   1.96871
   A15        1.90442   0.00051   0.00025   0.00398   0.00424   1.90866
   A16        1.92504   0.00020   0.00013  -0.00080  -0.00067   1.92436
   A17        1.89658   0.00033  -0.00110  -0.00141  -0.00252   1.89406
   A18        1.89007   0.00052  -0.00066  -0.00008  -0.00076   1.88931
   A19        1.87681  -0.00008  -0.00162   0.00103  -0.00059   1.87622
   A20        1.87830  -0.00086   0.00277   0.00076   0.00353   1.88183
   A21        1.92713  -0.00012   0.00120  -0.00009   0.00111   1.92824
   A22        1.94262  -0.00068   0.00106  -0.00594  -0.00489   1.93772
   A23        1.92397   0.00053  -0.00282   0.00026  -0.00257   1.92139
   A24        1.89514   0.00096  -0.00076   0.00666   0.00589   1.90102
   A25        1.89657   0.00019  -0.00145  -0.00149  -0.00296   1.89361
   A26        1.86615  -0.00038   0.00157   0.00038   0.00195   1.86810
    D1       -1.35638   0.00001  -0.00355  -0.01367  -0.01722  -1.37360
    D2        2.90662  -0.00001  -0.00583  -0.01743  -0.02328   2.88334
    D3        0.79637  -0.00014  -0.00476  -0.01760  -0.02236   0.77401
    D4        2.80234   0.00029  -0.00446  -0.00998  -0.01443   2.78791
    D5        0.78215   0.00028  -0.00674  -0.01374  -0.02049   0.76166
    D6       -1.32809   0.00015  -0.00567  -0.01390  -0.01957  -1.34766
    D7        0.76829  -0.00022  -0.00140  -0.01027  -0.01165   0.75664
    D8       -1.25190  -0.00023  -0.00368  -0.01403  -0.01772  -1.26962
    D9        2.92104  -0.00036  -0.00260  -0.01419  -0.01679   2.90425
   D10       -1.56123   0.00038   0.01778   0.13522   0.15300  -1.40823
   D11        2.61247   0.00054   0.01718   0.13593   0.15312   2.76558
   D12        0.55450   0.00022   0.01893   0.13275   0.15168   0.70618
   D13        0.55196   0.00051   0.01744   0.13411   0.15155   0.70351
   D14       -1.55752   0.00066   0.01684   0.13483   0.15166  -1.40586
   D15        2.66769   0.00034   0.01858   0.13164   0.15023   2.81792
   D16        2.60662   0.00017   0.01653   0.12860   0.14513   2.75176
   D17        0.49714   0.00033   0.01593   0.12932   0.14524   0.64238
   D18       -1.56083   0.00001   0.01768   0.12613   0.14381  -1.41702
   D19        1.01606  -0.00021  -0.00312  -0.02116  -0.02429   0.99177
   D20        3.10249  -0.00004  -0.00118  -0.01506  -0.01623   3.08626
   D21       -1.13915  -0.00030  -0.00117  -0.01680  -0.01797  -1.15711
   D22       -1.60885   0.00007   0.00810   0.06166   0.06975  -1.53910
   D23        2.57366   0.00002   0.00914   0.06092   0.07005   2.64371
   D24        0.46572   0.00031   0.00946   0.06682   0.07628   0.54199
   D25        0.50510   0.00002   0.00946   0.06402   0.07348   0.57858
   D26       -1.59558  -0.00003   0.01051   0.06328   0.07378  -1.52180
   D27        2.57967   0.00026   0.01083   0.06918   0.08001   2.65967
   D28        2.53884   0.00038   0.00657   0.06444   0.07102   2.60986
   D29        0.43817   0.00034   0.00761   0.06371   0.07132   0.50949
   D30       -1.66977   0.00062   0.00793   0.06961   0.07754  -1.59223
   D31       -2.79629  -0.00063  -0.00602  -0.05115  -0.05716  -2.85345
   D32       -0.69362  -0.00099  -0.00449  -0.05064  -0.05515  -0.74877
   D33        1.38215   0.00014  -0.00845  -0.04826  -0.05670   1.32545
         Item               Value     Threshold  Converged?
 Maximum Force            0.004859     0.000450     NO 
 RMS     Force            0.001010     0.000300     NO 
 Maximum Displacement     0.305260     0.001800     NO 
 RMS     Displacement     0.112808     0.001200     NO 
 Predicted change in Energy=-5.223901D-04
 GradGradGradGradGradGradGradGradGradGradGradGradGradGradGradGradGradGrad

                          Input orientation:                          
 ---------------------------------------------------------------------
 Center     Atomic      Atomic             Coordinates (Angstroms)
 Number     Number       Type             X           Y           Z
 ---------------------------------------------------------------------
      1          6           0        1.858595    1.159403    1.649156
      2          6           0        1.314816    1.091607    3.063199
      3          8           0        0.668865   -0.132711    3.347480
      4          6           0        3.159236    0.410638    1.479449
      5          6           0        4.364535    1.206636    1.957684
      6          8           0        4.824229    1.991866    0.871668
      7          1           0        2.010307    2.239588    1.377815
      8          1           0        1.089786    0.743725    0.943781
      9          1           0        0.510044    1.866117    3.217262
     10          1           0        2.144918    1.265305    3.802231
     11          1           0        1.298020   -0.844545    3.183476
     12          1           0        3.305425    0.159051    0.393576
     13          1           0        3.128172   -0.556819    2.049045
     14          1           0        5.178029    0.516295    2.305732
     15          1           0        4.086090    1.888812    2.809496
     16          1           0        5.715412    2.280831    1.090179
 ---------------------------------------------------------------------
                    Distance matrix (angstroms):
                    1          2          3          4          5
     1  C    0.000000
     2  C    1.516513   0.000000
     3  O    2.443219   1.413161   0.000000
     4  C    1.510337   2.524653   3.160177   0.000000
     5  C    2.525303   3.245949   4.169336   1.521535   0.000000
     6  O    3.176864   4.234295   5.283041   2.375264   1.416804
     7  H    1.124029   2.154550   3.362566   2.162273   2.635456
     8  H    1.123125   2.159536   2.592890   2.163449   3.459229
     9  H    2.185633   1.127501   2.009351   3.486636   4.108351
    10  H    2.174610   1.124904   2.083262   2.674811   2.886607
    11  H    2.585380   1.939957   0.964075   2.818389   3.887599
    12  H    2.161134   3.458189   3.970154   1.124182   2.159996
    13  H    2.171902   2.652184   2.813182   1.123111   2.155624
    14  H    3.444317   3.978587   4.673222   2.183903   1.122266
    15  H    2.615370   2.894799   4.006670   2.193874   1.126268
    16  H    4.055254   4.967122   6.032265   3.191110   1.931664
                    6          7          8          9         10
     6  O    0.000000
     7  H    2.869792   0.000000
     8  H    3.938162   1.809240   0.000000
     9  H    4.912210   2.402881   2.600881   0.000000
    10  H    4.036681   2.616322   3.091292   1.837383   0.000000
    11  H    5.081716   3.644124   2.753578   2.823072   2.356175
    12  H    2.427869   2.640964   2.356613   4.324515   3.766896
    13  H    3.280034   3.085460   2.658578   3.753657   2.713040
    14  H    2.087828   3.723604   4.315132   4.943985   3.464143
    15  H    2.076210   2.545904   3.710789   3.599290   2.267693
    16  H    0.962005   3.716482   4.876529   5.638468   4.597276
                   11         12         13         14         15
    11  H    0.000000
    12  H    3.580562   0.000000
    13  H    2.172367   1.812310   0.000000
    14  H    4.204377   2.700113   2.327955   0.000000
    15  H    3.922300   3.072162   2.734411   1.824805   0.000000
    16  H    5.802001   3.285611   3.957965   2.209058   2.400921
                   16
    16  H    0.000000
 Stoichiometry    C4H10O2
 Framework group  C1[X(C4H10O2)]
 Deg. of freedom    42
 Full point group                 C1      NOp   1
 Largest Abelian subgroup         C1      NOp   1
 Largest concise Abelian subgroup C1      NOp   1
                         Standard orientation:                         
 ---------------------------------------------------------------------
 Center     Atomic      Atomic             Coordinates (Angstroms)
 Number     Number       Type             X           Y           Z
 ---------------------------------------------------------------------
      1          6           0       -0.508489    0.703912   -0.483563
      2          6           0       -1.594051    0.416171    0.535541
      3          8           0       -2.623584   -0.407454    0.026889
      4          6           0        0.462663   -0.440490   -0.651865
      5          6           0        1.524964   -0.477240    0.436820
      6          8           0        2.607211    0.333587    0.014168
      7          1           0        0.049660    1.623856   -0.158579
      8          1           0       -0.989757    0.937916   -1.471000
      9          1           0       -2.125574    1.366161    0.829241
     10          1           0       -1.144555   -0.057295    1.451615
     11          1           0       -2.220397   -1.223810   -0.290043
     12          1           0        0.975414   -0.350614   -1.648256
     13          1           0       -0.085688   -1.420582   -0.641430
     14          1           0        1.875566   -1.529508    0.607967
     15          1           0        1.122663   -0.072308    1.407729
     16          1           0        3.363115    0.103001    0.562706
 ---------------------------------------------------------------------
 Rotational constants (GHZ):      9.4425194      1.5017419      1.4824466
 Standard basis: VSTO-6G (5D, 7F)
 There are    34 symmetry adapted cartesian basis functions of A   symmetry.
 There are    34 symmetry adapted basis functions of A   symmetry.
    34 basis functions,   204 primitive gaussians,    34 cartesian basis functions
    19 alpha electrons       19 beta electrons
       nuclear repulsion energy       176.1189417199 Hartrees.
 Integral buffers will be    131072 words long.
 Regular integral format.
 Two-electron integral symmetry is turned off.
 Do NDO integrals.
 One-electron integrals computed using PRISM.
 NBasis=    34 RedAO= F EigKep=  0.00D+00  NBF=    34
 NBsUse=    34 1.00D-04 EigRej=  0.00D+00 NBFU=    34
 Initial guess from the checkpoint file:  "1-4-butanediol-open-opt.chk"
 B after Tr=     0.000000   -0.000000    0.000000
         Rot=    0.998985   -0.045048   -0.000287    0.000647 Ang=  -5.16 deg.
 Overlap will be assumed to be unity.
 Keep J ints in memory in canonical form, NReq=895124.
 Requested convergence on RMS density matrix=1.00D-08 within 128 cycles.
 Requested convergence on MAX density matrix=1.00D-06.
 Requested convergence on             energy=1.00D-06.
 No special actions if energy rises.
 SCF Done:  E(RAM1) = -0.193439250825     A.U. after   12 cycles
            NFock= 11  Conv=0.24D-08     -V/T= 0.9922
 Calling FoFJK, ICntrl=      2127 FMM=F ISym2X=0 I1Cent= 0 IOpClX= 0 NMat=1 NMatS=1 NMatT=0.
 ***** Axes restored to original set *****
 -------------------------------------------------------------------
 Center     Atomic                   Forces (Hartrees/Bohr)
 Number     Number              X              Y              Z
 -------------------------------------------------------------------
      1        6          -0.001762012    0.002553720   -0.002343424
      2        6           0.000202615    0.001719254    0.002287811
      3        8          -0.001780135   -0.001111319    0.000450544
      4        6           0.002305739   -0.001991983   -0.000812820
      5        6          -0.000753655    0.000631129    0.003548865
      6        8          -0.001242570    0.000395266   -0.003781602
      7        1           0.000529817   -0.001250240   -0.000306719
      8        1           0.000656711   -0.000492424    0.000601021
      9        1           0.001627373   -0.001457936   -0.000385479
     10        1          -0.000914893    0.000203630    0.000450702
     11        1           0.000701276    0.000578467   -0.000506221
     12        1          -0.000236690    0.000481624    0.000842609
     13        1          -0.000584815    0.000909931   -0.000469361
     14        1           0.000013703   -0.001056629   -0.000098949
     15        1           0.000218951   -0.000994728   -0.000513365
     16        1           0.001018585    0.000882237    0.001036388
 -------------------------------------------------------------------
 Cartesian Forces:  Max     0.003781602 RMS     0.001332507

 GradGradGradGradGradGradGradGradGradGradGradGradGradGradGradGradGradGrad
 Berny optimization.
 Using GEDIIS/GDIIS optimizer.
 FormGI is forming the generalized inverse of G from B-inverse, IUseBI=4.
 Internal  Forces:  Max     0.002739626 RMS     0.000756358
 Search for a local minimum.
 Step number   4 out of a maximum of   84
 All quantities printed in internal units (Hartrees-Bohrs-Radians)
 Mixed Optimization -- En-DIIS/RFO-DIIS
 Update second derivatives using D2CorX and points    3    4
 DE= -5.97D-04 DEPred=-5.22D-04 R= 1.14D+00
 TightC=F SS=  1.41D+00  RLast= 5.15D-01 DXNew= 1.4270D+00 1.5435D+00
 Trust test= 1.14D+00 RLast= 5.15D-01 DXMaxT set to 1.43D+00
 ITU=  1  1  1  0
 Use linear search instead of GDIIS.
     Eigenvalues ---    0.00136   0.00378   0.00407   0.01230   0.01378
     Eigenvalues ---    0.03529   0.03587   0.04823   0.04891   0.05014
     Eigenvalues ---    0.05450   0.05761   0.05777   0.08343   0.08498
     Eigenvalues ---    0.11707   0.11873   0.12177   0.12268   0.13657
     Eigenvalues ---    0.14087   0.16003   0.17148   0.21868   0.21987
     Eigenvalues ---    0.22273   0.23710   0.29219   0.30349   0.34029
     Eigenvalues ---    0.34044   0.34091   0.34262   0.34281   0.34308
     Eigenvalues ---    0.34498   0.36113   0.39950   0.44580   0.49696
     Eigenvalues ---    0.53031   0.53864
 RFO step:  Lambda=-3.34935712D-04 EMin= 1.36278599D-03
 Quartic linear search produced a step of  0.26883.
 Iteration  1 RMS(Cart)=  0.06982725 RMS(Int)=  0.00191647
 Iteration  2 RMS(Cart)=  0.00285249 RMS(Int)=  0.00000812
 Iteration  3 RMS(Cart)=  0.00000346 RMS(Int)=  0.00000768
 Iteration  4 RMS(Cart)=  0.00000000 RMS(Int)=  0.00000768
 Variable       Old X    -DE/DX   Delta X   Delta X   Delta X     New X
                                 (Linear)    (Quad)   (Total)
    R1        2.86579   0.00220  -0.00155   0.00777   0.00622   2.87201
    R2        2.85412   0.00103  -0.00388   0.00561   0.00173   2.85585
    R3        2.12411  -0.00106   0.00067  -0.00254  -0.00187   2.12224
    R4        2.12240  -0.00064  -0.00032  -0.00195  -0.00226   2.12014
    R5        2.67049   0.00094  -0.00142   0.00277   0.00135   2.67184
    R6        2.13067  -0.00222   0.00060  -0.00602  -0.00541   2.12526
    R7        2.12576  -0.00035  -0.00003  -0.00098  -0.00101   2.12475
    R8        1.82184   0.00012  -0.00015   0.00032   0.00017   1.82201
    R9        2.87528  -0.00060  -0.00241   0.00075  -0.00165   2.87363
   R10        2.12440  -0.00095  -0.00020  -0.00267  -0.00287   2.12153
   R11        2.12237  -0.00101  -0.00003  -0.00265  -0.00268   2.11969
   R12        2.67737   0.00274  -0.00181   0.00596   0.00416   2.68153
   R13        2.12078   0.00063  -0.00130   0.00118  -0.00012   2.12066
   R14        2.12834  -0.00104   0.00040  -0.00274  -0.00234   2.12599
   R15        1.81793   0.00144  -0.00066   0.00251   0.00185   1.81978
    A1        1.97294   0.00046   0.00071   0.00367   0.00438   1.97733
    A2        1.89278   0.00050  -0.00021   0.00749   0.00728   1.90006
    A3        1.90034  -0.00018   0.00121  -0.00271  -0.00149   1.89885
    A4        1.91035  -0.00067  -0.00084  -0.00472  -0.00559   1.90476
    A5        1.91286  -0.00040   0.00013  -0.00613  -0.00600   1.90686
    A6        1.87177   0.00029  -0.00108   0.00251   0.00140   1.87317
    A7        1.97165  -0.00108   0.00152  -0.00350  -0.00199   1.96966
    A8        1.93118  -0.00012   0.00116  -0.00309  -0.00194   1.92925
    A9        1.91886   0.00124  -0.00157   0.00989   0.00832   1.92718
   A10        1.81459   0.00035  -0.00005  -0.00131  -0.00138   1.81321
   A11        1.91657   0.00002  -0.00100   0.00099  -0.00001   1.91655
   A12        1.90802  -0.00047   0.00002  -0.00380  -0.00378   1.90425
   A13        1.88301  -0.00184   0.00082  -0.00878  -0.00796   1.87505
   A14        1.96871  -0.00055   0.00005  -0.00054  -0.00049   1.96822
   A15        1.90866  -0.00013   0.00114  -0.00487  -0.00374   1.90492
   A16        1.92436  -0.00004  -0.00018  -0.00044  -0.00063   1.92374
   A17        1.89406   0.00025  -0.00068  -0.00091  -0.00159   1.89247
   A18        1.88931   0.00047  -0.00020   0.00561   0.00540   1.89471
   A19        1.87622   0.00004  -0.00016   0.00132   0.00116   1.87737
   A20        1.88183  -0.00142   0.00095  -0.00497  -0.00402   1.87781
   A21        1.92824  -0.00030   0.00030  -0.00307  -0.00278   1.92546
   A22        1.93772   0.00007  -0.00132  -0.00065  -0.00197   1.93575
   A23        1.92139   0.00096  -0.00069   0.00471   0.00401   1.92540
   A24        1.90102   0.00061   0.00158   0.00304   0.00461   1.90564
   A25        1.89361   0.00011  -0.00080   0.00111   0.00029   1.89390
   A26        1.86810  -0.00076   0.00052  -0.00385  -0.00332   1.86478
    D1       -1.37360  -0.00013  -0.00463  -0.00625  -0.01087  -1.38447
    D2        2.88334   0.00020  -0.00626  -0.00039  -0.00664   2.87669
    D3        0.77401   0.00005  -0.00601  -0.00011  -0.00612   0.76789
    D4        2.78791   0.00007  -0.00388  -0.00794  -0.01183   2.77609
    D5        0.76166   0.00039  -0.00551  -0.00208  -0.00760   0.75407
    D6       -1.34766   0.00025  -0.00526  -0.00180  -0.00707  -1.35473
    D7        0.75664  -0.00045  -0.00313  -0.01355  -0.01668   0.73996
    D8       -1.26962  -0.00013  -0.00476  -0.00768  -0.01245  -1.28206
    D9        2.90425  -0.00027  -0.00451  -0.00741  -0.01192   2.89232
   D10       -1.40823  -0.00022   0.04113   0.03155   0.07269  -1.33554
   D11        2.76558  -0.00008   0.04116   0.03646   0.07763   2.84321
   D12        0.70618  -0.00002   0.04078   0.03806   0.07884   0.78502
   D13        0.70351   0.00025   0.04074   0.04021   0.08094   0.78445
   D14       -1.40586   0.00039   0.04077   0.04512   0.08588  -1.31998
   D15        2.81792   0.00045   0.04039   0.04672   0.08709   2.90501
   D16        2.75176  -0.00003   0.03902   0.03692   0.07595   2.82771
   D17        0.64238   0.00011   0.03905   0.04184   0.08089   0.72327
   D18       -1.41702   0.00017   0.03866   0.04343   0.08210  -1.33492
   D19        0.99177   0.00032  -0.00653  -0.00742  -0.01395   0.97782
[...]
   D26       -1.21700  -0.00000  -0.00056  -0.00032  -0.00089  -1.21788
   D27        2.96349  -0.00000  -0.00062  -0.00032  -0.00095   2.96255
   D28        2.90553   0.00000  -0.00046  -0.00031  -0.00077   2.90476
   D29        0.82246   0.00000  -0.00045  -0.00025  -0.00070   0.82176
   D30       -1.28024   0.00000  -0.00051  -0.00025  -0.00076  -1.28100
   D31        3.12572   0.00000   0.00027  -0.00008   0.00019   3.12591
   D32       -1.06935   0.00000   0.00022  -0.00010   0.00012  -1.06923
   D33        1.01718  -0.00001   0.00026  -0.00016   0.00010   1.01728
         Item               Value     Threshold  Converged?
 Maximum Force            0.000068     0.000450     YES
 RMS     Force            0.000016     0.000300     YES
 Maximum Displacement     0.001306     0.001800     YES
 RMS     Displacement     0.000424     0.001200     YES
 Predicted change in Energy=-3.941387D-08
 Optimization completed.
    -- Stationary point found.
                           ----------------------------
                           !   Optimized Parameters   !
                           ! (Angstroms and Degrees)  !
 --------------------------                            --------------------------
 ! Name  Definition              Value          Derivative Info.                !
 --------------------------------------------------------------------------------
 ! R1    R(1,2)                  1.519          -DE/DX =    0.0                 !
 ! R2    R(1,4)                  1.5129         -DE/DX =    0.0                 !
 ! R3    R(1,7)                  1.122          -DE/DX =    0.0                 !
 ! R4    R(1,8)                  1.1221         -DE/DX =    0.0                 !
 ! R5    R(2,3)                  1.4153         -DE/DX =    0.0001              !
 ! R6    R(2,9)                  1.1239         -DE/DX =    0.0                 !
 ! R7    R(2,10)                 1.1236         -DE/DX =    0.0                 !
 ! R8    R(3,11)                 0.9644         -DE/DX =    0.0                 !
 ! R9    R(4,5)                  1.5199         -DE/DX =    0.0                 !
 ! R10   R(4,12)                 1.1222         -DE/DX =    0.0                 !
 ! R11   R(4,13)                 1.1211         -DE/DX =    0.0                 !
 ! R12   R(5,6)                  1.4194         -DE/DX =    0.0                 !
 ! R13   R(5,14)                 1.1238         -DE/DX =    0.0                 !
 ! R14   R(5,15)                 1.1233         -DE/DX =    0.0                 !
 ! R15   R(6,16)                 0.964          -DE/DX =    0.0                 !
 ! A1    A(2,1,4)              113.1926         -DE/DX =    0.0                 !
 ! A2    A(2,1,7)              109.0299         -DE/DX =    0.0                 !
 ! A3    A(2,1,8)              108.6017         -DE/DX =    0.0                 !
 ! A4    A(4,1,7)              108.905          -DE/DX =    0.0                 !
 ! A5    A(4,1,8)              109.2294         -DE/DX =    0.0                 !
 ! A6    A(7,1,8)              107.7407         -DE/DX =    0.0                 !
 ! A7    A(1,2,3)              112.6238         -DE/DX =    0.0                 !
 ! A8    A(1,2,9)              110.438          -DE/DX =    0.0                 !
 ! A9    A(1,2,10)             110.685          -DE/DX =    0.0                 !
 ! A10   A(3,2,9)              104.0739         -DE/DX =    0.0                 !
 ! A11   A(3,2,10)             109.6771         -DE/DX =    0.0                 !
 ! A12   A(9,2,10)             109.1113         -DE/DX =    0.0                 !
 ! A13   A(2,3,11)             107.3904         -DE/DX =    0.0                 !
 ! A14   A(1,4,5)              112.6599         -DE/DX =    0.0                 !
 ! A15   A(1,4,12)             109.0389         -DE/DX =    0.0                 !
 ! A16   A(1,4,13)             110.3435         -DE/DX =    0.0                 !
 ! A17   A(5,4,12)             108.4782         -DE/DX =    0.0                 !
 ! A18   A(5,4,13)             108.3012         -DE/DX =    0.0                 !
 ! A19   A(12,4,13)            107.8911         -DE/DX =    0.0                 !
 ! A20   A(4,5,6)              107.553          -DE/DX =    0.0                 !
 ! A21   A(4,5,14)             110.0592         -DE/DX =    0.0                 !
 ! A22   A(4,5,15)             110.8947         -DE/DX =    0.0                 !
 ! A23   A(6,5,14)             109.606          -DE/DX =    0.0                 !
 ! A24   A(6,5,15)             109.8851         -DE/DX =    0.0                 !
 ! A25   A(14,5,15)            108.8291         -DE/DX =    0.0                 !
 ! A26   A(5,6,16)             106.5917         -DE/DX =    0.0                 !
 ! D1    D(4,1,2,3)            -79.2402         -DE/DX =    0.0                 !
 ! D2    D(4,1,2,9)            164.8826         -DE/DX =    0.0                 !
 ! D3    D(4,1,2,10)            43.9401         -DE/DX =    0.0                 !
 ! D4    D(7,1,2,3)            159.3846         -DE/DX =    0.0                 !
 ! D5    D(7,1,2,9)             43.5074         -DE/DX =    0.0                 !
 ! D6    D(7,1,2,10)           -77.435          -DE/DX =    0.0                 !
 ! D7    D(8,1,2,3)             42.2438         -DE/DX =    0.0                 !
 ! D8    D(8,1,2,9)            -73.6334         -DE/DX =    0.0                 !
 ! D9    D(8,1,2,10)           165.4241         -DE/DX =    0.0                 !
 ! D10   D(2,1,4,5)            -79.3564         -DE/DX =    0.0                 !
 ! D11   D(2,1,4,12)           160.1527         -DE/DX =    0.0                 !
 ! D12   D(2,1,4,13)            41.8222         -DE/DX =    0.0                 !
 ! D13   D(7,1,4,5)             42.089          -DE/DX =    0.0                 !
 ! D14   D(7,1,4,12)           -78.4019         -DE/DX =    0.0                 !
 ! D15   D(7,1,4,13)           163.2677         -DE/DX =    0.0                 !
 ! D16   D(8,1,4,5)            159.5133         -DE/DX =    0.0                 !
 ! D17   D(8,1,4,12)            39.0224         -DE/DX =    0.0                 !
 ! D18   D(8,1,4,13)           -79.308          -DE/DX =    0.0                 !
 ! D19   D(1,2,3,11)            54.8393         -DE/DX =    0.0                 !
 ! D20   D(9,2,3,11)           174.4753         -DE/DX =    0.0                 !
 ! D21   D(10,2,3,11)          -68.9016         -DE/DX =    0.0                 !
 ! D22   D(1,4,5,6)            -71.1897         -DE/DX =    0.0                 !
 ! D23   D(1,4,5,14)           169.4589         -DE/DX =    0.0                 !
 ! D24   D(1,4,5,15)            48.9833         -DE/DX =    0.0                 !
 ! D25   D(12,4,5,6)            49.6225         -DE/DX =    0.0                 !
 ! D26   D(12,4,5,14)          -69.7289         -DE/DX =    0.0                 !
 ! D27   D(12,4,5,15)          169.7955         -DE/DX =    0.0                 !
 ! D28   D(13,4,5,6)           166.4746         -DE/DX =    0.0                 !
 ! D29   D(13,4,5,14)           47.1232         -DE/DX =    0.0                 !
 ! D30   D(13,4,5,15)          -73.3524         -DE/DX =    0.0                 !
 ! D31   D(4,5,6,16)           179.0905         -DE/DX =    0.0                 !
 ! D32   D(14,5,6,16)          -61.2691         -DE/DX =    0.0                 !
 ! D33   D(15,5,6,16)           58.2802         -DE/DX =    0.0                 !
 --------------------------------------------------------------------------------
 GradGradGradGradGradGradGradGradGradGradGradGradGradGradGradGradGradGrad

                          Input orientation:                          
 ---------------------------------------------------------------------
 Center     Atomic      Atomic             Coordinates (Angstroms)
 Number     Number       Type             X           Y           Z
 ---------------------------------------------------------------------
      1          6           0        1.893474    1.128815    1.614309
      2          6           0        1.348522    1.163180    3.031737
      3          8           0        0.655307   -0.021346    3.377382
      4          6           0        3.172377    0.330699    1.486864
      5          6           0        4.395481    1.107262    1.946329
      6          8           0        4.648475    2.117384    0.981717
      7          1           0        2.084864    2.179518    1.270365
      8          1           0        1.112619    0.685601    0.941257
      9          1           0        0.575503    1.972399    3.135491
     10          1           0        2.175028    1.347077    3.770366
     11          1           0        1.253009   -0.761526    3.219721
     12          1           0        3.317749    0.041312    0.412443
     13          1           0        3.105869   -0.611202    2.091283
     14          1           0        5.283306    0.421889    2.016360
     15          1           0        4.218443    1.575154    2.952103
     16          1           0        5.416455    2.609585    1.293503
 ---------------------------------------------------------------------
                    Distance matrix (angstroms):
                    1          2          3          4          5
     1  C    0.000000
     2  C    1.518965   0.000000
     3  O    2.442203   1.415317   0.000000
     4  C    1.512885   2.531028   3.167592   0.000000
     5  C    2.524032   3.234996   4.160598   1.519915   0.000000
     6  O    2.994573   4.000347   5.124331   2.371978   1.419447
     7  H    1.122009   2.162769   3.365555   2.155850   2.635453
     8  H    1.122128   2.157275   2.577520   2.160149   3.459068
     9  H    2.182356   1.123903   2.009950   3.486675   4.093263
    10  H    2.185290   1.123611   2.082443   2.691117   2.883580
    11  H    2.561432   1.936222   0.964350   2.807085   3.871566
    12  H    2.157708   3.463689   3.985397   1.122166   2.156515
    13  H    2.173721   2.668549   2.829706   1.121126   2.153422
    14  H    3.486022   4.130742   4.844298   2.178234   1.123777
    15  H    2.719264   2.900433   3.927546   2.188573   1.123320
    16  H    3.834969   4.654204   5.825193   3.204152   1.930167
                    6          7          8          9         10
     6  O    0.000000
     7  H    2.580558   0.000000
     8  H    3.814960   1.812557   0.000000
     9  H    4.609649   2.408269   2.599808   0.000000
    10  H    3.806294   2.636492   3.093561   1.831004   0.000000
    11  H    4.982567   3.625150   2.702829   2.817882   2.366333
    12  H    2.530806   2.613037   2.357404   4.320185   3.779746
    13  H    3.325049   3.082933   2.641458   3.764056   2.742378
    14  H    2.085234   3.725024   4.315093   5.081334   3.686991
    15  H    2.088388   2.783103   3.805385   3.669121   2.212944
    16  H    0.963984   3.359314   4.727451   5.218595   4.270319
                   11         12         13         14         15
    11  H    0.000000
    12  H    3.576103   0.000000
    13  H    2.174640   1.813608   0.000000
    14  H    4.369421   2.565307   2.411249   0.000000
    15  H    3.784903   3.100612   2.599805   1.827449   0.000000
    16  H    5.692889   3.431742   4.043356   2.307870   2.292647
                   16
    16  H    0.000000
 Stoichiometry    C4H10O2
 Framework group  C1[X(C4H10O2)]
 Deg. of freedom    42
 Full point group                 C1      NOp   1
 Largest Abelian subgroup         C1      NOp   1
 Largest concise Abelian subgroup C1      NOp   1
                         Standard orientation:                         
 ---------------------------------------------------------------------
 Center     Atomic      Atomic             Coordinates (Angstroms)
 Number     Number       Type             X           Y           Z
 ---------------------------------------------------------------------
      1          6           0       -0.462733    0.485106   -0.691415
      2          6           0       -1.517803    0.579144    0.397272
      3          8           0       -2.601833   -0.305146    0.182719
      4          6           0        0.459743   -0.702556   -0.526124
      5          6           0        1.542632   -0.462736    0.513096
      6          8           0        2.458166    0.475474   -0.031320
      7          1           0        0.150396    1.424772   -0.688821
      8          1           0       -0.979091    0.416495   -1.685316
      9          1           0       -1.992123    1.598055    0.397155
     10          1           0       -1.064776    0.384368    1.406891
     11          1           0       -2.235607   -1.192038    0.086426
     12          1           0        0.953162   -0.922501   -1.509699
     13          1           0       -0.124151   -1.610387   -0.223082
     14          1           0        2.078353   -1.424084    0.740448
     15          1           0        1.102492   -0.059191    1.464555
     16          1           0        3.129637    0.628141    0.643280
 ---------------------------------------------------------------------
 Rotational constants (GHZ):      8.6671935      1.5821630      1.5476132

 **********************************************************************

            Population analysis using the SCF density.

 **********************************************************************

 Orbital symmetries:
       Occupied  (A) (A) (A) (A) (A) (A) (A) (A) (A) (A) (A) (A)
                 (A) (A) (A) (A) (A) (A) (A)
       Virtual   (A) (A) (A) (A) (A) (A) (A) (A) (A) (A) (A) (A)
                 (A) (A) (A)
 The electronic state is 1-A.
 Alpha  occ. eigenvalues --   -1.43635  -1.39155  -1.24771  -1.05781  -0.90997
 Alpha  occ. eigenvalues --   -0.78278  -0.69068  -0.66092  -0.60505  -0.58810
 Alpha  occ. eigenvalues --   -0.56396  -0.53591  -0.50729  -0.49946  -0.45672
 Alpha  occ. eigenvalues --   -0.44000  -0.43230  -0.40773  -0.39964
 Alpha virt. eigenvalues --    0.12086   0.13065   0.13529   0.13951   0.14201
 Alpha virt. eigenvalues --    0.14824   0.15011   0.15889   0.16293   0.17334
 Alpha virt. eigenvalues --    0.17601   0.18381   0.18593   0.22456   0.23285
          Condensed to atoms (all electrons):
               1          2          3          4          5          6
     1  C    4.202296   0.000000   0.000000   0.000000   0.000000   0.000000
     2  C    0.000000   4.024267   0.000000   0.000000   0.000000   0.000000
     3  O    0.000000   0.000000   6.327469   0.000000   0.000000   0.000000
     4  C    0.000000   0.000000   0.000000   4.158875   0.000000   0.000000
     5  C    0.000000   0.000000   0.000000   0.000000   4.021168   0.000000
     6  O    0.000000   0.000000   0.000000   0.000000   0.000000   6.328771
     7  H    0.000000   0.000000   0.000000   0.000000   0.000000   0.000000
     8  H    0.000000   0.000000   0.000000   0.000000   0.000000   0.000000
     9  H    0.000000   0.000000   0.000000   0.000000   0.000000   0.000000
    10  H    0.000000   0.000000   0.000000   0.000000   0.000000   0.000000
    11  H    0.000000   0.000000   0.000000   0.000000   0.000000   0.000000
    12  H    0.000000   0.000000   0.000000   0.000000   0.000000   0.000000
    13  H    0.000000   0.000000   0.000000   0.000000   0.000000   0.000000
    14  H    0.000000   0.000000   0.000000   0.000000   0.000000   0.000000
    15  H    0.000000   0.000000   0.000000   0.000000   0.000000   0.000000
    16  H    0.000000   0.000000   0.000000   0.000000   0.000000   0.000000
               7          8          9         10         11         12
     1  C    0.000000   0.000000   0.000000   0.000000   0.000000   0.000000
     2  C    0.000000   0.000000   0.000000   0.000000   0.000000   0.000000
     3  O    0.000000   0.000000   0.000000   0.000000   0.000000   0.000000
     4  C    0.000000   0.000000   0.000000   0.000000   0.000000   0.000000
     5  C    0.000000   0.000000   0.000000   0.000000   0.000000   0.000000
     6  O    0.000000   0.000000   0.000000   0.000000   0.000000   0.000000
     7  H    0.891758   0.000000   0.000000   0.000000   0.000000   0.000000
     8  H    0.000000   0.903571   0.000000   0.000000   0.000000   0.000000
     9  H    0.000000   0.000000   0.894628   0.000000   0.000000   0.000000
    10  H    0.000000   0.000000   0.000000   0.940215   0.000000   0.000000
    11  H    0.000000   0.000000   0.000000   0.000000   0.805865   0.000000
    12  H    0.000000   0.000000   0.000000   0.000000   0.000000   0.898158
    13  H    0.000000   0.000000   0.000000   0.000000   0.000000   0.000000
    14  H    0.000000   0.000000   0.000000   0.000000   0.000000   0.000000
    15  H    0.000000   0.000000   0.000000   0.000000   0.000000   0.000000
    16  H    0.000000   0.000000   0.000000   0.000000   0.000000   0.000000
              13         14         15         16
     1  C    0.000000   0.000000   0.000000   0.000000
     2  C    0.000000   0.000000   0.000000   0.000000
     3  O    0.000000   0.000000   0.000000   0.000000
     4  C    0.000000   0.000000   0.000000   0.000000
     5  C    0.000000   0.000000   0.000000   0.000000
     6  O    0.000000   0.000000   0.000000   0.000000
     7  H    0.000000   0.000000   0.000000   0.000000
     8  H    0.000000   0.000000   0.000000   0.000000
     9  H    0.000000   0.000000   0.000000   0.000000
    10  H    0.000000   0.000000   0.000000   0.000000
    11  H    0.000000   0.000000   0.000000   0.000000
    12  H    0.000000   0.000000   0.000000   0.000000
    13  H    0.924168   0.000000   0.000000   0.000000
    14  H    0.000000   0.939178   0.000000   0.000000
    15  H    0.000000   0.000000   0.938621   0.000000
    16  H    0.000000   0.000000   0.000000   0.800993
 Mulliken charges:
               1
     1  C   -0.202296
     2  C   -0.024267
     3  O   -0.327469
     4  C   -0.158875
     5  C   -0.021168
     6  O   -0.328771
     7  H    0.108242
     8  H    0.096429
     9  H    0.105372
    10  H    0.059785
    11  H    0.194135
    12  H    0.101842
    13  H    0.075832
    14  H    0.060822
    15  H    0.061379
    16  H    0.199007
 Sum of Mulliken charges =   0.00000
 Mulliken charges with hydrogens summed into heavy atoms:
               1
     1  C    0.002376
     2  C    0.140890
     3  O   -0.133334
     4  C    0.018799
     5  C    0.101034
     6  O   -0.129764
 Charge=              0.0000 electrons
 Dipole moment (field-independent basis, Debye):
    X=              1.6683    Y=             -0.8763    Z=              1.2603  Tot=              2.2670
 N-N= 1.767701988950D+02 E-N=-3.017877191525D+02  KE=-2.491305272333D+01
 1\1\GINC-GTX1080DELTA\FOpt\RAM1\ZDO\C4H10O2\MVEROT\17-Apr-2022\0\\#n A
 M1 Opt\\Optimisation de geometrie\\0,1\C,1.8934742432,1.1288145395,1.6
 143089193\C,1.3485221454,1.1631803523,3.0317368089\O,0.6553065229,-0.0
 213461426,3.3773821011\C,3.1723767848,0.3306990519,1.4868635665\C,4.39
 5480967,1.107261539,1.946328597\O,4.6484746174,2.117384216,0.981717093
 4\H,2.0848636415,2.1795181841,1.2703652317\H,1.112618783,0.6856005478,
 0.9412574266\H,0.5755028757,1.9723992137,3.1354907431\H,2.1750279686,1
 .3470766251,3.770365736\H,1.2530091692,-0.7615259561,3.2197212929\H,3.
 3177492643,0.0413124312,0.4124429253\H,3.1058687527,-0.6112018517,2.09
 12832727\H,5.2833063297,0.4218886089,2.0163598414\H,4.2184434338,1.575
 1539306,2.9521033222\H,5.4164545007,2.6095847104,1.2935031219\\Version
 =AM64L-G09RevD.01\State=1-A\HF=-0.1941104\RMSD=5.535e-09\RMSF=2.330e-0
 5\Dipole=0.8682381,-0.0155945,0.2035775\PG=C01 [X(C4H10O2)]\\@


 SEE YOU NOW,
 YOUR BAIT OF FALSEHOOD TAKES THIS CARP OF TRUTH.
 AND THUS DO WE OF WISDOM AND OF REACH...
 BY INDIRECTIONS FIND DIRECTIONS OUT.    -- HAMLET, II, 1
 Job cpu time:       0 days  0 hours  0 minutes  7.5 seconds.
 File lengths (MBytes):  RWF=     72 Int=      0 D2E=      0 Chk=      3 Scr=      2
 Normal termination of Gaussian 09 at Sun Apr 17 23:35:23 2022.
