 Entering Gaussian System, Link 0=g09
 Input=/scratch/mverot/cyclohexane-opt/cyclohexane-opt.com
 Output=/scratch/mverot/cyclohexane-opt/cyclohexane-opt.log
 Initial command:
 /opt/g09/l1.exe "/scratch/mverot/cyclohexane-opt/Gau-758360.inp" -scrdir="/scratch/mverot/cyclohexane-opt/"
 Entering Link 1 = /opt/g09/l1.exe PID=    758362.
  
 Copyright (c) 1988,1990,1992,1993,1995,1998,2003,2009,2013,
            Gaussian, Inc.  All Rights Reserved.
  
 This is part of the Gaussian(R) 09 program.  It is based on
 the Gaussian(R) 03 system (copyright 2003, Gaussian, Inc.),
 the Gaussian(R) 98 system (copyright 1998, Gaussian, Inc.),
 the Gaussian(R) 94 system (copyright 1995, Gaussian, Inc.),
 the Gaussian 92(TM) system (copyright 1992, Gaussian, Inc.),
 the Gaussian 90(TM) system (copyright 1990, Gaussian, Inc.),
 the Gaussian 88(TM) system (copyright 1988, Gaussian, Inc.),
 the Gaussian 86(TM) system (copyright 1986, Carnegie Mellon
 University), and the Gaussian 82(TM) system (copyright 1983,
 Carnegie Mellon University). Gaussian is a federally registered
 trademark of Gaussian, Inc.
  
 This software contains proprietary and confidential information,
 including trade secrets, belonging to Gaussian, Inc.
  
 This software is provided under written license and may be
 used, copied, transmitted, or stored only in accord with that
 written license.
  
 The following legend is applicable only to US Government
 contracts under FAR:
  
                    RESTRICTED RIGHTS LEGEND
  
 Use, reproduction and disclosure by the US Government is
 subject to restrictions as set forth in subparagraphs (a)
 and (c) of the Commercial Computer Software - Restricted
 Rights clause in FAR 52.227-19.
  
 Gaussian, Inc.
 340 Quinnipiac St., Bldg. 40, Wallingford CT 06492
  
  
 ---------------------------------------------------------------
 Warning -- This program may not be used in any manner that
 competes with the business of Gaussian, Inc. or will provide
 assistance to any competitor of Gaussian, Inc.  The licensee
 of this program is prohibited from giving any competitor of
 Gaussian, Inc. access to this program.  By using this program,
 the user acknowledges that Gaussian, Inc. is engaged in the
 business of creating and licensing software in the field of
 computational chemistry and represents and warrants to the
 licensee that it is not a competitor of Gaussian, Inc. and that
 it will not use this program in any manner prohibited above.
 ---------------------------------------------------------------
  

 Cite this work as:
 Gaussian 09, Revision D.01,
 M. J. Frisch, G. W. Trucks, H. B. Schlegel, G. E. Scuseria, 
 M. A. Robb, J. R. Cheeseman, G. Scalmani, V. Barone, B. Mennucci, 
 G. A. Petersson, H. Nakatsuji, M. Caricato, X. Li, H. P. Hratchian, 
 A. F. Izmaylov, J. Bloino, G. Zheng, J. L. Sonnenberg, M. Hada, 
 M. Ehara, K. Toyota, R. Fukuda, J. Hasegawa, M. Ishida, T. Nakajima, 
 Y. Honda, O. Kitao, H. Nakai, T. Vreven, J. A. Montgomery, Jr., 
 J. E. Peralta, F. Ogliaro, M. Bearpark, J. J. Heyd, E. Brothers, 
 K. N. Kudin, V. N. Staroverov, T. Keith, R. Kobayashi, J. Normand, 
 K. Raghavachari, A. Rendell, J. C. Burant, S. S. Iyengar, J. Tomasi, 
 M. Cossi, N. Rega, J. M. Millam, M. Klene, J. E. Knox, J. B. Cross, 
 V. Bakken, C. Adamo, J. Jaramillo, R. Gomperts, R. E. Stratmann, 
 O. Yazyev, A. J. Austin, R. Cammi, C. Pomelli, J. W. Ochterski, 
 R. L. Martin, K. Morokuma, V. G. Zakrzewski, G. A. Voth, 
 P. Salvador, J. J. Dannenberg, S. Dapprich, A. D. Daniels, 
 O. Farkas, J. B. Foresman, J. V. Ortiz, J. Cioslowski, 
 and D. J. Fox, Gaussian, Inc., Wallingford CT, 2013.
 
 ******************************************
 Gaussian 09:  AM64L-G09RevD.01 24-Apr-2013
                16-Apr-2022 
 ******************************************
 %chk=cyclohexane-opt
 --------------------
 # hf/6-31G* opt freq
 --------------------
 1/18=20,19=15,38=1/1,3;
 2/9=110,12=2,17=6,18=5,40=1/2;
 3/5=1,6=6,7=1,11=9,16=1,25=1,30=1,71=1/1,2,3;
 4//1;
 5/5=2,38=5/2;
 6/7=2,8=2,9=2,10=2,28=1/1;
 7//1,2,3,16;
 1/18=20,19=15/3(2);
 2/9=110/2;
 99//99;
 2/9=110/2;
 3/5=1,6=6,7=1,11=9,16=1,25=1,30=1,71=1/1,2,3;
 4/5=5,16=3,69=1/1;
 5/5=2,38=5/2;
 7//1,2,3,16;
 1/18=20,19=15/3(-5);
 2/9=110/2;
 6/7=2,8=2,9=2,10=2,19=2,28=1/1;
 99/9=1/99;
 -------------------------
 Optimisation de geometrie
 -------------------------
 Symbolic Z-matrix:
 Charge =  0 Multiplicity = 1
 C                     1.7967    3.4976    1.1955 
 C                     1.0353    2.2586    1.6935 
 C                     1.7       0.9586    1.2132 
 C                     3.1844    0.9057    1.609 
 C                     3.9458    2.1447    1.111 
 C                     3.2811    3.4447    1.5913 
 H                     1.3316    4.4119    1.5863 
 H                     1.718     3.5518    0.0992 
 H                    -0.0104    2.2962    1.3615 
 H                     1.0135    2.2669    2.7937 
 H                     1.6167    0.895     0.1177 
 H                     1.1678    0.0875    1.6168 
 H                     3.6495   -0.0086    1.2181 
 H                     3.2631    0.8514    2.7052 
 H                     3.9677    2.1364    0.0109 
 H                     4.9914    2.1071    1.4431 
 H                     3.8133    4.3157    1.1876 
 H                     3.3643    3.5083    2.6868 
 

 GradGradGradGradGradGradGradGradGradGradGradGradGradGradGradGradGradGrad
 Berny optimization.
 Initialization pass.
                           ----------------------------
                           !    Initial Parameters    !
                           ! (Angstroms and Degrees)  !
 --------------------------                            --------------------------
 ! Name  Definition              Value          Derivative Info.                !
 --------------------------------------------------------------------------------
 ! R1    R(1,2)                  1.5372         estimate D2E/DX2                !
 ! R2    R(1,6)                  1.5372         estimate D2E/DX2                !
 ! R3    R(1,7)                  1.0977         estimate D2E/DX2                !
 ! R4    R(1,8)                  1.1005         estimate D2E/DX2                !
 ! R5    R(2,3)                  1.537          estimate D2E/DX2                !
 ! R6    R(2,9)                  1.0978         estimate D2E/DX2                !
 ! R7    R(2,10)                 1.1004         estimate D2E/DX2                !
 ! R8    R(3,4)                  1.5372         estimate D2E/DX2                !
 ! R9    R(3,11)                 1.1005         estimate D2E/DX2                !
 ! R10   R(3,12)                 1.0977         estimate D2E/DX2                !
 ! R11   R(4,5)                  1.5372         estimate D2E/DX2                !
 ! R12   R(4,13)                 1.0978         estimate D2E/DX2                !
 ! R13   R(4,14)                 1.1004         estimate D2E/DX2                !
 ! R14   R(5,6)                  1.537          estimate D2E/DX2                !
 ! R15   R(5,15)                 1.1003         estimate D2E/DX2                !
 ! R16   R(5,16)                 1.0977         estimate D2E/DX2                !
 ! R17   R(6,17)                 1.0977         estimate D2E/DX2                !
 ! R18   R(6,18)                 1.1005         estimate D2E/DX2                !
 ! A1    A(2,1,6)              111.541          estimate D2E/DX2                !
 ! A2    A(2,1,7)              110.2516         estimate D2E/DX2                !
 ! A3    A(2,1,8)              109.0884         estimate D2E/DX2                !
 ! A4    A(6,1,7)              110.2518         estimate D2E/DX2                !
 ! A5    A(6,1,8)              109.1031         estimate D2E/DX2                !
 ! A6    A(7,1,8)              106.4598         estimate D2E/DX2                !
 ! A7    A(1,2,3)              111.4865         estimate D2E/DX2                !
 ! A8    A(1,2,9)              110.2577         estimate D2E/DX2                !
 ! A9    A(1,2,10)             109.1253         estimate D2E/DX2                !
 ! A10   A(3,2,9)              110.2673         estimate D2E/DX2                !
 ! A11   A(3,2,10)             109.1085         estimate D2E/DX2                !
 ! A12   A(9,2,10)             106.4532         estimate D2E/DX2                !
 ! A13   A(2,3,4)              111.4847         estimate D2E/DX2                !
 ! A14   A(2,3,11)             109.0994         estimate D2E/DX2                !
 ! A15   A(2,3,12)             110.2809         estimate D2E/DX2                !
 ! A16   A(4,3,11)             109.1123         estimate D2E/DX2                !
 ! A17   A(4,3,12)             110.2554         estimate D2E/DX2                !
 ! A18   A(11,3,12)            106.466          estimate D2E/DX2                !
 ! A19   A(3,4,5)              111.541          estimate D2E/DX2                !
 ! A20   A(3,4,13)             110.2497         estimate D2E/DX2                !
 ! A21   A(3,4,14)             109.1036         estimate D2E/DX2                !
 ! A22   A(5,4,13)             110.2492         estimate D2E/DX2                !
 ! A23   A(5,4,14)             109.0927         estimate D2E/DX2                !
 ! A24   A(13,4,14)            106.4597         estimate D2E/DX2                !
 ! A25   A(4,5,6)              111.4865         estimate D2E/DX2                !
 ! A26   A(4,5,15)             109.128          estimate D2E/DX2                !
 ! A27   A(4,5,16)             110.2544         estimate D2E/DX2                !
 ! A28   A(6,5,15)             109.1109         estimate D2E/DX2                !
 ! A29   A(6,5,16)             110.2644         estimate D2E/DX2                !
 ! A30   A(15,5,16)            106.4544         estimate D2E/DX2                !
 ! A31   A(1,6,5)              111.4847         estimate D2E/DX2                !
 ! A32   A(1,6,17)             110.255          estimate D2E/DX2                !
 ! A33   A(1,6,18)             109.1071         estimate D2E/DX2                !
 ! A34   A(5,6,17)             110.2753         estimate D2E/DX2                !
 ! A35   A(5,6,18)             109.1019         estimate D2E/DX2                !
 ! A36   A(17,6,18)            106.4752         estimate D2E/DX2                !
 ! D1    D(6,1,2,3)            -54.6516         estimate D2E/DX2                !
 ! D2    D(6,1,2,9)           -177.4782         estimate D2E/DX2                !
 ! D3    D(6,1,2,10)            65.9365         estimate D2E/DX2                !
 ! D4    D(7,1,2,3)           -177.4919         estimate D2E/DX2                !
 ! D5    D(7,1,2,9)             59.6815         estimate D2E/DX2                !
 ! D6    D(7,1,2,10)           -56.9037         estimate D2E/DX2                !
 ! D7    D(8,1,2,3)             65.9399         estimate D2E/DX2                !
 ! D8    D(8,1,2,9)            -56.8867         estimate D2E/DX2                !
 ! D9    D(8,1,2,10)          -173.4719         estimate D2E/DX2                !
 ! D10   D(2,1,6,5)             54.6507         estimate D2E/DX2                !
 ! D11   D(2,1,6,17)           177.4842         estimate D2E/DX2                !
 ! D12   D(2,1,6,18)           -65.9161         estimate D2E/DX2                !
 ! D13   D(7,1,6,5)            177.4908         estimate D2E/DX2                !
 ! D14   D(7,1,6,17)           -59.6756         estimate D2E/DX2                !
 ! D15   D(7,1,6,18)            56.9241         estimate D2E/DX2                !
 ! D16   D(8,1,6,5)            -65.9323         estimate D2E/DX2                !
 ! D17   D(8,1,6,17)            56.9013         estimate D2E/DX2                !
 ! D18   D(8,1,6,18)           173.5009         estimate D2E/DX2                !
 ! D19   D(1,2,3,4)             54.6204         estimate D2E/DX2                !
 ! D20   D(1,2,3,11)           -65.9543         estimate D2E/DX2                !
 ! D21   D(1,2,3,12)           177.4469         estimate D2E/DX2                !
 ! D22   D(9,2,3,4)            177.4415         estimate D2E/DX2                !
 ! D23   D(9,2,3,11)            56.8668         estimate D2E/DX2                !
 ! D24   D(9,2,3,12)           -59.732          estimate D2E/DX2                !
 ! D25   D(10,2,3,4)           -65.9777         estimate D2E/DX2                !
 ! D26   D(10,2,3,11)          173.4477         estimate D2E/DX2                !
 ! D27   D(10,2,3,12)           56.8488         estimate D2E/DX2                !
 ! D28   D(2,3,4,5)            -54.6507         estimate D2E/DX2                !
 ! D29   D(2,3,4,13)          -177.4861         estimate D2E/DX2                !
 ! D30   D(2,3,4,14)            65.9381         estimate D2E/DX2                !
 ! D31   D(11,3,4,5)            65.9164         estimate D2E/DX2                !
 ! D32   D(11,3,4,13)          -56.9191         estimate D2E/DX2                !
 ! D33   D(11,3,4,14)         -173.4949         estimate D2E/DX2                !
 ! D34   D(12,3,4,5)          -177.4917         estimate D2E/DX2                !
 ! D35   D(12,3,4,13)           59.6728         estimate D2E/DX2                !
 ! D36   D(12,3,4,14)          -56.903          estimate D2E/DX2                !
 ! D37   D(3,4,5,6)             54.6516         estimate D2E/DX2                !
 ! D38   D(3,4,5,15)           -65.9414         estimate D2E/DX2                !
 ! D39   D(3,4,5,16)           177.4722         estimate D2E/DX2                !
 ! D40   D(13,4,5,6)           177.4874         estimate D2E/DX2                !
 ! D41   D(13,4,5,15)           56.8944         estimate D2E/DX2                !
 ! D42   D(13,4,5,16)          -59.692          estimate D2E/DX2                !
 ! D43   D(14,4,5,6)           -65.9434         estimate D2E/DX2                !
 ! D44   D(14,4,5,15)          173.4635         estimate D2E/DX2                !
 ! D45   D(14,4,5,16)           56.8771         estimate D2E/DX2                !
 ! D46   D(4,5,6,1)            -54.6204         estimate D2E/DX2                !
 ! D47   D(4,5,6,17)          -177.4424         estimate D2E/DX2                !
 ! D48   D(4,5,6,18)            65.9495         estimate D2E/DX2                !
 ! D49   D(15,5,6,1)            65.9826         estimate D2E/DX2                !
 ! D50   D(15,5,6,17)          -56.8393         estimate D2E/DX2                !
 ! D51   D(15,5,6,18)         -173.4475         estimate D2E/DX2                !
 ! D52   D(16,5,6,1)          -177.4352         estimate D2E/DX2                !
 ! D53   D(16,5,6,17)           59.7428         estimate D2E/DX2                !
 ! D54   D(16,5,6,18)          -56.8654         estimate D2E/DX2                !
 --------------------------------------------------------------------------------
 Trust Radius=3.00D-01 FncErr=1.00D-07 GrdErr=1.00D-07
 Number of steps in this run=    108 maximum allowed number of steps=    108.
 GradGradGradGradGradGradGradGradGradGradGradGradGradGradGradGradGradGrad

                          Input orientation:                          
 ---------------------------------------------------------------------
 Center     Atomic      Atomic             Coordinates (Angstroms)
 Number     Number       Type             X           Y           Z
 ---------------------------------------------------------------------
      1          6           0        1.796700    3.497600    1.195500
      2          6           0        1.035300    2.258600    1.693500
      3          6           0        1.700000    0.958600    1.213200
      4          6           0        3.184400    0.905700    1.609000
      5          6           0        3.945800    2.144700    1.111000
      6          6           0        3.281100    3.444700    1.591300
      7          1           0        1.331600    4.411900    1.586300
      8          1           0        1.718000    3.551800    0.099200
      9          1           0       -0.010400    2.296200    1.361500
     10          1           0        1.013500    2.266900    2.793700
     11          1           0        1.616700    0.895000    0.117700
     12          1           0        1.167800    0.087500    1.616800
     13          1           0        3.649500   -0.008600    1.218100
     14          1           0        3.263100    0.851400    2.705200
     15          1           0        3.967700    2.136400    0.010900
     16          1           0        4.991400    2.107100    1.443100
     17          1           0        3.813300    4.315700    1.187600
     18          1           0        3.364300    3.508300    2.686800
 ---------------------------------------------------------------------
                    Distance matrix (angstroms):
                    1          2          3          4          5
     1  C    0.000000
     2  C    1.537158   0.000000
     3  C    2.540902   1.537047   0.000000
     4  C    2.968946   2.540888   1.537173   0.000000
     5  C    2.540888   2.970402   2.541829   1.537158   0.000000
     6  C    1.537173   2.541829   2.970443   2.540902   1.537047
     7  H    1.097719   2.176232   3.492879   3.965706   3.492871
     8  H    1.100457   2.163386   2.822411   3.381075   2.822545
     9  H    2.176357   1.097782   2.176381   3.493064   3.967017
    10  H    2.163855   1.100447   2.163541   2.822975   3.383016
    11  H    2.822690   2.163464   1.100502   2.163741   2.823668
    12  H    3.493106   2.176491   1.097700   2.176278   3.493593
    13  H    3.965705   3.492885   2.176247   1.097755   2.176227
    14  H    3.381109   2.822559   2.163524   1.100362   2.163372
    15  H    2.823010   3.383053   2.824040   2.163817   1.100349
    16  H    3.492979   3.966911   3.493597   2.176266   1.097717
    17  H    2.176241   3.493548   3.966965   3.493021   2.176388
    18  H    2.163668   2.823586   3.382656   2.822684   2.163491
                    6          7          8          9         10
     6  C    0.000000
     7  H    2.176247   0.000000
     8  H    2.163588   1.760836   0.000000
     9  H    3.493685   2.515489   2.481391   0.000000
    10  H    2.824002   2.481940   3.067184   1.760803   0.000000
    11  H    3.382705   3.821865   2.658795   2.481502   3.067073
    12  H    3.967049   4.327609   3.821937   2.516285   2.481670
    13  H    3.492890   5.004903   4.202271   4.327532   3.822161
    14  H    2.822464   4.202355   4.058415   3.822143   2.659356
    15  H    2.163500   3.822147   2.659380   4.204157   4.060579
    16  H    2.176296   4.327441   3.822090   5.006038   4.203968
    17  H    1.097657   2.515363   2.481620   4.327736   3.823090
    18  H    1.100494   2.481826   3.067225   3.822853   2.660594
                   11         12         13         14         15
    11  H    0.000000
    12  H    1.760928   0.000000
    13  H    2.481864   2.515359   0.000000
    14  H    3.067196   2.481620   1.760787   0.000000
    15  H    2.660767   3.823133   2.481856   3.067073   0.000000
    16  H    3.822888   4.327687   2.515454   2.481270   1.760687
    17  H    4.203680   5.006052   4.327509   3.821937   2.481494
    18  H    4.060014   4.203735   3.821911   2.658890   3.067025
                   16         17         18
    16  H    0.000000
    17  H    2.516170   0.000000
    18  H    2.481452   1.760993   0.000000
 Stoichiometry    C6H12
 Framework group  C1[X(C6H12)]
 Deg. of freedom    48
 Full point group                 C1      NOp   1
 Largest Abelian subgroup         C1      NOp   1
 Largest concise Abelian subgroup C1      NOp   1
                         Standard orientation:                         
 ---------------------------------------------------------------------
 Center     Atomic      Atomic             Coordinates (Angstroms)
 Number     Number       Type             X           Y           Z
 ---------------------------------------------------------------------
      1          6           0        0.028280   -1.466397   -0.229230
      2          6           0        1.284807   -0.708900    0.229237
      3          6           0        1.256542    0.757913   -0.229211
      4          6           0       -0.028287    1.466392    0.229234
      5          6           0       -1.284814    0.708895   -0.229233
      6          6           0       -1.256550   -0.757919    0.229215
      7          1           0        0.048172   -2.497709    0.146255
      8          1           0        0.029764   -1.534378   -1.327584
      9          1           0        2.187614   -1.207527   -0.146842
     10          1           0        1.345070   -0.741958    1.327536
     11          1           0        1.315114    0.793081   -1.327590
     12          1           0        2.139350    1.291113    0.146678
     13          1           0       -0.048184    2.497704   -0.146350
     14          1           0       -0.029730    1.534463    1.327488
     15          1           0       -1.345163    0.741996   -1.327427
     16          1           0       -2.187528    1.207475    0.146942
     17          1           0       -2.139316   -1.291028   -0.146774
     18          1           0       -1.315032   -0.793132    1.327590
 ---------------------------------------------------------------------
 Rotational constants (GHZ):      4.2820862      4.2788434      2.4415319
 Standard basis: 6-31G(d) (6D, 7F)
 There are   114 symmetry adapted cartesian basis functions of A   symmetry.
 There are   114 symmetry adapted basis functions of A   symmetry.
   114 basis functions,   216 primitive gaussians,   114 cartesian basis functions
    24 alpha electrons       24 beta electrons
       nuclear repulsion energy       254.9174611392 Hartrees.
 NAtoms=   18 NActive=   18 NUniq=   18 SFac= 1.00D+00 NAtFMM=   60 NAOKFM=F Big=F
 Integral buffers will be    131072 words long.
 Raffenetti 1 integral format.
 Two-electron integral symmetry is turned on.
 One-electron integrals computed using PRISM.
 NBasis=   114 RedAO= T EigKep=  5.00D-03  NBF=   114
 NBsUse=   114 1.00D-06 EigRej= -1.00D+00 NBFU=   114
 ExpMin= 1.61D-01 ExpMax= 3.05D+03 ExpMxC= 4.57D+02 IAcc=1 IRadAn=         1 AccDes= 0.00D+00
 Harris functional with IExCor=  205 and IRadAn=       1 diagonalized for initial guess.
 HarFok:  IExCor=  205 AccDes= 0.00D+00 IRadAn=         1 IDoV= 1 UseB2=F ITyADJ=14
 ICtDFT=  3500011 ScaDFX=  1.000000  1.000000  1.000000  1.000000
 FoFCou: FMM=F IPFlag=           0 FMFlag=      100000 FMFlg1=           0
         NFxFlg=           0 DoJE=T BraDBF=F KetDBF=T FulRan=T
         wScrn=  0.000000 ICntrl=     500 IOpCl=  0 I1Cent=   200000004 NGrid=           0
         NMat0=    1 NMatS0=      1 NMatT0=    0 NMatD0=    1 NMtDS0=    0 NMtDT0=    0
 Petite list used in FoFCou.
 Keep R1 ints in memory in canonical form, NReq=22453382.
 Requested convergence on RMS density matrix=1.00D-08 within 128 cycles.
 Requested convergence on MAX density matrix=1.00D-06.
 Requested convergence on             energy=1.00D-06.
 No special actions if energy rises.
 SCF Done:  E(RHF) =  -234.206906861     A.U. after   10 cycles
            NFock= 10  Conv=0.36D-08     -V/T= 2.0014

 **********************************************************************

            Population analysis using the SCF density.

 **********************************************************************

 Orbital symmetries:
       Occupied  (A) (A) (A) (A) (A) (A) (A) (A) (A) (A) (A) (A)
                 (A) (A) (A) (A) (A) (A) (A) (A) (A) (A) (A) (A)
       Virtual   (A) (A) (A) (A) (A) (A) (A) (A) (A) (A) (A) (A)
                 (A) (A) (A) (A) (A) (A) (A) (A) (A) (A) (A) (A)
                 (A) (A) (A) (A) (A) (A) (A) (A) (A) (A) (A) (A)
                 (A) (A) (A) (A) (A) (A) (A) (A) (A) (A) (A) (A)
                 (A) (A) (A) (A) (A) (A) (A) (A) (A) (A) (A) (A)
                 (A) (A) (A) (A) (A) (A) (A) (A) (A) (A) (A) (A)
                 (A) (A) (A) (A) (A) (A) (A) (A) (A) (A) (A) (A)
                 (A) (A) (A) (A) (A) (A)
 The electronic state is 1-A.
 Alpha  occ. eigenvalues --  -11.21563 -11.21536 -11.21536 -11.21478 -11.21478
 Alpha  occ. eigenvalues --  -11.21447  -1.10695  -0.99624  -0.99615  -0.82408
 Alpha  occ. eigenvalues --   -0.82406  -0.74589  -0.64309  -0.60343  -0.59170
 Alpha  occ. eigenvalues --   -0.59160  -0.52200  -0.52185  -0.50904  -0.47755
 Alpha  occ. eigenvalues --   -0.47749  -0.44614  -0.42398  -0.42390
 Alpha virt. eigenvalues --    0.22479   0.25546   0.27946   0.27953   0.30845
 Alpha virt. eigenvalues --    0.32009   0.32485   0.32486   0.33989   0.34000
 Alpha virt. eigenvalues --    0.34577   0.34579   0.40997   0.41006   0.42179
 Alpha virt. eigenvalues --    0.45711   0.45713   0.47623   0.71856   0.72865
 Alpha virt. eigenvalues --    0.74278   0.74997   0.75003   0.79580   0.79584
 Alpha virt. eigenvalues --    0.90645   0.90663   0.94488   0.99713   0.99751
 Alpha virt. eigenvalues --    0.99758   1.03147   1.07141   1.07172   1.14116
 Alpha virt. eigenvalues --    1.14126   1.14707   1.16321   1.16397   1.16409
 Alpha virt. eigenvalues --    1.19626   1.19627   1.22052   1.24285   1.25324
 Alpha virt. eigenvalues --    1.25331   1.28706   1.40306   1.40330   1.63090
 Alpha virt. eigenvalues --    1.63157   1.66427   1.66447   1.79772   1.85593
 Alpha virt. eigenvalues --    1.96941   1.96968   2.02572   2.03197   2.18514
 Alpha virt. eigenvalues --    2.18586   2.21708   2.21723   2.30043   2.30053
 Alpha virt. eigenvalues --    2.32962   2.35365   2.40574   2.47039   2.47051
 Alpha virt. eigenvalues --    2.60796   2.60813   2.68654   2.68684   2.72966
 Alpha virt. eigenvalues --    2.73164   2.73205   2.73723   2.95939   2.95952
 Alpha virt. eigenvalues --    3.01964   3.05247   3.05277   3.13533   4.55605
 Alpha virt. eigenvalues --    4.68665   4.68675   4.97775   4.98333   4.98342
          Condensed to atoms (all electrons):
               1          2          3          4          5          6
     1  C    5.106970   0.338931  -0.054514  -0.004062  -0.054520   0.338928
     2  C    0.338931   5.106784   0.338879  -0.054521  -0.004046  -0.054362
     3  C   -0.054514   0.338879   5.106745   0.338929  -0.054363  -0.004048
     4  C   -0.004062  -0.054521   0.338929   5.106947   0.338944  -0.054515
     5  C   -0.054520  -0.004046  -0.054363   0.338944   5.106749   0.338892
     6  C    0.338928  -0.054362  -0.004048  -0.054515   0.338892   5.106732
     7  H    0.402274  -0.037329   0.004253  -0.000337   0.004253  -0.037329
     8  H    0.394727  -0.043607  -0.003027   0.000325  -0.003025  -0.043588
     9  H   -0.037315   0.402284  -0.037324   0.004253  -0.000337   0.004242
    10  H   -0.043557   0.394731  -0.043575  -0.003032   0.000329  -0.003014
    11  H   -0.003031  -0.043594   0.394743  -0.043580  -0.003014   0.000328
    12  H    0.004250  -0.037302   0.402282  -0.037318   0.004242  -0.000337
    13  H   -0.000337   0.004253  -0.037332   0.402273  -0.037332   0.004253
    14  H    0.000325  -0.003024  -0.043587   0.394735  -0.043600  -0.003026
    15  H   -0.003031   0.000329  -0.003013  -0.043550   0.394740  -0.043569
    16  H    0.004254  -0.000337   0.004243  -0.037320   0.402292  -0.037329
    17  H   -0.037320   0.004242  -0.000337   0.004251  -0.037313   0.402286
    18  H   -0.043590  -0.003014   0.000328  -0.003029  -0.043589   0.394743
               7          8          9         10         11         12
     1  C    0.402274   0.394727  -0.037315  -0.043557  -0.003031   0.004250
     2  C   -0.037329  -0.043607   0.402284   0.394731  -0.043594  -0.037302
     3  C    0.004253  -0.003027  -0.037324  -0.043575   0.394743   0.402282
     4  C   -0.000337   0.000325   0.004253  -0.003032  -0.043580  -0.037318
     5  C    0.004253  -0.003025  -0.000337   0.000329  -0.003014   0.004242
     6  C   -0.037329  -0.043588   0.004242  -0.003014   0.000328  -0.000337
     7  H    0.544901  -0.029251  -0.002270  -0.003133  -0.000088  -0.000087
     8  H   -0.029251   0.569096  -0.003138   0.004677   0.002930  -0.000088
     9  H   -0.002270  -0.003138   0.544908  -0.029270  -0.003140  -0.002262
    10  H   -0.003133   0.004677  -0.029270   0.569031   0.004678  -0.003136
    11  H   -0.000088   0.002930  -0.003140   0.004678   0.569062  -0.029251
    12  H   -0.000087  -0.000088  -0.002262  -0.003136  -0.029251   0.544833
    13  H    0.000011  -0.000043  -0.000087  -0.000088  -0.003134  -0.002271
    14  H   -0.000043   0.000083  -0.000088   0.002927   0.004677  -0.003134
    15  H   -0.000088   0.002927  -0.000042   0.000082   0.002920  -0.000088
    16  H   -0.000087  -0.000088   0.000011  -0.000042  -0.000088  -0.000087
    17  H   -0.002271  -0.003133  -0.000087  -0.000088  -0.000042   0.000011
    18  H   -0.003134   0.004677  -0.000088   0.002921   0.000082  -0.000042
              13         14         15         16         17         18
     1  C   -0.000337   0.000325  -0.003031   0.004254  -0.037320  -0.043590
     2  C    0.004253  -0.003024   0.000329  -0.000337   0.004242  -0.003014
     3  C   -0.037332  -0.043587  -0.003013   0.004243  -0.000337   0.000328
     4  C    0.402273   0.394735  -0.043550  -0.037320   0.004251  -0.003029
     5  C   -0.037332  -0.043600   0.394740   0.402292  -0.037313  -0.043589
     6  C    0.004253  -0.003026  -0.043569  -0.037329   0.402286   0.394743
     7  H    0.000011  -0.000043  -0.000088  -0.000087  -0.002271  -0.003134
     8  H   -0.000043   0.000083   0.002927  -0.000088  -0.003133   0.004677
     9  H   -0.000087  -0.000088  -0.000042   0.000011  -0.000087  -0.000088
    10  H   -0.000088   0.002927   0.000082  -0.000042  -0.000088   0.002921
    11  H   -0.003134   0.004677   0.002920  -0.000088  -0.000042   0.000082
    12  H   -0.002271  -0.003134  -0.000088  -0.000087   0.000011  -0.000042
    13  H    0.544926  -0.029253  -0.003134  -0.002270  -0.000087  -0.000088
    14  H   -0.029253   0.569049   0.004677  -0.003138  -0.000088   0.002929
    15  H   -0.003134   0.004677   0.568981  -0.029272  -0.003136   0.004678
    16  H   -0.002270  -0.003138  -0.029272   0.544907  -0.002263  -0.003141
    17  H   -0.000087  -0.000088  -0.003136  -0.002263   0.544816  -0.029236
    18  H   -0.000088   0.002929   0.004678  -0.003141  -0.029236   0.569048
 Mulliken charges:
               1
     1  C   -0.309381
     2  C   -0.309296
     3  C   -0.309282
     4  C   -0.309391
     5  C   -0.309302
     6  C   -0.309285
     7  H    0.159756
     8  H    0.149546
     9  H    0.159750
    10  H    0.149557
    11  H    0.149541
    12  H    0.159784
    13  H    0.159740
    14  H    0.149579
    15  H    0.149589
    16  H    0.159757
    17  H    0.159793
    18  H    0.149544
 Sum of Mulliken charges =  -0.00000
 Mulliken charges with hydrogens summed into heavy atoms:
               1
     1  C   -0.000079
     2  C    0.000012
     3  C    0.000043
     4  C   -0.000073
     5  C    0.000045
     6  C    0.000052
 Electronic spatial extent (au):  <R**2>=            596.4405
 Charge=             -0.0000 electrons
 Dipole moment (field-independent basis, Debye):
    X=             -0.0002    Y=              0.0000    Z=             -0.0000  Tot=              0.0002
 Quadrupole moment (field-independent basis, Debye-Ang):
   XX=            -40.7525   YY=            -40.7564   ZZ=            -40.1543
   XY=              0.0007   XZ=              0.0009   YZ=              0.0007
 Traceless Quadrupole moment (field-independent basis, Debye-Ang):
   XX=             -0.1981   YY=             -0.2020   ZZ=              0.4001
   XY=              0.0007   XZ=              0.0009   YZ=              0.0007
 Octapole moment (field-independent basis, Debye-Ang**2):
  XXX=             -0.0011  YYY=             -0.0001  ZZZ=              0.0002  XYY=             -0.0002
  XXY=              0.0003  XXZ=             -0.0010  XZZ=             -0.0008  YZZ=              0.0007
  YYZ=              0.0003  XYZ=             -0.0000
 Hexadecapole moment (field-independent basis, Debye-Ang**3):
 XXXX=           -361.9306 YYYY=           -361.6914 ZZZZ=            -97.9907 XXXY=              0.0052
 XXXZ=             -0.1661 YYYX=              0.0048 YYYZ=             -2.9750 ZZZX=              0.0027
 ZZZY=             -0.0006 XXYY=           -120.5939 XXZZ=            -78.8065 YYZZ=            -78.7731
 XXYZ=              2.9801 YYXZ=              0.1740 ZZXY=             -0.0019
 N-N= 2.549174611392D+02 E-N=-1.054099189450D+03  KE= 2.338815194359D+02
 Calling FoFJK, ICntrl=      2127 FMM=F ISym2X=0 I1Cent= 0 IOpClX= 0 NMat=1 NMatS=1 NMatT=0.
 ***** Axes restored to original set *****
 -------------------------------------------------------------------
 Center     Atomic                   Forces (Hartrees/Bohr)
 Number     Number              X              Y              Z
 -------------------------------------------------------------------
      1        6          -0.002094528    0.003585431   -0.003988125
      2        6          -0.003823215    0.000171512    0.004225773
      3        6          -0.002211737   -0.003336885   -0.003991736
      4        6           0.002093705   -0.003611757    0.003902740
      5        6           0.003789190   -0.000174189   -0.004153839
      6        6           0.002184466    0.003310494    0.003980652
      7        1           0.003313306   -0.006484833   -0.002450296
      8        1           0.000525507   -0.000299703    0.007629901
      9        1           0.007456958   -0.000261872    0.002025146
     10        1           0.000104440   -0.000034181   -0.007649793
     11        1           0.000555627    0.000367515    0.007657587
     12        1           0.003782576    0.006194343   -0.002526561
     13        1          -0.003322259    0.006500858    0.002460676
     14        1          -0.000520148    0.000303847   -0.007572189
     15        1          -0.000109363    0.000034051    0.007589986
     16        1          -0.007412704    0.000261200   -0.002016775
     17        1          -0.003772179   -0.006164312    0.002533237
     18        1          -0.000539644   -0.000361519   -0.007656382
 -------------------------------------------------------------------
 Cartesian Forces:  Max     0.007657587 RMS     0.004080226

 GradGradGradGradGradGradGradGradGradGradGradGradGradGradGradGradGradGrad
 Berny optimization.
 FormGI is forming the generalized inverse of G from B-inverse, IUseBI=4.
 Internal  Forces:  Max     0.007724605 RMS     0.002706424
 Search for a local minimum.
 Step number   1 out of a maximum of  108
 All quantities printed in internal units (Hartrees-Bohrs-Radians)
 Mixed Optimization -- RFO/linear search
 Second derivative matrix not updated -- first step.
 ITU=  0
     Eigenvalues ---    0.00456   0.00457   0.00550   0.01813   0.01814
     Eigenvalues ---    0.03549   0.03811   0.03814   0.04098   0.04749
     Eigenvalues ---    0.04751   0.04795   0.05457   0.05459   0.05909
     Eigenvalues ---    0.06030   0.07994   0.08001   0.08109   0.08112
     Eigenvalues ---    0.08112   0.08121   0.08158   0.08165   0.12053
     Eigenvalues ---    0.12082   0.12086   0.16084   0.16090   0.21875
     Eigenvalues ---    0.27294   0.27611   0.27618   0.28771   0.28772
     Eigenvalues ---    0.28782   0.33627   0.33628   0.33632   0.33633
     Eigenvalues ---    0.33642   0.33644   0.33929   0.33932   0.33936
     Eigenvalues ---    0.33936   0.33938   0.33943
 RFO step:  Lambda=-2.39118133D-03 EMin= 4.56244455D-03
 Linear search not attempted -- first point.
 Iteration  1 RMS(Cart)=  0.01111556 RMS(Int)=  0.00001971
 Iteration  2 RMS(Cart)=  0.00001289 RMS(Int)=  0.00000294
 Iteration  3 RMS(Cart)=  0.00000000 RMS(Int)=  0.00000294
 Variable       Old X    -DE/DX   Delta X   Delta X   Delta X     New X
                                 (Linear)    (Quad)   (Total)
    R1        2.90481  -0.00379   0.00000  -0.01308  -0.01308   2.89173
    R2        2.90484  -0.00379   0.00000  -0.01308  -0.01308   2.89175
    R3        2.07439  -0.00768   0.00000  -0.02247  -0.02247   2.05192
    R4        2.07956  -0.00765   0.00000  -0.02260  -0.02260   2.05697
    R5        2.90460  -0.00370   0.00000  -0.01276  -0.01276   2.89184
    R6        2.07451  -0.00772   0.00000  -0.02261  -0.02261   2.05190
    R7        2.07954  -0.00765   0.00000  -0.02259  -0.02259   2.05696
    R8        2.90484  -0.00380   0.00000  -0.01309  -0.01309   2.89175
    R9        2.07965  -0.00769   0.00000  -0.02270  -0.02270   2.05695
   R10        2.07435  -0.00768   0.00000  -0.02247  -0.02247   2.05189
   R11        2.90481  -0.00379   0.00000  -0.01307  -0.01307   2.89174
   R12        2.07446  -0.00770   0.00000  -0.02253  -0.02253   2.05193
   R13        2.07938  -0.00760   0.00000  -0.02242  -0.02242   2.05696
   R14        2.90460  -0.00370   0.00000  -0.01275  -0.01275   2.89185
   R15        2.07936  -0.00759   0.00000  -0.02240  -0.02240   2.05696
   R16        2.07439  -0.00768   0.00000  -0.02247  -0.02247   2.05191
   R17        2.07427  -0.00765   0.00000  -0.02239  -0.02239   2.05189
   R18        2.07963  -0.00768   0.00000  -0.02269  -0.02269   2.05695
    A1        1.94676  -0.00016   0.00000  -0.00221  -0.00222   1.94454
    A2        1.92425  -0.00005   0.00000  -0.00183  -0.00184   1.92242
    A3        1.90395   0.00012   0.00000   0.00244   0.00244   1.90639
    A4        1.92426  -0.00004   0.00000  -0.00183  -0.00184   1.92242
    A5        1.90421   0.00010   0.00000   0.00221   0.00221   1.90642
    A6        1.85807   0.00003   0.00000   0.00150   0.00150   1.85958
    A7        1.94581  -0.00006   0.00000  -0.00133  -0.00134   1.94447
    A8        1.92436  -0.00012   0.00000  -0.00216  -0.00217   1.92219
    A9        1.90460   0.00010   0.00000   0.00193   0.00193   1.90652
   A10        1.92453  -0.00008   0.00000  -0.00202  -0.00203   1.92250
   A11        1.90430   0.00009   0.00000   0.00222   0.00222   1.90652
   A12        1.85796   0.00006   0.00000   0.00161   0.00162   1.85957
   A13        1.94578  -0.00004   0.00000  -0.00126  -0.00126   1.94451
   A14        1.90414   0.00009   0.00000   0.00235   0.00235   1.90649
   A15        1.92476  -0.00009   0.00000  -0.00227  -0.00228   1.92249
   A16        1.90437   0.00010   0.00000   0.00211   0.00211   1.90648
   A17        1.92432  -0.00011   0.00000  -0.00211  -0.00212   1.92220
   A18        1.85818   0.00006   0.00000   0.00141   0.00142   1.85960
   A19        1.94676  -0.00016   0.00000  -0.00220  -0.00221   1.94455
   A20        1.92422  -0.00004   0.00000  -0.00180  -0.00181   1.92241
   A21        1.90422   0.00011   0.00000   0.00220   0.00220   1.90641
   A22        1.92421  -0.00004   0.00000  -0.00179  -0.00179   1.92242
   A23        1.90403   0.00012   0.00000   0.00236   0.00236   1.90639
   A24        1.85807   0.00003   0.00000   0.00151   0.00151   1.85959
   A25        1.94581  -0.00005   0.00000  -0.00132  -0.00132   1.94448
   A26        1.90464   0.00009   0.00000   0.00187   0.00187   1.90651
   A27        1.92430  -0.00011   0.00000  -0.00211  -0.00211   1.92219
   A28        1.90435   0.00009   0.00000   0.00216   0.00216   1.90650
   A29        1.92448  -0.00008   0.00000  -0.00198  -0.00199   1.92249
   A30        1.85798   0.00007   0.00000   0.00161   0.00162   1.85960
   A31        1.94578  -0.00005   0.00000  -0.00125  -0.00126   1.94451
   A32        1.92431  -0.00011   0.00000  -0.00211  -0.00212   1.92220
   A33        1.90428   0.00011   0.00000   0.00220   0.00220   1.90647
   A34        1.92467  -0.00008   0.00000  -0.00216  -0.00217   1.92250
   A35        1.90419   0.00009   0.00000   0.00229   0.00229   1.90648
   A36        1.85834   0.00005   0.00000   0.00127   0.00127   1.85961
    D1       -0.95385  -0.00022   0.00000  -0.00439  -0.00438  -0.95823
    D2       -3.09758  -0.00001   0.00000   0.00065   0.00065  -3.09693
    D3        1.15081  -0.00007   0.00000  -0.00119  -0.00119   1.14962
    D4       -3.09782  -0.00002   0.00000   0.00079   0.00079  -3.09703
    D5        1.04164   0.00019   0.00000   0.00583   0.00582   1.04746
    D6       -0.99316   0.00012   0.00000   0.00398   0.00398  -0.98918
    D7        1.15087  -0.00011   0.00000  -0.00141  -0.00141   1.14946
    D8       -0.99286   0.00011   0.00000   0.00363   0.00363  -0.98923
    D9       -3.02766   0.00004   0.00000   0.00178   0.00178  -3.02587
   D10        0.95383   0.00023   0.00000   0.00439   0.00439   0.95823
   D11        3.09768   0.00001   0.00000  -0.00073  -0.00073   3.09695
   D12       -1.15045   0.00007   0.00000   0.00088   0.00088  -1.14958
   D13        3.09780   0.00003   0.00000  -0.00078  -0.00078   3.09702
   D14       -1.04154  -0.00019   0.00000  -0.00591  -0.00590  -1.04744
   D15        0.99351  -0.00013   0.00000  -0.00429  -0.00429   0.98922
   D16       -1.15074   0.00010   0.00000   0.00129   0.00129  -1.14945
   D17        0.99311  -0.00011   0.00000  -0.00384  -0.00384   0.98927
   D18        3.02816  -0.00005   0.00000  -0.00223  -0.00223   3.02594
   D19        0.95331   0.00028   0.00000   0.00491   0.00491   0.95821
   D20       -1.15112   0.00012   0.00000   0.00152   0.00152  -1.14960
   D21        3.09703   0.00005   0.00000  -0.00027  -0.00027   3.09676
   D22        3.09694   0.00004   0.00000  -0.00021  -0.00021   3.09673
   D23        0.99251  -0.00012   0.00000  -0.00360  -0.00360   0.98891
   D24       -1.04252  -0.00019   0.00000  -0.00539  -0.00539  -1.04791
   D25       -1.15153   0.00013   0.00000   0.00188   0.00188  -1.14965
   D26        3.02723  -0.00003   0.00000  -0.00151  -0.00151   3.02573
   D27        0.99220  -0.00010   0.00000  -0.00330  -0.00329   0.98890
   D28       -0.95383  -0.00023   0.00000  -0.00439  -0.00438  -0.95822
   D29       -3.09772  -0.00003   0.00000   0.00070   0.00070  -3.09701
   D30        1.15084  -0.00011   0.00000  -0.00138  -0.00138   1.14946
   D31        1.15046  -0.00007   0.00000  -0.00086  -0.00086   1.14960
   D32       -0.99343   0.00013   0.00000   0.00423   0.00423  -0.98920
   D33       -3.02806   0.00005   0.00000   0.00215   0.00215  -3.02591
   D34       -3.09782  -0.00000   0.00000   0.00088   0.00088  -3.09693
   D35        1.04149   0.00019   0.00000   0.00597   0.00597   1.04745
   D36       -0.99314   0.00012   0.00000   0.00389   0.00389  -0.98926
   D37        0.95385   0.00022   0.00000   0.00432   0.00431   0.95817
   D38       -1.15089   0.00008   0.00000   0.00123   0.00122  -1.14967
   D39        3.09747   0.00001   0.00000  -0.00062  -0.00062   3.09686
   D40        3.09774   0.00002   0.00000  -0.00078  -0.00078   3.09696
   D41        0.99300  -0.00012   0.00000  -0.00388  -0.00387   0.98912
   D42       -1.04182  -0.00019   0.00000  -0.00572  -0.00571  -1.04754
   D43       -1.15093   0.00011   0.00000   0.00141   0.00141  -1.14952
   D44        3.02751  -0.00003   0.00000  -0.00169  -0.00169   3.02582
   D45        0.99269  -0.00010   0.00000  -0.00353  -0.00353   0.98917
   D46       -0.95331  -0.00028   0.00000  -0.00485  -0.00485  -0.95815
   D47       -3.09695  -0.00005   0.00000   0.00025   0.00025  -3.09670
   D48        1.15104  -0.00011   0.00000  -0.00139  -0.00139   1.14965
   D49        1.15161  -0.00014   0.00000  -0.00192  -0.00192   1.14969
   D50       -0.99203   0.00009   0.00000   0.00317   0.00317  -0.98886
   D51       -3.02723   0.00003   0.00000   0.00153   0.00153  -3.02570
   D52       -3.09683  -0.00005   0.00000   0.00016   0.00016  -3.09667
   D53        1.04271   0.00018   0.00000   0.00526   0.00525   1.04796
   D54       -0.99249   0.00012   0.00000   0.00362   0.00362  -0.98887
         Item               Value     Threshold  Converged?
 Maximum Force            0.007725     0.000450     NO 
 RMS     Force            0.002706     0.000300     NO 
 Maximum Displacement     0.037270     0.001800     NO 
 RMS     Displacement     0.011121     0.001200     NO 
 Predicted change in Energy=-1.204837D-03
 GradGradGradGradGradGradGradGradGradGradGradGradGradGradGradGradGradGrad

                          Input orientation:                          
 ---------------------------------------------------------------------
 Center     Atomic      Atomic             Coordinates (Angstroms)
 Number     Number       Type             X           Y           Z
 ---------------------------------------------------------------------
      1          6           0        1.799860    3.491481    1.195058
      2          6           0        1.042854    2.258489    1.693347
      3          6           0        1.704244    0.964907    1.212716
      4          6           0        3.181223    0.911786    1.609413
      5          6           0        3.938253    2.144790    1.111170
      6          6           0        3.276840    3.438385    1.591763
      7          1           0        1.340339    4.395031    1.584245
      8          1           0        1.721624    3.546211    0.110754
      9          1           0        0.009322    2.295489    1.362520
     10          1           0        1.020484    2.266945    2.781580
     11          1           0        1.621446    0.900940    0.129264
     12          1           0        1.178160    0.104178    1.614420
     13          1           0        3.640728    0.008243    1.220186
     14          1           0        3.259453    0.857014    2.693714
     15          1           0        3.960660    2.136338    0.022940
     16          1           0        4.971772    2.107794    1.442059
     17          1           0        3.802912    4.299113    1.190040
     18          1           0        3.359625    3.502366    2.675212
 ---------------------------------------------------------------------
                    Distance matrix (angstroms):
                    1          2          3          4          5
     1  C    0.000000
     2  C    1.530236   0.000000
     3  C    2.528444   1.530293   0.000000
     4  C    2.955450   2.528493   1.530247   0.000000
     5  C    2.528505   2.955536   2.528484   1.530241   0.000000
     6  C    1.530251   2.528472   2.955475   2.528470   1.530302
     7  H    1.085831   2.159911   3.469325   3.939859   3.469372
     8  H    1.088499   2.150247   2.806734   3.364016   2.806823
     9  H    2.159737   1.085819   2.160011   3.469372   3.939845
    10  H    2.150341   1.088495   2.150387   2.806995   3.364307
    11  H    2.806893   2.150363   1.088492   2.150316   2.806937
    12  H    3.469322   2.159998   1.085811   2.159749   3.469218
    13  H    3.939845   3.469357   2.159915   1.085833   2.159917
    14  H    3.364046   2.806809   2.150273   1.088499   2.150251
    15  H    2.807015   3.364339   2.806997   2.150336   1.088494
    16  H    3.469384   3.939829   3.469225   2.159747   1.085826
    17  H    2.159749   3.469206   3.939778   3.469345   2.160010
    18  H    2.150312   2.806906   3.364206   2.806931   2.150360
                    6          7          8          9         10
     6  C    0.000000
     7  H    2.159923   0.000000
     8  H    2.150282   1.742713   0.000000
     9  H    3.469213   2.495766   2.462357   0.000000
    10  H    2.806970   2.462655   3.043260   1.742697   0.000000
    11  H    3.364203   3.795347   2.647232   2.462647   3.043337
    12  H    3.939786   4.294023   3.795255   2.496292   2.462658
    13  H    3.469346   4.966714   4.175047   4.294049   3.795440
    14  H    2.806791   4.175104   4.033408   3.795344   2.647378
    15  H    2.150382   3.795452   2.647401   4.175269   4.033830
    16  H    2.160018   4.294063   3.795376   4.966634   4.175202
    17  H    1.085811   2.495770   2.462413   4.293668   3.795341
    18  H    1.088489   2.462637   3.043257   3.795292   2.647482
                   11         12         13         14         15
    11  H    0.000000
    12  H    1.742705   0.000000
    13  H    2.462624   2.495770   0.000000
    14  H    3.043255   2.462401   1.742719   0.000000
    15  H    2.647534   3.795364   2.462630   3.043254   0.000000
    16  H    3.795340   4.293678   2.495801   2.462341   1.742717
    17  H    4.175119   4.966579   4.294040   3.795317   2.462641
    18  H    4.033675   4.175135   3.795394   2.647313   3.043324
                   16         17         18
    16  H    0.000000
    17  H    2.496322   0.000000
    18  H    2.462623   1.742712   0.000000
 Stoichiometry    C6H12
 Framework group  C1[X(C6H12)]
 Deg. of freedom    48
 Full point group                 C1      NOp   1
 Largest Abelian subgroup         C1      NOp   1
 Largest concise Abelian subgroup C1      NOp   1
                         Standard orientation:                         
 ---------------------------------------------------------------------
 Center     Atomic      Atomic             Coordinates (Angstroms)
 Number     Number       Type             X           Y           Z
 ---------------------------------------------------------------------
      1          6           0        1.375547   -0.488751   -0.229475
      2          6           0        1.111096    0.946879    0.229494
      3          6           0       -0.264493    1.435646   -0.229483
      4          6           0       -1.375549    0.488764    0.229457
      5          6           0       -1.111108   -0.946889   -0.229464
      6          6           0        0.264506   -1.435652    0.229473
      7          1           0        2.336056   -0.830053    0.144641
      8          1           0        1.440101   -0.511658   -1.315817
      9          1           0        1.886979    1.607851   -0.144840
     10          1           0        1.163414    0.991465    1.315816
     11          1           0       -0.276933    1.503194   -1.315806
     12          1           0       -0.449349    2.437997    0.144824
     13          1           0       -2.336043    0.830071   -0.144701
     14          1           0       -1.440129    0.511705    1.315795
     15          1           0       -1.163450   -0.991504   -1.315783
     16          1           0       -1.886977   -1.607853    0.144930
     17          1           0        0.449370   -2.437995   -0.144854
     18          1           0        0.276965   -1.503203    1.315792
 ---------------------------------------------------------------------
 Rotational constants (GHZ):      4.3287663      4.3285830      2.4685397
 Standard basis: 6-31G(d) (6D, 7F)
 There are   114 symmetry adapted cartesian basis functions of A   symmetry.
 There are   114 symmetry adapted basis functions of A   symmetry.
   114 basis functions,   216 primitive gaussians,   114 cartesian basis functions
    24 alpha electrons       24 beta electrons
       nuclear repulsion energy       256.4986569020 Hartrees.
 NAtoms=   18 NActive=   18 NUniq=   18 SFac= 1.00D+00 NAtFMM=   60 NAOKFM=F Big=F
 Integral buffers will be    131072 words long.
 Raffenetti 1 integral format.
 Two-electron integral symmetry is turned on.
 One-electron integrals computed using PRISM.
 NBasis=   114 RedAO= T EigKep=  4.84D-03  NBF=   114
 NBsUse=   114 1.00D-06 EigRej= -1.00D+00 NBFU=   114
 Initial guess from the checkpoint file:  "cyclohexane-opt.chk"
 B after Tr=    -0.000000    0.000000   -0.000000
         Rot=    0.822476    0.000016    0.000020   -0.568799 Ang=  69.33 deg.
 ExpMin= 1.61D-01 ExpMax= 3.05D+03 ExpMxC= 4.57D+02 IAcc=1 IRadAn=         1 AccDes= 0.00D+00
 Harris functional with IExCor=  205 and IRadAn=       1 diagonalized for initial guess.
 HarFok:  IExCor=  205 AccDes= 0.00D+00 IRadAn=         1 IDoV= 1 UseB2=F ITyADJ=14
 ICtDFT=  3500011 ScaDFX=  1.000000  1.000000  1.000000  1.000000
 FoFCou: FMM=F IPFlag=           0 FMFlag=      100000 FMFlg1=           0
         NFxFlg=           0 DoJE=T BraDBF=F KetDBF=T FulRan=T
         wScrn=  0.000000 ICntrl=     500 IOpCl=  0 I1Cent=   200000004 NGrid=           0
         NMat0=    1 NMatS0=      1 NMatT0=    0 NMatD0=    1 NMtDS0=    0 NMtDT0=    0
 Petite list used in FoFCou.
 Keep R1 ints in memory in canonical form, NReq=22453568.
 Requested convergence on RMS density matrix=1.00D-08 within 128 cycles.
 Requested convergence on MAX density matrix=1.00D-06.
 Requested convergence on             energy=1.00D-06.
 No special actions if energy rises.
 SCF Done:  E(RHF) =  -234.207989715     A.U. after    8 cycles
            NFock=  8  Conv=0.24D-08     -V/T= 2.0002
 Calling FoFJK, ICntrl=      2127 FMM=F ISym2X=0 I1Cent= 0 IOpClX= 0 NMat=1 NMatS=1 NMatT=0.
 ***** Axes restored to original set *****
 -------------------------------------------------------------------
 Center     Atomic                   Forces (Hartrees/Bohr)
 Number     Number              X              Y              Z
 -------------------------------------------------------------------
      1        6          -0.000207494    0.000401431   -0.000003860
      2        6          -0.000468143    0.000012186    0.000014468
      3        6          -0.000249048   -0.000391202    0.000017907
      4        6           0.000209752   -0.000400492    0.000004271
      5        6           0.000466639   -0.000009577   -0.000014421
      6        6           0.000247071    0.000386327   -0.000019095
      7        1          -0.000303831    0.000599787    0.000251183
      8        1          -0.000010699   -0.000013871   -0.000439612
      9        1          -0.000698528    0.000000438   -0.000207917
     10        1           0.000043205   -0.000000510    0.000439214
     11        1          -0.000010820    0.000016121   -0.000442895
     12        1          -0.000377342   -0.000574563    0.000256991
     13        1           0.000304710   -0.000598111   -0.000249702
     14        1           0.000011216    0.000013329    0.000440110
     15        1          -0.000040519    0.000000007   -0.000439628
     16        1           0.000694023   -0.000000861    0.000204386
     17        1           0.000378820    0.000573468   -0.000256132
     18        1           0.000010989   -0.000013907    0.000444731
 -------------------------------------------------------------------
 Cartesian Forces:  Max     0.000698528 RMS     0.000322127

 GradGradGradGradGradGradGradGradGradGradGradGradGradGradGradGradGradGrad
 Berny optimization.
 Using GEDIIS/GDIIS optimizer.
 FormGI is forming the generalized inverse of G from B-inverse, IUseBI=4.
 Internal  Forces:  Max     0.001125195 RMS     0.000331249
 Search for a local minimum.
 Step number   2 out of a maximum of  108
 All quantities printed in internal units (Hartrees-Bohrs-Radians)
 Mixed Optimization -- En-DIIS/RFO-DIIS
 Update second derivatives using D2CorX and points    1    2
 DE= -1.08D-03 DEPred=-1.20D-03 R= 8.99D-01
 TightC=F SS=  1.41D+00  RLast= 8.82D-02 DXNew= 5.0454D-01 2.6447D-01
 Trust test= 8.99D-01 RLast= 8.82D-02 DXMaxT set to 3.00D-01
 ITU=  1  0
 Use linear search instead of GDIIS.
     Eigenvalues ---    0.00458   0.00459   0.00552   0.01820   0.01820
     Eigenvalues ---    0.03563   0.03839   0.03840   0.04153   0.04744
     Eigenvalues ---    0.04744   0.04796   0.05455   0.05455   0.05919
     Eigenvalues ---    0.06012   0.07995   0.07995   0.08094   0.08094
     Eigenvalues ---    0.08094   0.08098   0.08129   0.08129   0.12038
     Eigenvalues ---    0.12069   0.12069   0.16059   0.16060   0.21876
     Eigenvalues ---    0.27265   0.27602   0.27608   0.28771   0.28779
     Eigenvalues ---    0.29385   0.33624   0.33627   0.33630   0.33632
     Eigenvalues ---    0.33641   0.33643   0.33930   0.33933   0.33936
     Eigenvalues ---    0.33937   0.33941   0.36801
 RFO step:  Lambda=-1.39462001D-05 EMin= 4.57740870D-03
 Quartic linear search produced a step of -0.09271.
 Iteration  1 RMS(Cart)=  0.00248957 RMS(Int)=  0.00000131
 Iteration  2 RMS(Cart)=  0.00000124 RMS(Int)=  0.00000086
 Iteration  3 RMS(Cart)=  0.00000000 RMS(Int)=  0.00000086
 Variable       Old X    -DE/DX   Delta X   Delta X   Delta X     New X
                                 (Linear)    (Quad)   (Total)
    R1        2.89173   0.00113   0.00121   0.00222   0.00343   2.89515
    R2        2.89175   0.00112   0.00121   0.00218   0.00340   2.89515
    R3        2.05192   0.00072   0.00208  -0.00036   0.00172   2.05364
    R4        2.05697   0.00044   0.00209  -0.00112   0.00098   2.05795
    R5        2.89184   0.00108   0.00118   0.00209   0.00328   2.89511
    R6        2.05190   0.00073   0.00210  -0.00035   0.00175   2.05365
    R7        2.05696   0.00044   0.00209  -0.00111   0.00098   2.05794
    R8        2.89175   0.00112   0.00121   0.00219   0.00340   2.89515
    R9        2.05695   0.00044   0.00210  -0.00112   0.00099   2.05794
   R10        2.05189   0.00073   0.00208  -0.00032   0.00176   2.05365
   R11        2.89174   0.00112   0.00121   0.00220   0.00341   2.89515
   R12        2.05193   0.00072   0.00209  -0.00037   0.00171   2.05364
   R13        2.05696   0.00044   0.00208  -0.00110   0.00098   2.05795
   R14        2.89185   0.00107   0.00118   0.00208   0.00326   2.89511
   R15        2.05696   0.00044   0.00208  -0.00109   0.00098   2.05794
   R16        2.05191   0.00072   0.00208  -0.00035   0.00173   2.05365
   R17        2.05189   0.00073   0.00208  -0.00032   0.00176   2.05364
   R18        2.05695   0.00044   0.00210  -0.00111   0.00099   2.05794
    A1        1.94454   0.00005   0.00021   0.00103   0.00124   1.94578
    A2        1.92242   0.00002   0.00017  -0.00011   0.00006   1.92248
    A3        1.90639  -0.00005  -0.00023  -0.00046  -0.00068   1.90571
    A4        1.92242   0.00002   0.00017  -0.00012   0.00005   1.92246
    A5        1.90642  -0.00005  -0.00021  -0.00051  -0.00071   1.90571
    A6        1.85958   0.00002  -0.00014   0.00011  -0.00003   1.85954
    A7        1.94447   0.00004   0.00012   0.00112   0.00124   1.94571
    A8        1.92219   0.00004   0.00020   0.00012   0.00032   1.92251
    A9        1.90652  -0.00005  -0.00018  -0.00062  -0.00080   1.90572
   A10        1.92250   0.00001   0.00019  -0.00019   0.00000   1.92250
   A11        1.90652  -0.00005  -0.00021  -0.00062  -0.00082   1.90570
   A12        1.85957   0.00002  -0.00015   0.00013  -0.00002   1.85955
   A13        1.94451   0.00003   0.00012   0.00108   0.00120   1.94571
   A14        1.90649  -0.00005  -0.00022  -0.00057  -0.00079   1.90570
   A15        1.92249   0.00001   0.00021  -0.00020   0.00001   1.92250
   A16        1.90648  -0.00005  -0.00020  -0.00056  -0.00075   1.90573
   A17        1.92220   0.00004   0.00020   0.00010   0.00030   1.92250
   A18        1.85960   0.00001  -0.00013   0.00009  -0.00005   1.85955
   A19        1.94455   0.00005   0.00020   0.00102   0.00122   1.94578
   A20        1.92241   0.00002   0.00017  -0.00011   0.00006   1.92247
   A21        1.90641  -0.00005  -0.00020  -0.00050  -0.00070   1.90571
   A22        1.92242   0.00002   0.00017  -0.00011   0.00006   1.92248
   A23        1.90639  -0.00005  -0.00022  -0.00046  -0.00068   1.90571
   A24        1.85959   0.00002  -0.00014   0.00010  -0.00004   1.85955
   A25        1.94448   0.00004   0.00012   0.00110   0.00122   1.94570
   A26        1.90651  -0.00005  -0.00017  -0.00062  -0.00079   1.90573
   A27        1.92219   0.00004   0.00020   0.00012   0.00032   1.92251
   A28        1.90650  -0.00005  -0.00020  -0.00060  -0.00080   1.90570
   A29        1.92249   0.00001   0.00018  -0.00018   0.00001   1.92250
   A30        1.85960   0.00002  -0.00015   0.00011  -0.00004   1.85956
   A31        1.94451   0.00003   0.00012   0.00108   0.00119   1.94571
   A32        1.92220   0.00004   0.00020   0.00011   0.00031   1.92250
   A33        1.90647  -0.00005  -0.00020  -0.00054  -0.00075   1.90573
   A34        1.92250   0.00001   0.00020  -0.00020  -0.00000   1.92249
   A35        1.90648  -0.00005  -0.00021  -0.00056  -0.00077   1.90571
   A36        1.85961   0.00001  -0.00012   0.00006  -0.00006   1.85955
    D1       -0.95823   0.00011   0.00041   0.00307   0.00348  -0.95476
    D2       -3.09693   0.00005  -0.00006   0.00246   0.00240  -3.09452
    D3        1.14962   0.00004   0.00011   0.00260   0.00271   1.15233
    D4       -3.09703   0.00004  -0.00007   0.00259   0.00252  -3.09451
    D5        1.04746  -0.00002  -0.00054   0.00199   0.00145   1.04891
    D6       -0.98918  -0.00003  -0.00037   0.00213   0.00176  -0.98742
    D7        1.14946   0.00004   0.00013   0.00279   0.00293   1.15238
    D8       -0.98923  -0.00002  -0.00034   0.00219   0.00185  -0.98738
    D9       -3.02587  -0.00003  -0.00017   0.00233   0.00216  -3.02371
   D10        0.95823  -0.00011  -0.00041  -0.00305  -0.00346   0.95476
   D11        3.09695  -0.00005   0.00007  -0.00250  -0.00243   3.09452
   D12       -1.14958  -0.00004  -0.00008  -0.00268  -0.00276  -1.15234
   D13        3.09702  -0.00004   0.00007  -0.00257  -0.00250   3.09453
   D14       -1.04744   0.00002   0.00055  -0.00201  -0.00147  -1.04890
   D15        0.98922   0.00003   0.00040  -0.00220  -0.00180   0.98742
   D16       -1.14945  -0.00004  -0.00012  -0.00281  -0.00293  -1.15238
   D17        0.98927   0.00002   0.00036  -0.00225  -0.00189   0.98738
   D18        3.02594   0.00003   0.00021  -0.00244  -0.00223   3.02371
   D19        0.95821  -0.00012  -0.00045  -0.00304  -0.00349   0.95472
   D20       -1.14960  -0.00005  -0.00014  -0.00265  -0.00279  -1.15240
   D21        3.09676  -0.00004   0.00002  -0.00231  -0.00228   3.09448
   D22        3.09673  -0.00004   0.00002  -0.00225  -0.00223   3.09449
   D23        0.98891   0.00003   0.00033  -0.00187  -0.00153   0.98738
   D24       -1.04791   0.00004   0.00050  -0.00152  -0.00102  -1.04893
   D25       -1.14965  -0.00005  -0.00017  -0.00257  -0.00274  -1.15239
   D26        3.02573   0.00003   0.00014  -0.00218  -0.00204   3.02368
   D27        0.98890   0.00003   0.00031  -0.00184  -0.00153   0.98737
   D28       -0.95822   0.00011   0.00041   0.00304   0.00345  -0.95477
   D29       -3.09701   0.00004  -0.00007   0.00256   0.00249  -3.09452
   D30        1.14946   0.00005   0.00013   0.00279   0.00292   1.15237
   D31        1.14960   0.00004   0.00008   0.00265   0.00273   1.15233
   D32       -0.98920  -0.00003  -0.00039   0.00217   0.00177  -0.98742
   D33       -3.02591  -0.00003  -0.00020   0.00240   0.00220  -3.02371
   D34       -3.09693   0.00005  -0.00008   0.00249   0.00241  -3.09453
   D35        1.04745  -0.00002  -0.00055   0.00200   0.00145   1.04890
   D36       -0.98926  -0.00002  -0.00036   0.00223   0.00187  -0.98739
   D37        0.95817  -0.00011  -0.00040  -0.00299  -0.00339   0.95477
   D38       -1.14967  -0.00004  -0.00011  -0.00254  -0.00265  -1.15232
   D39        3.09686  -0.00005   0.00006  -0.00238  -0.00232   3.09453
   D40        3.09696  -0.00004   0.00007  -0.00250  -0.00243   3.09453
   D41        0.98912   0.00003   0.00036  -0.00205  -0.00169   0.98743
   D42       -1.04754   0.00002   0.00053  -0.00189  -0.00136  -1.04890
   D43       -1.14952  -0.00004  -0.00013  -0.00271  -0.00284  -1.15237
   D44        3.02582   0.00003   0.00016  -0.00226  -0.00210   3.02373
   D45        0.98917   0.00002   0.00033  -0.00210  -0.00177   0.98739
   D46       -0.95815   0.00012   0.00045   0.00297   0.00342  -0.95473
   D47       -3.09670   0.00004  -0.00002   0.00223   0.00221  -3.09449
   D48        1.14965   0.00005   0.00013   0.00261   0.00273   1.15238
   D49        1.14969   0.00005   0.00018   0.00250   0.00268   1.15237
   D50       -0.98886  -0.00003  -0.00029   0.00177   0.00147  -0.98739
   D51       -3.02570  -0.00003  -0.00014   0.00214   0.00200  -3.02370
   D52       -3.09667   0.00004  -0.00001   0.00218   0.00217  -3.09450
   D53        1.04796  -0.00004  -0.00049   0.00145   0.00096   1.04892
   D54       -0.98887  -0.00003  -0.00034   0.00182   0.00149  -0.98739
         Item               Value     Threshold  Converged?
 Maximum Force            0.001125     0.000450     NO 
 RMS     Force            0.000331     0.000300     NO 
 Maximum Displacement     0.006758     0.001800     NO 
 RMS     Displacement     0.002489     0.001200     NO 
 Predicted change in Energy=-1.888568D-05
 GradGradGradGradGradGradGradGradGradGradGradGradGradGradGradGradGradGrad

                          Input orientation:                          
 ---------------------------------------------------------------------
 Center     Atomic      Atomic             Coordinates (Angstroms)
 Number     Number       Type             X           Y           Z
 ---------------------------------------------------------------------
      1          6           0        1.798839    3.493510    1.195743
      2          6           0        1.040509    2.258536    1.692684
      3          6           0        1.703020    0.962939    1.213504
      4          6           0        3.182251    0.909770    1.608750
      5          6           0        3.940577    2.144740    1.111797
      6          6           0        3.278071    3.440336    1.590988
      7          1           0        1.339207    4.397409    1.586524
      8          1           0        1.719956    3.549522    0.111031
      9          1           0        0.006455    2.295349    1.360438
     10          1           0        1.016909    2.267053    2.781408
     11          1           0        1.619539    0.897859    0.129647
     12          1           0        1.176595    0.101932    1.616683
     13          1           0        3.641890    0.005873    1.217975
     14          1           0        3.261133    0.853768    2.693463
     15          1           0        3.964164    2.136223    0.023072
     16          1           0        4.974632    2.107928    1.444036
     17          1           0        3.804501    4.301341    1.187812
     18          1           0        3.361552    3.505412    2.674845
 ---------------------------------------------------------------------
                    Distance matrix (angstroms):
                    1          2          3          4          5
     1  C    0.000000
     2  C    1.532050   0.000000
     3  C    2.532447   1.532027   0.000000
     4  C    2.959750   2.532444   1.532048   0.000000
     5  C    2.532443   2.959860   2.532520   1.532048   0.000000
     6  C    1.532048   2.532524   2.959861   2.532442   1.532027
     7  H    1.086740   2.162236   3.473771   3.944734   3.473760
     8  H    1.089018   2.151724   2.811787   3.368940   2.811779
     9  H    2.162257   1.086743   2.162230   3.473783   3.944847
    10  H    2.151732   1.089014   2.151694   2.811770   3.369035
    11  H    2.811781   2.151697   1.089013   2.151733   2.811858
    12  H    3.473785   2.162230   1.086742   2.162248   3.473840
    13  H    3.944736   3.473762   2.162224   1.086740   2.162231
    14  H    3.368933   2.811780   2.151723   1.089018   2.151725
    15  H    2.811764   3.369024   2.811849   2.151732   1.089014
    16  H    3.473780   3.944850   3.473844   2.162255   1.086742
    17  H    2.162251   3.473845   3.944846   3.473778   2.162226
    18  H    2.151733   2.811864   3.369037   2.811772   2.151700
                    6          7          8          9         10
     6  C    0.000000
     7  H    2.162221   0.000000
     8  H    2.151724   1.743836   0.000000
     9  H    3.473848   2.499200   2.463748   0.000000
    10  H    2.811859   2.463745   3.044654   1.743839   0.000000
    11  H    3.369040   3.801042   2.653629   2.463709   3.044617
    12  H    3.944845   4.298659   3.801066   2.499193   2.463703
    13  H    3.473765   4.972300   4.180503   4.298649   3.801025
    14  H    2.811775   4.180491   4.038722   3.801058   2.653612
    15  H    2.151696   3.801019   2.653605   4.180589   4.038793
    16  H    2.162228   4.298645   3.801054   4.972414   4.180606
    17  H    1.086742   2.499175   2.463740   4.298715   3.801124
    18  H    1.089013   2.463733   3.044655   3.801131   2.653722
                   11         12         13         14         15
    11  H    0.000000
    12  H    1.743839   0.000000
    13  H    2.463736   2.499174   0.000000
    14  H    3.044655   2.463739   1.743837   0.000000
    15  H    2.653708   3.801115   2.463746   3.044657   0.000000
    16  H    3.801123   4.298710   2.499188   2.463750   1.743842
    17  H    4.180605   4.972409   4.298651   3.801052   2.463706
    18  H    4.038808   4.180600   3.801031   2.653610   3.044621
                   16         17         18
    16  H    0.000000
    17  H    2.499184   0.000000
    18  H    2.463713   1.743839   0.000000
 Stoichiometry    C6H12
 Framework group  C1[X(C6H12)]
 Deg. of freedom    48
 Full point group                 C1      NOp   1
 Largest Abelian subgroup         C1      NOp   1
 Largest concise Abelian subgroup C1      NOp   1
                         Standard orientation:                         
 ---------------------------------------------------------------------
 Center     Atomic      Atomic             Coordinates (Angstroms)
 Number     Number       Type             X           Y           Z
 ---------------------------------------------------------------------
      1          6           0       -0.029612   -1.461786   -0.228771
      2          6           0        1.251198   -0.756548    0.228769
      3          6           0        1.280806    0.705261   -0.228772
      4          6           0        0.029610    1.461784    0.228775
      5          6           0       -1.251195    0.756547   -0.228777
      6          6           0       -1.280807   -0.705258    0.228776
      7          1           0       -0.050274   -2.481293    0.146973
      8          1           0       -0.031031   -1.531739   -1.315538
      9          1           0        2.123787   -1.284193   -0.146979
     10          1           0        1.311076   -0.792734    1.315533
     11          1           0        1.342103    0.738999   -1.315536
     12          1           0        2.174042    1.197142    0.146981
     13          1           0        0.050266    2.481293   -0.146962
     14          1           0        0.031025    1.531728    1.315544
     15          1           0       -1.311061    0.792728   -1.315542
     16          1           0       -2.123786    1.284194    0.146964
     17          1           0       -2.174046   -1.197135   -0.146975
     18          1           0       -1.342102   -0.738992    1.315539
 ---------------------------------------------------------------------
 Rotational constants (GHZ):      4.3179614      4.3176753      2.4609183
 Standard basis: 6-31G(d) (6D, 7F)
 There are   114 symmetry adapted cartesian basis functions of A   symmetry.
 There are   114 symmetry adapted basis functions of A   symmetry.
   114 basis functions,   216 primitive gaussians,   114 cartesian basis functions
    24 alpha electrons       24 beta electrons
       nuclear repulsion energy       256.1938306240 Hartrees.
 NAtoms=   18 NActive=   18 NUniq=   18 SFac= 1.00D+00 NAtFMM=   60 NAOKFM=F Big=F
 Integral buffers will be    131072 words long.
 Raffenetti 1 integral format.
 Two-electron integral symmetry is turned on.
 One-electron integrals computed using PRISM.
 NBasis=   114 RedAO= T EigKep=  4.88D-03  NBF=   114
 NBsUse=   114 1.00D-06 EigRej= -1.00D+00 NBFU=   114
 Initial guess from the checkpoint file:  "cyclohexane-opt.chk"
 B after Tr=    -0.000000    0.000000    0.000000
         Rot=    0.811069    0.000006    0.000007    0.584950 Ang=  71.60 deg.
 Keep R1 ints in memory in canonical form, NReq=22453382.
 Requested convergence on RMS density matrix=1.00D-08 within 128 cycles.
 Requested convergence on MAX density matrix=1.00D-06.
 Requested convergence on             energy=1.00D-06.
 No special actions if energy rises.
 SCF Done:  E(RHF) =  -234.208006818     A.U. after    7 cycles
            NFock=  7  Conv=0.33D-08     -V/T= 2.0003
 Calling FoFJK, ICntrl=      2127 FMM=F ISym2X=0 I1Cent= 0 IOpClX= 0 NMat=1 NMatS=1 NMatT=0.
 ***** Axes restored to original set *****
 -------------------------------------------------------------------
 Center     Atomic                   Forces (Hartrees/Bohr)
 Number     Number              X              Y              Z
 -------------------------------------------------------------------
      1        6           0.000033183   -0.000074928   -0.000142878
      2        6           0.000103975    0.000002131    0.000141131
      3        6           0.000049238    0.000079590   -0.000146762
      4        6          -0.000032999    0.000075156    0.000142475
      5        6          -0.000104139   -0.000001419   -0.000139069
      6        6          -0.000049086   -0.000080228    0.000145439
      7        1           0.000001880   -0.000001436    0.000062440
      8        1           0.000004124   -0.000013759   -0.000073525
      9        1           0.000001945    0.000002216   -0.000063855
     10        1           0.000016951    0.000002363    0.000075574
     11        1           0.000006334    0.000010081   -0.000076694
     12        1           0.000006414    0.000002827    0.000063158
     13        1          -0.000002580    0.000000675   -0.000062308
     14        1          -0.000003836    0.000013797    0.000073079
     15        1          -0.000016786   -0.000002267   -0.000075094
     16        1          -0.000001523   -0.000002232    0.000063409
     17        1          -0.000006996   -0.000002087   -0.000063212
     18        1          -0.000006100   -0.000010480    0.000076691
 -------------------------------------------------------------------
 Cartesian Forces:  Max     0.000146762 RMS     0.000065901

 GradGradGradGradGradGradGradGradGradGradGradGradGradGradGradGradGradGrad
 Berny optimization.
 Using GEDIIS/GDIIS optimizer.
 FormGI is forming the generalized inverse of G from B-inverse, IUseBI=4.
 Internal  Forces:  Max     0.000088742 RMS     0.000033730
 Search for a local minimum.
 Step number   3 out of a maximum of  108
 All quantities printed in internal units (Hartrees-Bohrs-Radians)
 Mixed Optimization -- En-DIIS/RFO-DIIS
 Swapping is turned off.
 Update second derivatives using D2CorX and points    1    2    3
 DE= -1.71D-05 DEPred=-1.89D-05 R= 9.06D-01
 TightC=F SS=  1.41D+00  RLast= 2.03D-02 DXNew= 5.0454D-01 6.0909D-02
 Trust test= 9.06D-01 RLast= 2.03D-02 DXMaxT set to 3.00D-01
 ITU=  1  1  0
     Eigenvalues ---    0.00456   0.00457   0.00556   0.01818   0.01818
     Eigenvalues ---    0.03556   0.03829   0.03829   0.04434   0.04745
     Eigenvalues ---    0.04745   0.04795   0.05452   0.05453   0.05953
     Eigenvalues ---    0.06024   0.08004   0.08004   0.08105   0.08105
     Eigenvalues ---    0.08105   0.08110   0.08144   0.08144   0.12047
     Eigenvalues ---    0.12078   0.12078   0.16081   0.16083   0.21878
     Eigenvalues ---    0.27281   0.27606   0.27612   0.28771   0.28776
     Eigenvalues ---    0.30955   0.33413   0.33627   0.33630   0.33632
     Eigenvalues ---    0.33639   0.33643   0.33930   0.33933   0.33936
     Eigenvalues ---    0.33937   0.33941   0.35915
 En-DIIS/RFO-DIIS IScMMF=        0 using points:     3    2
 RFO step:  Lambda=-3.46344765D-07.
 DidBck=F Rises=F RFO-DIIS coefs:    0.92690    0.07310
 Iteration  1 RMS(Cart)=  0.00050515 RMS(Int)=  0.00000018
 Iteration  2 RMS(Cart)=  0.00000021 RMS(Int)=  0.00000009
 Variable       Old X    -DE/DX   Delta X   Delta X   Delta X     New X
                                 (Linear)    (Quad)   (Total)
    R1        2.89515  -0.00009  -0.00025   0.00008  -0.00017   2.89499
    R2        2.89515  -0.00009  -0.00025   0.00009  -0.00016   2.89499
    R3        2.05364   0.00002  -0.00013   0.00025   0.00013   2.05377
    R4        2.05795   0.00007  -0.00007   0.00032   0.00025   2.05819
    R5        2.89511  -0.00007  -0.00024   0.00012  -0.00012   2.89499
    R6        2.05365   0.00002  -0.00013   0.00025   0.00012   2.05377
    R7        2.05794   0.00008  -0.00007   0.00033   0.00026   2.05819
    R8        2.89515  -0.00009  -0.00025   0.00009  -0.00016   2.89499
    R9        2.05794   0.00008  -0.00007   0.00033   0.00026   2.05819
   R10        2.05365   0.00002  -0.00013   0.00025   0.00012   2.05377
   R11        2.89515  -0.00009  -0.00025   0.00009  -0.00016   2.89499
   R12        2.05364   0.00002  -0.00013   0.00025   0.00013   2.05377
   R13        2.05795   0.00007  -0.00007   0.00032   0.00025   2.05819
   R14        2.89511  -0.00007  -0.00024   0.00012  -0.00012   2.89500
   R15        2.05794   0.00007  -0.00007   0.00033   0.00025   2.05819
   R16        2.05365   0.00002  -0.00013   0.00025   0.00012   2.05377
   R17        2.05364   0.00002  -0.00013   0.00025   0.00012   2.05377
   R18        2.05794   0.00008  -0.00007   0.00033   0.00026   2.05819
    A1        1.94578  -0.00002  -0.00009  -0.00043  -0.00052   1.94526
    A2        1.92248  -0.00001  -0.00000  -0.00025  -0.00025   1.92223
    A3        1.90571   0.00002   0.00005   0.00025   0.00030   1.90600
    A4        1.92246  -0.00001  -0.00000  -0.00023  -0.00023   1.92223
    A5        1.90571   0.00002   0.00005   0.00024   0.00029   1.90600
    A6        1.85954   0.00002   0.00000   0.00047   0.00047   1.86001
    A7        1.94571  -0.00001  -0.00009  -0.00036  -0.00045   1.94526
    A8        1.92251  -0.00002  -0.00002  -0.00027  -0.00029   1.92222
    A9        1.90572   0.00002   0.00006   0.00022   0.00028   1.90601
   A10        1.92250  -0.00001  -0.00000  -0.00026  -0.00026   1.92224
   A11        1.90570   0.00002   0.00006   0.00025   0.00031   1.90601
   A12        1.85955   0.00002   0.00000   0.00046   0.00046   1.86001
   A13        1.94571  -0.00001  -0.00009  -0.00036  -0.00045   1.94526
   A14        1.90570   0.00002   0.00006   0.00025   0.00031   1.90601
   A15        1.92250  -0.00002  -0.00000  -0.00026  -0.00026   1.92224
   A16        1.90573   0.00002   0.00006   0.00022   0.00028   1.90600
   A17        1.92250  -0.00002  -0.00002  -0.00026  -0.00028   1.92222
   A18        1.85955   0.00002   0.00000   0.00046   0.00046   1.86001
   A19        1.94578  -0.00002  -0.00009  -0.00043  -0.00051   1.94526
   A20        1.92247  -0.00001  -0.00000  -0.00023  -0.00024   1.92223
   A21        1.90571   0.00002   0.00005   0.00024   0.00029   1.90600
   A22        1.92248  -0.00001  -0.00000  -0.00024  -0.00024   1.92223
   A23        1.90571   0.00002   0.00005   0.00024   0.00029   1.90600
   A24        1.85955   0.00002   0.00000   0.00046   0.00047   1.86001
   A25        1.94570  -0.00001  -0.00009  -0.00035  -0.00044   1.94526
   A26        1.90573   0.00002   0.00006   0.00022   0.00028   1.90600
   A27        1.92251  -0.00002  -0.00002  -0.00026  -0.00029   1.92222
   A28        1.90570   0.00002   0.00006   0.00025   0.00031   1.90601
   A29        1.92250  -0.00001  -0.00000  -0.00026  -0.00026   1.92224
   A30        1.85956   0.00002   0.00000   0.00045   0.00046   1.86001
   A31        1.94571  -0.00001  -0.00009  -0.00036  -0.00044   1.94526
   A32        1.92250  -0.00002  -0.00002  -0.00026  -0.00029   1.92222
   A33        1.90573   0.00002   0.00005   0.00022   0.00028   1.90600
   A34        1.92249  -0.00001   0.00000  -0.00026  -0.00026   1.92224
   A35        1.90571   0.00002   0.00006   0.00025   0.00030   1.90601
   A36        1.85955   0.00002   0.00000   0.00045   0.00046   1.86001
    D1       -0.95476  -0.00005  -0.00025  -0.00107  -0.00133  -0.95608
    D2       -3.09452  -0.00000  -0.00018  -0.00030  -0.00048  -3.09500
    D3        1.15233  -0.00002  -0.00020  -0.00083  -0.00103   1.15130
    D4       -3.09451  -0.00001  -0.00018  -0.00031  -0.00050  -3.09501
    D5        1.04891   0.00004  -0.00011   0.00045   0.00035   1.04926
    D6       -0.98742   0.00002  -0.00013  -0.00008  -0.00021  -0.98762
    D7        1.15238  -0.00003  -0.00021  -0.00088  -0.00109   1.15129
    D8       -0.98738   0.00001  -0.00014  -0.00011  -0.00025  -0.98763
    D9       -3.02371  -0.00001  -0.00016  -0.00064  -0.00080  -3.02451
   D10        0.95476   0.00005   0.00025   0.00106   0.00132   0.95608
[...]
 846927,-3.0697105,-2.5538929,1.1582061,0.4455229,-0.3051665,-1.6382496
 ,-3.4630563,-7.11942,0.4540138,1.6336696,-0.4119092,1.0235357,0.652984
 1,1.7030766,-1.3378062,-2.0678145,0.6114915,2.2256381,-2.8302669,2.444
 0984,-1.0539629,0.374451,0.2630545,-1.3321293,3.2452903,-7.8877414,0.3
 845161,-1.6261933,-0.3956794,-0.9103249,0.5656083,-1.7488395,1.1647091
 ,-2.1234274,-0.5469647,-0.0273852,-0.3620571,0.578481,1.7344047,-0.104
 9492,0.4825864,0.1524403,0.9073193,-0.8309901,-0.082438,1.6981101,-0.5
 43868,0.5139803,-0.0859946,0.4399315,1.0713595,-1.5534185,7.5831619,1.
 3216271,-0.0966572,-0.7197611,-1.7338576,0.0120285,0.4657402,-0.067141
 8,-0.1840703,0.0158618,0.0159476,-1.637216,-0.0495233,-0.4115697,0.013
 4205,-0.3810943,1.5591698,-0.0997006,-7.8267634,10.5663075,-0.3197823,
 0.0872552,1.3721277,-0.0212431,0.3121489,-0.2528438,1.7954235,-0.12335
 53,-0.0196641,0.7682216,-0.0208065,1.7015842,-0.0374768,0.6272532,2.24
 42817,-0.0929506,0.2542204,2.7847363,3.0697298,2.5539017,-1.1581997,-0
 .4455199,0.305166,1.6382722,3.4630731,7.1193755,-0.4540054,-1.6336508,
 0.4118967,-1.0235391,-0.6529787,-1.7030582,1.3378147,2.067796,-0.61147
 75,0.0320317,0.5004082,0.5740723,1.7424025,0.1009637,0.5216903,-0.0048
 513,0.9410073,0.701077,0.0823668,1.7028381,0.5641791,0.527922,0.083471
 8,0.4598524,1.1863795,1.5439439,7.5318877\HyperPolar=0.0004153,-0.0000
 421,0.0001653,-0.0000811,-0.0002309,-0.0000006,0.0001967,-0.0004401,0.
 0001285,0.0000643\PG=C01 [X(C6H12)]\NImag=0\\0.54775730,-0.05023155,0.
 61958997,-0.01099216,0.03201016,0.65183527,-0.12797834,-0.04618397,0.0
 2002516,0.64910216,-0.04735118,-0.17565465,0.03359709,-0.00459970,0.52
 191463,0.02086927,0.03301837,-0.11281960,0.03363056,-0.00038103,0.6481
 9617,0.01324176,-0.01591539,-0.00797731,-0.12118470,0.04346917,0.01771
 645,0.55572518,0.01233772,-0.03251646,-0.00980610,0.04228846,-0.183415
 91,-0.03354385,0.05484844,0.61076222,-0.00738984,0.01094825,0.00733834
 ,0.01684643,-0.03405656,-0.11187922,-0.01409974,-0.03053400,0.65273027
 ,0.00116341,-0.00070271,-0.00071492,-0.01901253,0.00644370,-0.00326254
 ,-0.20913787,0.00454455,-0.03238069,0.54775930,-0.00070272,0.00226147,
 0.00123384,0.03605657,0.00081768,0.00999161,0.00330885,-0.09946498,0.0
 0069628,-0.05023179,0.61959143,-0.00071490,0.00123385,-0.00056664,0.01
 312409,0.00083255,0.00625825,-0.03233776,0.00163437,-0.10785194,-0.010
 99265,0.03201067,0.65183430,-0.01901255,0.03605663,0.01312433,0.002753
 97,-0.00006475,0.00123350,-0.02209202,-0.03413454,0.01351884,-0.127978
 31,-0.04618436,0.02002546,0.64910366,0.00644383,0.00081746,0.00083240,
 -0.00006475,0.00082624,-0.00005766,-0.00476176,0.00374752,-0.00178520,
 -0.04735158,-0.17565542,0.03359825,-0.00459871,0.52191547,-0.00326242,
 0.00999148,0.00625829,0.00123349,-0.00005765,-0.00072216,-0.00392651,-
 0.00966401,0.00641421,0.02086981,0.03301928,-0.11282026,0.03363174,-0.
 00038163,0.64819580,-0.20913745,0.00330936,-0.03233769,-0.02209186,-0.
 00476160,-0.00392657,0.00127423,0.00076586,-0.00081780,0.01324161,-0.0
 1591536,-0.00797728,-0.12118414,0.04346864,0.01771645,0.55572553,0.004
 54499,-0.09946497,0.00163468,-0.03413442,0.00374774,-0.00966406,0.0007
 6587,0.00211644,-0.00121438,0.01233766,-0.03251693,-0.00980624,0.04228
 787,-0.18341534,-0.03354402,0.05484932,0.61076179,-0.03238036,0.000696
 66,-0.10785193,0.01351855,-0.00178533,0.00641416,-0.00081778,-0.001214
 39,-0.00053263,-0.00738983,0.01094846,0.00733845,0.01684626,-0.0340570
 4,-0.11187971,-0.01409979,-0.03053459,0.65273068,-0.10896724,0.0971425
 0,0.04276584,0.01004248,-0.01756269,-0.00876346,-0.00239191,-0.0030978
 1,0.00207785,-0.00022804,-0.00065963,0.00010188,-0.00755172,-0.0023665
 7,-0.00384904,-0.01413113,0.03293296,0.01585665,0.11750359,0.09724201,
 -0.25098821,-0.08442809,0.01454067,-0.02433644,-0.01303030,-0.00539782
 ,-0.00350292,0.00392903,-0.00065854,0.00065359,-0.00014187,0.00007245,
 0.00121174,0.00042623,-0.00082423,0.00096041,0.00009082,-0.10555328,0.
 27183463,0.04391749,-0.08660822,-0.09976059,-0.00667109,0.01283537,0.0
 0526669,0.00173714,0.00168645,-0.00077671,0.00011453,-0.00016581,0.000
 01183,-0.00189363,-0.00038831,-0.00033163,-0.00545026,0.01060477,0.004
 14217,-0.04774531,0.09361686,0.10129870,-0.06088106,0.00275196,-0.0179
 0204,0.00101394,-0.00101754,0.02141835,0.00019311,0.00104759,-0.000422
 81,-0.00021702,0.00001996,0.00005064,0.00202087,-0.00079606,-0.0007628
 1,-0.00266324,0.00122943,-0.04009308,0.00139165,-0.00158260,0.01633427
 ,0.06598966,0.00267023,-0.06275663,0.01061107,0.00212278,-0.00099777,0
 .03296243,0.00049613,0.00181838,0.00106618,0.00000951,-0.00023147,-0.0
 0005429,-0.00010550,0.00001698,0.00095787,-0.00038166,-0.00010807,0.00
 050010,-0.00301158,0.00275587,-0.03206779,0.00118854,0.06221703,-0.018
 85223,0.01240975,-0.32919353,-0.00062650,-0.00008927,-0.01275150,-0.00
 020355,-0.00080289,-0.00006855,-0.00007077,0.00017561,0.00027465,0.000
 63408,-0.00023285,-0.00009496,-0.00027711,-0.00009523,-0.00996406,-0.0
 0027124,-0.00062756,-0.01344591,0.02075070,-0.01402892,0.35921068,-0.0
 1633846,0.00193784,-0.00670167,-0.31030239,0.00891151,-0.08253090,-0.0
 1398759,-0.00073638,-0.00576614,0.00061343,0.00372381,0.00212397,0.000
 97834,-0.00006064,-0.00022848,0.00019801,-0.00420433,0.00244741,0.0007
 6732,-0.00053419,-0.00028275,0.00054826,0.00043486,0.00080803,0.336321
 19,-0.03161811,0.00291822,-0.01186917,0.00889318,-0.05992273,0.0029146
 1,0.03310885,0.00073799,0.01237585,0.00126674,-0.00661418,-0.00358377,
 -0.00006075,-0.00057862,0.00001299,-0.00177148,-0.00611568,0.00349021,
 0.00083153,0.00097288,-0.00086285,0.00098756,0.00141805,0.00000332,-0.
 00967075,0.06426672,0.01456072,-0.00065010,0.00439402,-0.08499670,0.00
 300827,-0.08948988,0.01411594,-0.00040140,0.00422250,0.00045805,-0.002
 30956,-0.00067032,-0.00025560,0.00001404,0.00003751,0.00065564,0.00234
 678,-0.00075277,-0.00066296,-0.00056982,0.00013789,-0.00003451,-0.0009
 3553,0.00071133,0.09157327,-0.00328351,0.09004407,0.00006797,0.0003990
 4,0.01981492,-0.06329974,0.00019382,0.00236917,0.00005348,-0.00016984,
 0.01717912,0.00077723,-0.00072987,0.00111913,-0.00023208,0.00000056,-0
 .00004232,0.00094110,0.00077149,0.00111540,0.00063729,0.00057782,-0.00
 080518,-0.00134360,-0.00345744,0.00171358,0.00219468,-0.00034879,-0.03
 688989,0.06050960,-0.00010308,-0.00011217,0.03408282,0.00020793,-0.058
 63495,-0.00199548,0.00006556,-0.00058592,-0.03565479,-0.00140151,0.001
 28468,-0.00014567,0.00000241,-0.00020883,0.00000496,0.00141860,0.00111
 462,0.00004257,0.00104693,0.00125532,-0.00047643,-0.00429479,-0.005274
 18,0.00242687,-0.00009941,-0.00017347,0.00131879,0.00016121,0.06568255
 ,-0.00053403,-0.00017975,-0.01268970,0.00440440,-0.00207407,-0.3309036
 7,-0.00052681,0.00004978,-0.01220428,-0.00058236,0.00056137,-0.0001190
 6,0.00021757,-0.00000488,0.00026709,-0.00064335,-0.00053311,-0.0001127
 3,-0.00030438,0.00071778,0.00078496,0.00141768,0.00258019,0.00075159,-
 0.00133191,-0.00002777,-0.01131967,-0.00482972,0.00225370,0.36123231,0
 .00008564,-0.00092280,-0.00048951,0.00092898,0.00113672,0.01884535,-0.
 06132115,-0.00313196,-0.01875726,-0.00273331,-0.00159292,-0.04000147,0
 .00207729,0.00062814,-0.00084283,-0.00021937,-0.00002022,0.00005512,-0
 .00012050,-0.00013010,-0.00008622,0.00029352,0.00004665,-0.00037096,0.
 00044660,-0.00091335,0.00004933,-0.00078020,0.00396983,0.00116411,0.06
 581126,-0.00036727,0.00192198,-0.00105887,-0.00229520,-0.00138676,-0.0
 3464626,-0.00306420,-0.06267200,-0.01295942,0.00057644,-0.00002378,0.0
 0239158,-0.00004198,-0.00004947,-0.00089803,-0.00001161,-0.00023078,0.
 00005737,0.00022058,0.00034367,0.00039897,-0.00011301,-0.00050779,0.00
 073241,-0.00034946,0.00153238,0.00092413,0.00313642,-0.00590813,-0.002
 58871,-0.00114456,0.06282414,-0.00013723,0.00078858,-0.00006475,-0.000
 59324,-0.00002368,-0.01227849,-0.01984086,-0.01468254,-0.32884600,-0.0
 0028097,-0.00002293,-0.00997665,0.00064897,0.00018325,-0.00008481,-0.0
 0008339,-0.00016259,0.00027632,0.00001782,-0.00011521,0.00048226,-0.00
 042343,-0.00068264,0.00089573,0.00081058,-0.00007532,0.00069897,0.0014
 8222,-0.00245854,0.00082213,0.02192937,0.01657540,0.35878928,-0.001755
 90,0.00298915,0.00173370,0.01006587,0.01483712,-0.00796535,-0.12437445
 ,-0.10599107,0.05052845,-0.01645745,-0.03139177,0.01625737,-0.00733072
 ,0.00295997,-0.00390841,-0.00012355,0.00072003,0.00010230,0.00067794,0
 .00107895,-0.00015872,-0.00012471,-0.00018488,0.00002937,0.00074556,-0
 .00082246,-0.00060685,0.00051782,-0.00099566,-0.00034379,0.00175566,0.
 00310099,-0.00027458,0.13423199,0.00528541,-0.00421870,-0.00402944,-0.
 01724709,-0.02434294,0.01408052,-0.10607218,-0.23319819,0.08288189,0.0
 0205688,0.00313359,-0.00127639,0.00054892,0.00099410,-0.00015293,0.000
 71907,0.00055297,0.00012579,-0.00127853,-0.00192217,0.00060510,0.00016
 401,0.00034395,0.00011543,0.00054862,0.00101487,0.00060564,-0.00053304
 ,0.00137210,-0.00070057,0.00192142,0.00283853,0.00041689,0.11514960,0.
 25249378,0.00153126,-0.00176622,-0.00069646,-0.00738357,-0.01188712,0.
 00524991,0.05184262,0.08496916,-0.10214254,-0.00625397,-0.01013152,0.0
 0429688,-0.00186294,0.00051020,-0.00033388,0.00011674,0.00014876,0.000
 00783,-0.00018617,-0.00055764,0.00052400,-0.00011816,-0.00038932,0.000
 48618,-0.00022469,0.00086981,0.00011742,-0.00075934,0.00052807,0.00078
 807,0.01867728,0.03051143,-0.01389265,-0.05632135,-0.09192220,0.103907
 02,-0.00022804,-0.00065964,0.00010188,-0.00755166,-0.00236663,-0.00384
 905,-0.01413104,0.03293291,0.01585638,-0.10896867,0.09714420,0.0427658
 5,0.01004244,-0.01756275,-0.00876329,-0.00239185,-0.00309783,0.0020778
 8,0.00021430,0.00013462,0.00000707,0.00009870,0.00009061,-0.00006664,-
 0.00117225,0.00240324,0.00059653,0.00022616,-0.00034862,0.00011660,0.0
 0184029,-0.00021381,-0.00048949,0.00116309,-0.00071044,0.00079844,0.11
 750483,-0.00065855,0.00065358,-0.00014186,0.00007237,0.00121173,0.0004
 2620,-0.00082441,0.00096066,0.00009097,0.09724351,-0.25098847,-0.08442
 703,0.01454074,-0.02433684,-0.01303023,-0.00539781,-0.00350301,0.00392
 911,0.00013462,0.00002671,-0.00004052,0.00009628,-0.00002317,0.0001107
 9,-0.00002812,-0.00004623,-0.00013835,-0.00003943,-0.00000574,-0.00005
 883,0.00031972,0.00011757,0.00066062,0.00068584,0.00069252,0.00015605,
 -0.10555473,0.27183535,0.00011452,-0.00016581,0.00001183,-0.00189364,-
 0.00038833,-0.00033164,-0.00545026,0.01060486,0.00414209,0.04391745,-0
 .08660724,-0.09975959,-0.00667116,0.01283557,0.00526677,0.00173715,0.0
 0168644,-0.00077676,0.00000707,-0.00004052,-0.00003016,-0.00000074,-0.
 00001398,-0.00002911,-0.00028940,0.00032431,0.00049819,-0.00026179,0.0
 0034043,0.00048506,0.00076033,0.00043664,0.00071973,0.00077425,-0.0002
 2499,0.00002260,-0.04774528,0.09361564,0.10129743,-0.00021702,0.000019
 96,0.00005065,0.00202090,-0.00079604,-0.00076279,-0.00266323,0.0012290
 9,-0.04009309,-0.06088124,0.00275178,-0.01790177,0.00101401,-0.0010173
 0,0.02141819,0.00019313,0.00104762,-0.00042281,0.00009870,0.00009628,-
 0.00000074,-0.00008816,-0.00012085,0.00010393,0.00020696,-0.00037678,0
 .00042264,-0.00025030,0.00052315,0.00086506,-0.00801114,0.00073221,-0.
 00233646,0.00182256,-0.00043908,0.00073074,0.00139166,-0.00158251,0.01
 633435,0.06598972,0.00000952,-0.00023146,-0.00005429,-0.00010550,0.000
 01698,0.00095786,-0.00038166,-0.00010803,0.00049990,0.00267005,-0.0627
 5653,0.01060864,0.00212291,-0.00099753,0.03296232,0.00049613,0.0018183
 8,0.00106622,0.00009061,-0.00002317,-0.00001398,-0.00012085,0.00005676
 ,-0.00017821,-0.00005930,0.00003214,-0.00010143,0.00026557,0.00009554,
 -0.00002510,-0.00008045,0.00102448,0.00028386,0.00007674,0.00011991,-0
 .00048449,-0.00301161,0.00275562,-0.03206779,0.00118864,0.06221688,-0.
 00007079,0.00017562,0.00027465,0.00063408,-0.00023284,-0.00009495,-0.0
 0027715,-0.00009527,-0.00996415,-0.01885197,0.01240745,-0.32919266,-0.
 00062657,-0.00008940,-0.01275177,-0.00020357,-0.00080297,-0.00006854,-
 0.00006664,0.00011079,-0.00002911,0.00010394,-0.00017821,0.00005914,-0
 .00008991,0.00008495,0.00046635,-0.00032542,0.00071449,0.00083626,-0.0
 0234569,-0.00010563,0.00112049,-0.00053970,-0.00061309,0.00073519,-0.0
 0027120,-0.00062764,-0.01344559,0.02075053,-0.01402630,0.35920987,0.00
 077722,-0.00072986,0.00111913,-0.00023208,0.00000057,-0.00004232,0.000
 94110,0.00077148,0.00111543,0.00006815,0.00039907,0.01981475,-0.063299
 73,0.00019379,0.00236589,0.00005363,-0.00016988,0.01717889,0.00022616,
 -0.00003944,-0.00026177,-0.00025029,0.00026559,-0.00032540,-0.00006655
 ,0.00000812,-0.00000992,0.00010059,-0.00001119,-0.00020846,-0.00030741
 ,-0.00024019,-0.00037459,0.00025394,0.00001574,-0.00028689,0.00063726,
 0.00057781,-0.00080518,-0.00134358,-0.00345741,0.00171361,0.06050959,-
 0.00140150,0.00128473,-0.00014567,0.00000241,-0.00020883,0.00000496,0.
 00141861,0.00111467,0.00004258,-0.00010272,-0.00011201,0.03408270,0.00
 020791,-0.05863514,-0.00199564,0.00006514,-0.00058577,-0.03565463,-0.0
 0034863,-0.00000574,0.00034043,0.00052316,0.00009552,0.00071449,0.0000
 0909,0.00014922,-0.00000093,-0.00001119,-0.00015621,0.00000956,-0.0004
 8078,0.00014291,-0.00067791,0.00033035,-0.00003735,-0.00031254,0.00104
 692,0.00125530,-0.00047643,-0.00429474,-0.00527416,0.00242690,0.000161
 26,0.06568240,-0.00058238,0.00056140,-0.00011905,0.00021759,-0.0000048
 8,0.00026709,-0.00064339,-0.00053316,-0.00011272,-0.00053415,-0.000179
 81,-0.01268999,0.00440126,-0.00207417,-0.33090316,-0.00052693,0.000049
 85,-0.01220440,0.00011659,-0.00005883,0.00048507,0.00086506,-0.0000251
 1,0.00083627,0.00013119,-0.00000627,-0.00003626,-0.00020846,0.00000957
 ,0.00008332,0.00087192,-0.00003047,0.00084587,0.00011628,0.00005715,0.
 00048873,-0.00030437,0.00071777,0.00078494,0.00141768,0.00258024,0.000
 75154,-0.00482621,0.00225378,0.36123173,0.00061343,0.00372379,0.002123
 98,0.00097835,-0.00006064,-0.00022848,0.00019801,-0.00420433,0.0024474
 4,-0.01633852,0.00193784,-0.00670150,-0.31030418,0.00891157,-0.0825293
 2,-0.01398758,-0.00073635,-0.00576596,-0.00117225,-0.00002811,-0.00028
 939,0.00020696,-0.00005930,-0.00008991,-0.00004755,0.00001233,-0.00003
 820,-0.00006655,0.00000909,0.00013119,0.00023895,0.00004231,-0.0000965
 7,-0.00134452,0.00012220,-0.00031380,0.00076736,-0.00053418,-0.0002827
 7,0.00054824,0.00043485,0.00080803,0.00219438,-0.00009940,-0.00133198,
 0.33632329,0.00126675,-0.00661417,-0.00358383,-0.00006076,-0.00057863,
 0.00001299,-0.00177151,-0.00611566,0.00349028,-0.03161831,0.00291815,-
 0.01186892,0.00889331,-0.05992255,0.00291459,0.03310905,0.00073789,0.0
 1237556,0.00240325,-0.00004625,0.00032431,-0.00037679,0.00003214,0.000
 08495,0.00001233,0.00028468,-0.00000075,0.00000812,0.00014922,-0.00000
 627,0.00036702,0.00000024,-0.00007160,-0.00229610,0.00012349,-0.000295
 02,0.00083151,0.00097293,-0.00086287,0.00098756,0.00141802,0.00000332,
 -0.00034880,-0.00017351,-0.00002776,-0.00967084,0.06426674,0.00045803,
 -0.00230958,-0.00067036,-0.00025560,0.00001404,0.00003751,0.00065563,0
 .00234681,-0.00075283,0.01456096,-0.00065012,0.00439402,-0.08499518,0.
 00300824,-0.08948880,0.01411611,-0.00040140,0.00422248,0.00059654,-0.0
 0013835,0.00049819,0.00042263,-0.00010143,0.00046636,-0.00003820,-0.00
 000075,-0.00002622,-0.00000992,-0.00000093,-0.00003625,0.00042408,0.00
 007571,0.00046612,0.00063847,0.00009802,0.00050077,-0.00066297,-0.0005
 6984,0.00013791,-0.00003452,-0.00093553,0.00071131,-0.03688987,0.00131
 880,-0.01131914,0.09157137,-0.00328346,0.09004256,-0.01645735,-0.03139
 168,0.01625717,-0.00733064,0.00296004,-0.00390839,-0.00012355,0.000720
 04,0.00010230,-0.00175584,0.00298916,0.00173371,0.01006581,0.01483708,
 -0.00796525,-0.12437587,-0.10599237,0.05052872,0.00116308,0.00068583,0
 .00077425,0.00182256,0.00007673,-0.00053971,-0.00134451,-0.00229609,0.
 00063846,0.00025394,0.00033034,0.00011629,0.00008387,-0.00009974,-0.00
 007348,0.00019300,-0.00014707,0.00001206,0.00067793,0.00107895,-0.0001
 5871,-0.00012472,-0.00018488,0.00002938,0.00051779,-0.00099565,-0.0003
 4378,0.00074560,-0.00082244,-0.00060686,0.13423319,0.00205705,0.003133
 81,-0.00127652,0.00054898,0.00099407,-0.00015290,0.00071907,0.00055296
 ,0.00012579,0.00528540,-0.00421880,-0.00402951,-0.01724716,-0.02434323
 ,0.01408053,-0.10607331,-0.23319789,0.08288141,-0.00071045,0.00069251,
 -0.00022499,-0.00043910,0.00011992,-0.00061309,0.00012220,0.00012351,0
 .00009802,0.00001573,-0.00003735,0.00005715,-0.00010443,-0.00000967,-0
 .00010564,-0.00014707,0.00004919,0.00003881,-0.00127854,-0.00192220,0.
 00060511,0.00016402,0.00034398,0.00011541,-0.00053303,0.00137209,-0.00
 070056,0.00054861,0.00101491,0.00060566,0.11515071,0.25249383,-0.00625
 397,-0.01013155,0.00429680,-0.00186295,0.00051021,-0.00033387,0.000116
 73,0.00014876,0.00000783,0.00153127,-0.00176622,-0.00069652,-0.0073836
 2,-0.01188726,0.00525001,0.05184283,0.08496870,-0.10214204,0.00079844,
 0.00015605,0.00002260,0.00073074,-0.00048449,0.00073519,-0.00031381,-0
 .00029502,0.00050077,-0.00028690,-0.00031255,0.00048872,0.00000173,0.0
 0001378,-0.00002779,0.00001205,0.00003881,-0.00003128,-0.00018617,-0.0
 0055764,0.00052401,-0.00011815,-0.00038930,0.00048620,-0.00075933,0.00
 052808,0.00078805,-0.00022470,0.00086983,0.00011744,-0.05632158,-0.091
 92162,0.10390645,-0.00273332,-0.00159263,-0.04000147,0.00207730,0.0006
 2812,-0.00084279,-0.00021937,-0.00002021,0.00005513,0.00008565,-0.0009
 2283,-0.00048951,0.00092905,0.00113651,0.01884513,-0.06132122,-0.00313
 184,-0.01875756,0.00184029,0.00031969,0.00076032,-0.00801115,-0.000080
 42,-0.00234569,0.00023895,0.00036701,0.00042409,-0.00030741,-0.0004807
 8,0.00087191,-0.00006898,0.00013209,0.00011534,0.00008387,-0.00010443,
 0.00000173,-0.00012051,-0.00013011,-0.00008622,0.00029352,0.00004664,-
 0.00037096,-0.00078018,0.00396977,0.00116409,0.00044658,-0.00091336,0.
 00004932,0.00175571,0.00192133,0.01867738,0.06581121,0.00057644,-0.000
 02378,0.00239176,-0.00004196,-0.00004947,-0.00089802,-0.00001162,-0.00
 023078,0.00005737,-0.00036727,0.00192199,-0.00105892,-0.00229540,-0.00
 138654,-0.03464609,-0.00306410,-0.06267179,-0.01295829,-0.00021381,0.0
 0011756,0.00043664,0.00073225,0.00102448,-0.00010562,0.00004231,0.0000
 0024,0.00007570,-0.00024018,0.00014292,-0.00003047,0.00013209,0.000042
 45,0.00017001,-0.00009974,-0.00000966,0.00001378,0.00022058,0.00034369
 ,0.00039896,-0.00011300,-0.00050780,0.00073241,0.00313638,-0.00590811,
 -0.00258873,-0.00034944,0.00153236,0.00092413,0.00310104,0.00283836,0.
 03051145,-0.00114456,0.06282386,-0.00028098,-0.00002289,-0.00997659,0.
 00064895,0.00018323,-0.00008480,-0.00008340,-0.00016259,0.00027632,-0.
 00013724,0.00078865,-0.00006475,-0.00059332,-0.00002354,-0.01227856,-0
 .01984118,-0.01468139,-0.32884653,-0.00048949,0.00066062,0.00071974,-0
 .00233644,0.00028386,0.00112049,-0.00009657,-0.00007161,0.00046610,-0.
 00037460,-0.00067790,0.00084584,0.00011534,0.00017000,0.00005423,-0.00
 007348,-0.00010564,-0.00002779,0.00001783,-0.00011520,0.00048228,-0.00
 042343,-0.00068263,0.00089578,0.00148223,-0.00245854,0.00082209,0.0008
 1058,-0.00007533,0.00069894,-0.00027457,0.00041695,-0.01389255,0.02192
 978,0.01657394,0.35878975\\-0.00003318,0.00007493,0.00014288,-0.000103
 98,-0.00000214,-0.00014113,-0.00004925,-0.00007959,0.00014676,0.000033
 00,-0.00007515,-0.00014248,0.00010414,0.00000143,0.00013907,0.00004910
 ,0.00008022,-0.00014544,-0.00000188,0.00000144,-0.00006244,-0.00000413
 ,0.00001376,0.00007352,-0.00000194,-0.00000221,0.00006385,-0.00001695,
 -0.00000236,-0.00007557,-0.00000633,-0.00001008,0.00007669,-0.00000641
 ,-0.00000283,-0.00006316,0.00000258,-0.00000068,0.00006231,0.00000384,
 -0.00001380,-0.00007308,0.00001679,0.00000227,0.00007509,0.00000152,0.
 00000223,-0.00006341,0.00000699,0.00000209,0.00006321,0.00000610,0.000
 01048,-0.00007669\\\@


 ABALONE: AN EXPRESSION OF DISBELIEF.
 Job cpu time:       0 days  0 hours  0 minutes 27.9 seconds.
 File lengths (MBytes):  RWF=    132 Int=      0 D2E=      0 Chk=      3 Scr=      2
 Normal termination of Gaussian 09 at Sat Apr 16 12:25:05 2022.
