 Entering Gaussian System, Link 0=g09
 Input=/scratch/mverot/anthracene-1-8-opt-zindo/anthracene-1-8-opt-zindo.com
 Output=/scratch/mverot/anthracene-1-8-opt-zindo/anthracene-1-8-opt-zindo.log
 Initial command:
 /opt/g09/l1.exe "/scratch/mverot/anthracene-1-8-opt-zindo/Gau-2824168.inp" -scrdir="/scratch/mverot/anthracene-1-8-opt-zindo/"
 Entering Link 1 = /opt/g09/l1.exe PID=   2824170.
  
 Copyright (c) 1988,1990,1992,1993,1995,1998,2003,2009,2013,
            Gaussian, Inc.  All Rights Reserved.
  
 This is part of the Gaussian(R) 09 program.  It is based on
 the Gaussian(R) 03 system (copyright 2003, Gaussian, Inc.),
 the Gaussian(R) 98 system (copyright 1998, Gaussian, Inc.),
 the Gaussian(R) 94 system (copyright 1995, Gaussian, Inc.),
 the Gaussian 92(TM) system (copyright 1992, Gaussian, Inc.),
 the Gaussian 90(TM) system (copyright 1990, Gaussian, Inc.),
 the Gaussian 88(TM) system (copyright 1988, Gaussian, Inc.),
 the Gaussian 86(TM) system (copyright 1986, Carnegie Mellon
 University), and the Gaussian 82(TM) system (copyright 1983,
 Carnegie Mellon University). Gaussian is a federally registered
 trademark of Gaussian, Inc.
  
 This software contains proprietary and confidential information,
 including trade secrets, belonging to Gaussian, Inc.
  
 This software is provided under written license and may be
 used, copied, transmitted, or stored only in accord with that
 written license.
  
 The following legend is applicable only to US Government
 contracts under FAR:
  
                    RESTRICTED RIGHTS LEGEND
  
 Use, reproduction and disclosure by the US Government is
 subject to restrictions as set forth in subparagraphs (a)
 and (c) of the Commercial Computer Software - Restricted
 Rights clause in FAR 52.227-19.
  
 Gaussian, Inc.
 340 Quinnipiac St., Bldg. 40, Wallingford CT 06492
  
  
 ---------------------------------------------------------------
 Warning -- This program may not be used in any manner that
 competes with the business of Gaussian, Inc. or will provide
 assistance to any competitor of Gaussian, Inc.  The licensee
 of this program is prohibited from giving any competitor of
 Gaussian, Inc. access to this program.  By using this program,
 the user acknowledges that Gaussian, Inc. is engaged in the
 business of creating and licensing software in the field of
 computational chemistry and represents and warrants to the
 licensee that it is not a competitor of Gaussian, Inc. and that
 it will not use this program in any manner prohibited above.
 ---------------------------------------------------------------
  

 Cite this work as:
 Gaussian 09, Revision D.01,
 M. J. Frisch, G. W. Trucks, H. B. Schlegel, G. E. Scuseria, 
 M. A. Robb, J. R. Cheeseman, G. Scalmani, V. Barone, B. Mennucci, 
 G. A. Petersson, H. Nakatsuji, M. Caricato, X. Li, H. P. Hratchian, 
 A. F. Izmaylov, J. Bloino, G. Zheng, J. L. Sonnenberg, M. Hada, 
 M. Ehara, K. Toyota, R. Fukuda, J. Hasegawa, M. Ishida, T. Nakajima, 
 Y. Honda, O. Kitao, H. Nakai, T. Vreven, J. A. Montgomery, Jr., 
 J. E. Peralta, F. Ogliaro, M. Bearpark, J. J. Heyd, E. Brothers, 
 K. N. Kudin, V. N. Staroverov, T. Keith, R. Kobayashi, J. Normand, 
 K. Raghavachari, A. Rendell, J. C. Burant, S. S. Iyengar, J. Tomasi, 
 M. Cossi, N. Rega, J. M. Millam, M. Klene, J. E. Knox, J. B. Cross, 
 V. Bakken, C. Adamo, J. Jaramillo, R. Gomperts, R. E. Stratmann, 
 O. Yazyev, A. J. Austin, R. Cammi, C. Pomelli, J. W. Ochterski, 
 R. L. Martin, K. Morokuma, V. G. Zakrzewski, G. A. Voth, 
 P. Salvador, J. J. Dannenberg, S. Dapprich, A. D. Daniels, 
 O. Farkas, J. B. Foresman, J. V. Ortiz, J. Cioslowski, 
 and D. J. Fox, Gaussian, Inc., Wallingford CT, 2013.
 
 ******************************************
 Gaussian 09:  AM64L-G09RevD.01 24-Apr-2013
                12-Apr-2022 
 ******************************************
 %chk=anthracene-1-8-opt-zindo
 ------------------------------------
 #n ZINDO(NSTATE=10) pop=full gfinput
 ------------------------------------
 1/38=1/1;
 2/12=2,17=6,18=5,40=1/2;
 3/5=2,16=1,24=10,25=1,41=400000/1,2,8,3;
 4/5=3,35=1/1;
 5/5=2,35=1,38=5/2;
 8/6=1,108=10/1;
 9/41=10,42=1,49=10/14;
 6/7=3/1;
 99/5=1,9=1/99;
 ----------
 UV-spectra
 ----------
 Symbolic Z-matrix:
 Charge =  0 Multiplicity = 1
 C                    -0.00564   1.46927   0.00102 
 C                     1.26284   0.72582   0.00052 
 C                    -1.27346   0.72472   0.00047 
 O                    -0.00624   2.71981   0.00056 
 C                    -0.00439  -1.45124   0.00035 
 C                    -1.27083  -0.68827   0.00017 
 O                    -0.00386  -2.69122  -0.00047 
 C                     1.2614   -0.68718   0.00022 
 C                     2.51024   1.38304   0.00035 
 C                    -2.46129  -1.40832  -0.00031 
 C                     2.45246  -1.40624  -0.00021 
 C                    -2.52138   1.38091   0.00026 
 C                     3.7207    0.64253  -0.00008 
 C                     3.68376  -0.73684  -0.00036 
 C                    -3.73124   0.63941  -0.00023 
 C                    -3.69315  -0.73994  -0.0005 
 H                     2.41999  -2.50861  -0.00044 
 H                     4.67187   1.19634  -0.0002 
 H                     4.61974  -1.31712  -0.0007 
 H                    -4.62864  -1.32099  -0.00088 
 H                    -4.68286   1.19244  -0.00038 
 O                     2.71208   2.73204   0.00058 
 H                     1.87049   3.21564   0.00088 
 H                    -2.42791  -2.51066  -0.00053 
 O                    -2.72424   2.72975   0.00048 
 H                    -1.88298   3.21392   0.00081 
 
                          Input orientation:                          
 ---------------------------------------------------------------------
 Center     Atomic      Atomic             Coordinates (Angstroms)
 Number     Number       Type             X           Y           Z
 ---------------------------------------------------------------------
      1          6           0       -0.005642    1.469268    0.001021
      2          6           0        1.262843    0.725819    0.000522
      3          6           0       -1.273459    0.724719    0.000473
      4          8           0       -0.006238    2.719806    0.000562
      5          6           0       -0.004387   -1.451236    0.000350
      6          6           0       -1.270828   -0.688271    0.000171
      7          8           0       -0.003856   -2.691215   -0.000474
      8          6           0        1.261401   -0.687183    0.000218
      9          6           0        2.510243    1.383042    0.000352
     10          6           0       -2.461288   -1.408319   -0.000305
     11          6           0        2.452457   -1.406241   -0.000213
     12          6           0       -2.521381    1.380906    0.000255
     13          6           0        3.720703    0.642532   -0.000084
     14          6           0        3.683761   -0.736844   -0.000357
     15          6           0       -3.731236    0.639409   -0.000225
     16          6           0       -3.693149   -0.739939   -0.000496
     17          1           0        2.419992   -2.508613   -0.000439
     18          1           0        4.671870    1.196344   -0.000197
     19          1           0        4.619738   -1.317119   -0.000702
     20          1           0       -4.628645   -1.320990   -0.000876
     21          1           0       -4.682859    1.192438   -0.000375
     22          8           0        2.712077    2.732041    0.000584
     23          1           0        1.870494    3.215641    0.000879
     24          1           0       -2.427909   -2.510665   -0.000529
     25          8           0       -2.724239    2.729747    0.000477
     26          1           0       -1.882984    3.213921    0.000810
 ---------------------------------------------------------------------
                    Distance matrix (angstroms):
                    1          2          3          4          5
     1  C    0.000000
     2  C    1.470296   0.000000
     3  C    1.470277   2.536302   0.000000
     4  O    1.250538   2.363588   2.363519   0.000000
     5  C    2.920505   2.519016   2.518993   4.171043   0.000000
     6  C    2.501134   2.901575   1.412993   3.635131   1.478508
     7  O    4.160484   3.644263   3.644242   5.411022   1.239980
     8  C    2.501136   1.413003   2.901548   3.635173   1.478511
     9  C    2.517362   1.409946   3.840546   2.849494   3.788997
    10  C    3.782950   4.292284   2.441473   4.802988   2.457276
    11  C    3.782963   2.441488   4.292254   4.803067   2.457257
    12  C    2.517291   3.840507   1.409926   2.849316   3.788969
    13  C    3.816955   2.459271   4.994839   4.266751   4.273192
    14  C    4.298678   2.828468   5.168191   5.056137   3.756700
    15  C    3.816899   4.994827   2.459257   4.266576   4.273195
    16  C    4.298640   5.168201   2.828449   5.056002   3.756715
    17  H    4.659104   3.435193   4.908770   5.763937   2.644932
    18  H    4.685468   3.441346   5.964006   4.919922   5.373738
    19  H    5.399824   3.929675   6.236897   6.139741   4.626070
    20  H    5.399787   6.236911   3.929656   6.139599   4.626092
    21  H    4.685402   5.963984   3.441332   4.919719   5.373742
    22  O    2.996764   2.474915   4.462492   2.718342   4.987884
    23  H    2.563143   2.562899   4.011126   1.941127   5.029406
    24  H    4.659104   4.908817   3.435181   5.763881   2.644967
    25  O    2.996594   4.462348   2.474854   2.718019   4.987807
    26  H    2.562855   4.010845   2.562742   1.940702   5.029197
                    6          7          8          9         10
     6  C    0.000000
     7  O    2.370022   0.000000
     8  C    2.532229   2.370025   0.000000
     9  C    4.311245   4.787511   2.417734   0.000000
    10  C    1.391282   2.772147   3.791893   5.701563   0.000000
    11  C    3.791877   2.772117   1.391280   2.789881   4.913746
    12  C    2.417722   4.787495   4.311199   5.031625   2.789873
    13  C    5.165890   4.998621   2.795767   1.419003   6.513295
    14  C    4.954827   4.173498   2.422870   2.423027   6.181627
    15  C    2.795773   4.998642   5.165875   6.285623   2.409556
    16  C    2.422872   4.173531   4.954831   6.556609   1.401504
    17  H    4.115313   2.430716   2.158690   3.892702   5.003753
    18  H    6.234375   6.080751   3.896021   2.169675   7.593828
    19  H    5.924037   4.823459   3.416907   3.426491   7.081614
    20  H    3.416909   4.823504   5.924048   7.633840   2.169115
    21  H    3.896027   6.080776   6.234356   7.195627   3.420426
    22  O    5.249959   6.065311   3.714237   1.364015   6.626182
    23  H    5.010832   6.197107   3.950067   1.941056   6.336036
    24  H    2.158693   2.430769   4.115349   6.288585   1.102851
    25  O    3.714197   6.065255   5.249832   5.404944   4.146413
    26  H    3.949917   6.196916   5.010566   4.759471   4.658277
                   11         12         13         14         15
    11  C    0.000000
    12  C    5.701514   0.000000
    13  C    2.409548   6.285604   0.000000
    14  C    1.401500   6.556574   1.379870   0.000000
    15  C    6.513275   1.419002   7.451940   7.541635   0.000000
    16  C    6.181621   2.423020   7.541647   7.376911   1.379874
    17  H    1.102850   6.288524   3.409042   2.176300   6.909968
    18  H    3.420416   7.195619   1.100648   2.171077   8.421542
    19  H    2.169113   7.633802   2.156037   1.101259   8.577108
    20  H    7.081615   3.426486   8.577123   8.332906   2.156039
    21  H    7.593805   2.169679   8.421535   8.586179   1.100648
    22  O    4.146418   5.405058   2.320211   3.602407   6.774614
    23  H    4.658377   4.759708   3.169253   4.348572   6.165740
    24  H    5.003772   3.892694   6.909999   6.363879   3.409050
    25  O    6.626054   1.364010   6.774493   7.285583   2.320250
    26  H    6.335768   1.941004   6.165497   6.826214   3.169251
                   16         17         18         19         20
    16  C    0.000000
    17  H    6.363859   0.000000
    18  H    8.586195   4.335627   0.000000
    19  H    8.332900   2.501708   2.514004   0.000000
    20  H    1.101259   7.147988   9.635173   9.248384   0.000000
    21  H    2.171084   8.009262   9.354730   9.635154   2.514012
    22  O    7.285710   5.248788   2.489811   4.476033   8.385300
    23  H    6.826474   5.750569   3.453299   5.301345   7.925896
    24  H    2.176304   4.847902   8.009294   7.147999   2.501712
    25  O    3.602432   7.341903   7.553394   8.385173   4.476074
    26  H    4.348530   7.159819   6.858333   7.925637   5.301328
                   21         22         23         24         25
    21  H    0.000000
    22  O    7.553506   0.000000
    23  H    6.858556   0.970634   0.000000
    24  H    4.335639   7.342032   7.160088   0.000000
    25  O    2.489882   5.436317   4.620353   5.248784   0.000000
    26  H    3.453360   4.620259   3.753478   5.750464   0.970636
                   26
    26  H    0.000000
 Stoichiometry    C14H8O4
 Framework group  C1[X(C14H8O4)]
 Deg. of freedom    72
 Full point group                 C1      NOp   1
 Largest Abelian subgroup         C1      NOp   1
 Largest concise Abelian subgroup C1      NOp   1
                         Standard orientation:                         
 ---------------------------------------------------------------------
 Center     Atomic      Atomic             Coordinates (Angstroms)
 Number     Number       Type             X           Y           Z
 ---------------------------------------------------------------------
      1          6           0       -0.000022   -1.113059   -0.000661
      2          6           0        1.268146   -0.369070   -0.000282
      3          6           0       -1.268156   -0.369050   -0.000282
      4          8           0       -0.000084   -2.363597    0.000042
      5          6           0       -0.000011    1.807446   -0.000557
      6          6           0       -1.266127    1.043941   -0.000254
      7          8           0       -0.000008    3.047425    0.000026
      8          6           0        1.266102    1.043932   -0.000253
      9          6           0        2.515827   -1.025760    0.000039
     10          6           0       -2.456894    1.763482    0.000060
     11          6           0        2.456852    1.763498    0.000061
     12          6           0       -2.515798   -1.025769    0.000040
     13          6           0        3.725971   -0.284735    0.000354
     14          6           0        3.688441    1.094625    0.000359
     15          6           0       -3.725969   -0.284787    0.000354
     16          6           0       -3.688470    1.094577    0.000357
     17          1           0        2.423917    2.865856    0.000072
     18          1           0        4.677374   -0.838141    0.000593
     19          1           0        4.624171    1.675300    0.000608
     20          1           0       -4.624213    1.675229    0.000606
     21          1           0       -4.677356   -0.838222    0.000593
     22          8           0        2.718235   -2.374674    0.000073
     23          1           0        1.876859   -2.858632   -0.000144
     24          1           0       -2.423985    2.865842    0.000070
     25          8           0       -2.718081   -2.374697    0.000076
     26          1           0       -1.876620   -2.858512   -0.000146
 ---------------------------------------------------------------------
 Rotational constants (GHZ):      0.7515312      0.3672709      0.2467063
 Standard basis: VSTO-6G (5D, 7F)
 AO basis set in the form of general basis input (Overlap normalization):
      1 0
 S   6 1.00       0.000000000000
      0.7310560386D+02 -0.4151277819D-02
      0.1340682447D+02 -0.2067024148D-01
      0.3767606913D+01 -0.5150303337D-01
      0.5387761534D+00  0.3346271174D+00
      0.2445297546D+00  0.5621061301D+00
      0.1166148582D+00  0.1712994697D+00
 P   6 1.00       0.000000000000
      0.1549594249D+02  0.7924233646D-02
      0.4041026682D+01  0.5144104825D-01
      0.1445917850D+01  0.1898400060D+00
      0.6044212998D+00  0.4049863191D+00
      0.2763825918D+00  0.4012362861D+00
      0.1306639377D+00  0.1051855189D+00
 ****
      2 0
 S   6 1.00       0.000000000000
      0.7310560386D+02 -0.4151277819D-02
      0.1340682447D+02 -0.2067024148D-01
      0.3767606913D+01 -0.5150303337D-01
      0.5387761534D+00  0.3346271174D+00
      0.2445297546D+00  0.5621061301D+00
      0.1166148582D+00  0.1712994697D+00
 P   6 1.00       0.000000000000
      0.1549594249D+02  0.7924233646D-02
      0.4041026682D+01  0.5144104825D-01
      0.1445917850D+01  0.1898400060D+00
      0.6044212998D+00  0.4049863191D+00
      0.2763825918D+00  0.4012362861D+00
      0.1306639377D+00  0.1051855189D+00
 ****
      3 0
 S   6 1.00       0.000000000000
      0.7310560386D+02 -0.4151277819D-02
      0.1340682447D+02 -0.2067024148D-01
      0.3767606913D+01 -0.5150303337D-01
      0.5387761534D+00  0.3346271174D+00
      0.2445297546D+00  0.5621061301D+00
      0.1166148582D+00  0.1712994697D+00
 P   6 1.00       0.000000000000
      0.1549594249D+02  0.7924233646D-02
      0.4041026682D+01  0.5144104825D-01
      0.1445917850D+01  0.1898400060D+00
      0.6044212998D+00  0.4049863191D+00
      0.2763825918D+00  0.4012362861D+00
      0.1306639377D+00  0.1051855189D+00
 ****
      4 0
 S   6 1.00       0.000000000000
      0.1432869836D+03 -0.4151277819D-02
      0.2627737596D+02 -0.2067024148D-01
      0.7384509550D+01 -0.5150303337D-01
      0.1056001261D+01  0.3346271174D+00
      0.4792783190D+00  0.5621061301D+00
      0.2285651220D+00  0.1712994697D+00
 P   6 1.00       0.000000000000
      0.3037204728D+02  0.7924233646D-02
      0.7920412296D+01  0.5144104825D-01
      0.2833998986D+01  0.1898400060D+00
      0.1184665748D+01  0.4049863191D+00
      0.5417098800D+00  0.4012362861D+00
      0.2561013179D+00  0.1051855189D+00
 ****
      5 0
 S   6 1.00       0.000000000000
      0.7310560386D+02 -0.4151277819D-02
      0.1340682447D+02 -0.2067024148D-01
      0.3767606913D+01 -0.5150303337D-01
      0.5387761534D+00  0.3346271174D+00
      0.2445297546D+00  0.5621061301D+00
      0.1166148582D+00  0.1712994697D+00
 P   6 1.00       0.000000000000
      0.1549594249D+02  0.7924233646D-02
      0.4041026682D+01  0.5144104825D-01
      0.1445917850D+01  0.1898400060D+00
      0.6044212998D+00  0.4049863191D+00
      0.2763825918D+00  0.4012362861D+00
      0.1306639377D+00  0.1051855189D+00
 ****
      6 0
 S   6 1.00       0.000000000000
      0.7310560386D+02 -0.4151277819D-02
      0.1340682447D+02 -0.2067024148D-01
      0.3767606913D+01 -0.5150303337D-01
      0.5387761534D+00  0.3346271174D+00
      0.2445297546D+00  0.5621061301D+00
      0.1166148582D+00  0.1712994697D+00
 P   6 1.00       0.000000000000
      0.1549594249D+02  0.7924233646D-02
      0.4041026682D+01  0.5144104825D-01
      0.1445917850D+01  0.1898400060D+00
      0.6044212998D+00  0.4049863191D+00
      0.2763825918D+00  0.4012362861D+00
      0.1306639377D+00  0.1051855189D+00
 ****
      7 0
 S   6 1.00       0.000000000000
      0.1432869836D+03 -0.4151277819D-02
      0.2627737596D+02 -0.2067024148D-01
      0.7384509550D+01 -0.5150303337D-01
      0.1056001261D+01  0.3346271174D+00
      0.4792783190D+00  0.5621061301D+00
      0.2285651220D+00  0.1712994697D+00
 P   6 1.00       0.000000000000
      0.3037204728D+02  0.7924233646D-02
      0.7920412296D+01  0.5144104825D-01
      0.2833998986D+01  0.1898400060D+00
      0.1184665748D+01  0.4049863191D+00
      0.5417098800D+00  0.4012362861D+00
      0.2561013179D+00  0.1051855189D+00
 ****
      8 0
 S   6 1.00       0.000000000000
      0.7310560386D+02 -0.4151277819D-02
      0.1340682447D+02 -0.2067024148D-01
      0.3767606913D+01 -0.5150303337D-01
      0.5387761534D+00  0.3346271174D+00
      0.2445297546D+00  0.5621061301D+00
      0.1166148582D+00  0.1712994697D+00
 P   6 1.00       0.000000000000
      0.1549594249D+02  0.7924233646D-02
      0.4041026682D+01  0.5144104825D-01
      0.1445917850D+01  0.1898400060D+00
      0.6044212998D+00  0.4049863191D+00
      0.2763825918D+00  0.4012362861D+00
      0.1306639377D+00  0.1051855189D+00
 ****
      9 0
 S   6 1.00       0.000000000000
      0.7310560386D+02 -0.4151277819D-02
      0.1340682447D+02 -0.2067024148D-01
      0.3767606913D+01 -0.5150303337D-01
      0.5387761534D+00  0.3346271174D+00
      0.2445297546D+00  0.5621061301D+00
      0.1166148582D+00  0.1712994697D+00
 P   6 1.00       0.000000000000
      0.1549594249D+02  0.7924233646D-02
      0.4041026682D+01  0.5144104825D-01
      0.1445917850D+01  0.1898400060D+00
      0.6044212998D+00  0.4049863191D+00
      0.2763825918D+00  0.4012362861D+00
      0.1306639377D+00  0.1051855189D+00
 ****
     10 0
 S   6 1.00       0.000000000000
      0.7310560386D+02 -0.4151277819D-02
      0.1340682447D+02 -0.2067024148D-01
      0.3767606913D+01 -0.5150303337D-01
      0.5387761534D+00  0.3346271174D+00
      0.2445297546D+00  0.5621061301D+00
      0.1166148582D+00  0.1712994697D+00
 P   6 1.00       0.000000000000
      0.1549594249D+02  0.7924233646D-02
      0.4041026682D+01  0.5144104825D-01
      0.1445917850D+01  0.1898400060D+00
      0.6044212998D+00  0.4049863191D+00
      0.2763825918D+00  0.4012362861D+00
      0.1306639377D+00  0.1051855189D+00
 ****
     11 0
 S   6 1.00       0.000000000000
      0.7310560386D+02 -0.4151277819D-02
      0.1340682447D+02 -0.2067024148D-01
      0.3767606913D+01 -0.5150303337D-01
      0.5387761534D+00  0.3346271174D+00
      0.2445297546D+00  0.5621061301D+00
      0.1166148582D+00  0.1712994697D+00
 P   6 1.00       0.000000000000
      0.1549594249D+02  0.7924233646D-02
      0.4041026682D+01  0.5144104825D-01
      0.1445917850D+01  0.1898400060D+00
      0.6044212998D+00  0.4049863191D+00
      0.2763825918D+00  0.4012362861D+00
      0.1306639377D+00  0.1051855189D+00
 ****
     12 0
 S   6 1.00       0.000000000000
      0.7310560386D+02 -0.4151277819D-02
      0.1340682447D+02 -0.2067024148D-01
      0.3767606913D+01 -0.5150303337D-01
      0.5387761534D+00  0.3346271174D+00
      0.2445297546D+00  0.5621061301D+00
      0.1166148582D+00  0.1712994697D+00
 P   6 1.00       0.000000000000
      0.1549594249D+02  0.7924233646D-02
      0.4041026682D+01  0.5144104825D-01
      0.1445917850D+01  0.1898400060D+00
      0.6044212998D+00  0.4049863191D+00
      0.2763825918D+00  0.4012362861D+00
      0.1306639377D+00  0.1051855189D+00
 ****
     13 0
 S   6 1.00       0.000000000000
      0.7310560386D+02 -0.4151277819D-02
      0.1340682447D+02 -0.2067024148D-01
      0.3767606913D+01 -0.5150303337D-01
      0.5387761534D+00  0.3346271174D+00
      0.2445297546D+00  0.5621061301D+00
      0.1166148582D+00  0.1712994697D+00
 P   6 1.00       0.000000000000
      0.1549594249D+02  0.7924233646D-02
      0.4041026682D+01  0.5144104825D-01
      0.1445917850D+01  0.1898400060D+00
      0.6044212998D+00  0.4049863191D+00
      0.2763825918D+00  0.4012362861D+00
      0.1306639377D+00  0.1051855189D+00
 ****
     14 0
 S   6 1.00       0.000000000000
      0.7310560386D+02 -0.4151277819D-02
      0.1340682447D+02 -0.2067024148D-01
      0.3767606913D+01 -0.5150303337D-01
      0.5387761534D+00  0.3346271174D+00
      0.2445297546D+00  0.5621061301D+00
      0.1166148582D+00  0.1712994697D+00
 P   6 1.00       0.000000000000
      0.1549594249D+02  0.7924233646D-02
      0.4041026682D+01  0.5144104825D-01
      0.1445917850D+01  0.1898400060D+00
      0.6044212998D+00  0.4049863191D+00
      0.2763825918D+00  0.4012362861D+00
      0.1306639377D+00  0.1051855189D+00
 ****
     15 0
 S   6 1.00       0.000000000000
      0.7310560386D+02 -0.4151277819D-02
      0.1340682447D+02 -0.2067024148D-01
      0.3767606913D+01 -0.5150303337D-01
      0.5387761534D+00  0.3346271174D+00
      0.2445297546D+00  0.5621061301D+00
      0.1166148582D+00  0.1712994697D+00
 P   6 1.00       0.000000000000
      0.1549594249D+02  0.7924233646D-02
      0.4041026682D+01  0.5144104825D-01
      0.1445917850D+01  0.1898400060D+00
      0.6044212998D+00  0.4049863191D+00
      0.2763825918D+00  0.4012362861D+00
      0.1306639377D+00  0.1051855189D+00
 ****
     16 0
 S   6 1.00       0.000000000000
      0.7310560386D+02 -0.4151277819D-02
      0.1340682447D+02 -0.2067024148D-01
      0.3767606913D+01 -0.5150303337D-01
      0.5387761534D+00  0.3346271174D+00
      0.2445297546D+00  0.5621061301D+00
      0.1166148582D+00  0.1712994697D+00
 P   6 1.00       0.000000000000
      0.1549594249D+02  0.7924233646D-02
      0.4041026682D+01  0.5144104825D-01
      0.1445917850D+01  0.1898400060D+00
      0.6044212998D+00  0.4049863191D+00
      0.2763825918D+00  0.4012362861D+00
      0.1306639377D+00  0.1051855189D+00
 ****
     17 0
 S   6 1.00       0.000000000000
      0.3326836535D+02  0.9163596281D-02
      0.6099718369D+01  0.4936149294D-01
      0.1706481387D+01  0.1685383049D+00
      0.5862224134D+00  0.3705627997D+00
      0.2276473177D+00  0.4164915298D+00
      0.9375773694D-01  0.1303340841D+00
 ****
     18 0
 S   6 1.00       0.000000000000
      0.3326836535D+02  0.9163596281D-02
      0.6099718369D+01  0.4936149294D-01
      0.1706481387D+01  0.1685383049D+00
      0.5862224134D+00  0.3705627997D+00
      0.2276473177D+00  0.4164915298D+00
      0.9375773694D-01  0.1303340841D+00
 ****
     19 0
 S   6 1.00       0.000000000000
      0.3326836535D+02  0.9163596281D-02
      0.6099718369D+01  0.4936149294D-01
      0.1706481387D+01  0.1685383049D+00
      0.5862224134D+00  0.3705627997D+00
      0.2276473177D+00  0.4164915298D+00
      0.9375773694D-01  0.1303340841D+00
 ****
     20 0
 S   6 1.00       0.000000000000
      0.3326836535D+02  0.9163596281D-02
      0.6099718369D+01  0.4936149294D-01
      0.1706481387D+01  0.1685383049D+00
      0.5862224134D+00  0.3705627997D+00
      0.2276473177D+00  0.4164915298D+00
      0.9375773694D-01  0.1303340841D+00
 ****
     21 0
 S   6 1.00       0.000000000000
      0.3326836535D+02  0.9163596281D-02
      0.6099718369D+01  0.4936149294D-01
      0.1706481387D+01  0.1685383049D+00
      0.5862224134D+00  0.3705627997D+00
      0.2276473177D+00  0.4164915298D+00
      0.9375773694D-01  0.1303340841D+00
 ****
     22 0
 S   6 1.00       0.000000000000
      0.1432869836D+03 -0.4151277819D-02
      0.2627737596D+02 -0.2067024148D-01
      0.7384509550D+01 -0.5150303337D-01
      0.1056001261D+01  0.3346271174D+00
      0.4792783190D+00  0.5621061301D+00
      0.2285651220D+00  0.1712994697D+00
 P   6 1.00       0.000000000000
      0.3037204728D+02  0.7924233646D-02
      0.7920412296D+01  0.5144104825D-01
      0.2833998986D+01  0.1898400060D+00
      0.1184665748D+01  0.4049863191D+00
      0.5417098800D+00  0.4012362861D+00
      0.2561013179D+00  0.1051855189D+00
 ****
     23 0
 S   6 1.00       0.000000000000
      0.3326836535D+02  0.9163596281D-02
      0.6099718369D+01  0.4936149294D-01
      0.1706481387D+01  0.1685383049D+00
      0.5862224134D+00  0.3705627997D+00
      0.2276473177D+00  0.4164915298D+00
      0.9375773694D-01  0.1303340841D+00
 ****
     24 0
 S   6 1.00       0.000000000000
      0.3326836535D+02  0.9163596281D-02
      0.6099718369D+01  0.4936149294D-01
      0.1706481387D+01  0.1685383049D+00
      0.5862224134D+00  0.3705627997D+00
      0.2276473177D+00  0.4164915298D+00
      0.9375773694D-01  0.1303340841D+00
 ****
     25 0
 S   6 1.00       0.000000000000
      0.1432869836D+03 -0.4151277819D-02
      0.2627737596D+02 -0.2067024148D-01
      0.7384509550D+01 -0.5150303337D-01
      0.1056001261D+01  0.3346271174D+00
      0.4792783190D+00  0.5621061301D+00
      0.2285651220D+00  0.1712994697D+00
 P   6 1.00       0.000000000000
      0.3037204728D+02  0.7924233646D-02
      0.7920412296D+01  0.5144104825D-01
      0.2833998986D+01  0.1898400060D+00
      0.1184665748D+01  0.4049863191D+00
      0.5417098800D+00  0.4012362861D+00
      0.2561013179D+00  0.1051855189D+00
 ****
     26 0
 S   6 1.00       0.000000000000
      0.3326836535D+02  0.9163596281D-02
      0.6099718369D+01  0.4936149294D-01
      0.1706481387D+01  0.1685383049D+00
      0.5862224134D+00  0.3705627997D+00
      0.2276473177D+00  0.4164915298D+00
      0.9375773694D-01  0.1303340841D+00
 ****

 There are    80 symmetry adapted cartesian basis functions of A   symmetry.
 There are    80 symmetry adapted basis functions of A   symmetry.
    80 basis functions,   480 primitive gaussians,    80 cartesian basis functions
    44 alpha electrons       44 beta electrons
       nuclear repulsion energy       613.2809497874 Hartrees.
 Integral buffers will be    131072 words long.
 Regular integral format.
 Two-electron integral symmetry is turned off.
 Do NDO integrals.
 One-electron integrals computed using PRISM.
 Generate ZINDO/S integrals.
 NDO Nuclear repulsion=   473.729506889612 Hartrees.
 NBasis=    80 RedAO= F EigKep=  0.00D+00  NBF=    80
 NBsUse=    80 1.00D-04 EigRej=  0.00D+00 NBFU=    80
 DipDrv:  will hold  3 matrices at once.
 Simple Huckel Guess.
 Overlap will be assumed to be unity.
 Requested convergence on RMS density matrix=1.00D-08 within 128 cycles.
 Requested convergence on MAX density matrix=1.00D-06.
 Requested convergence on             energy=1.00D-06.
 No special actions if energy rises.
 SCF Done:  E(RZINDO/S) =  -132.255702725     A.U. after   14 cycles
            NFock= 14  Conv=0.68D-08     -V/T= 0.8842
 Range of M.O.s used for correlation:     1    80
 NBasis=    80 NAE=    44 NBE=    44 NFC=     0 NFV=     0
 NROrb=     80 NOA=    44 NOB=    44 NVA=    36 NVB=    36
 Orbital symmetries:
       Occupied  (A) (A) (A) (A) (A) (A) (A) (A) (A) (A) (A) (A)
                 (A) (A) (A) (A) (A) (A) (A) (A) (A) (A) (A) (A)
                 (A) (A) (A) (A) (A) (A) (A) (A) (A) (A) (A) (A)
                 (A) (A) (A) (A) (A) (A) (A) (A)
       Virtual   (A) (A) (A) (A) (A) (A) (A) (A) (A) (A) (A) (A)
                 (A) (A) (A) (A) (A) (A) (A) (A) (A) (A) (A) (A)
                 (A) (A) (A) (A) (A) (A) (A) (A) (A) (A) (A) (A)
    40 initial guesses have been made.
 Convergence on wavefunction:    0.001000000000000
 Iteration     1 Dimension    40 NMult     0 NNew     40
 CISAX will form    40 AO SS matrices at one time.
 New state      1 was old state      5
 New state      2 was old state      6
 New state      3 was old state      1
 New state      4 was old state      2
 New state      5 was old state      3
 New state      6 was old state      4
 New state      7 was old state      9
 New state      8 was old state     11
 New state      9 was old state      7
 New state     10 was old state      8
 Iteration     2 Dimension    80 NMult    40 NNew     40
 New state      1 was old state      2
 New state      2 was old state      1
 New state      7 was old state      9
 New state      8 was old state      7
 New state      9 was old state      8
 Iteration     3 Dimension    90 NMult    80 NNew     10
 Iteration     4 Dimension   100 NMult    90 NNew     10
 Iteration     5 Dimension   110 NMult   100 NNew     10
 Iteration     6 Dimension   112 NMult   110 NNew      2
 ***********************************************************************
 Excited states from <AA,BB:AA,BB> singles matrix:
 ***********************************************************************
 
 Ground to excited state transition densities written to RWF  633
 Ground to excited state transition electric dipole moments (Au):
       state          X           Y           Z        Dip. S.      Osc.
         1        -0.0010      0.0000     -0.0000      0.0000      0.0000
         2        -0.0007      0.0000     -0.0000      0.0000      0.0000
         3         2.2301      0.0000      0.0000      4.9735      0.4246
         4        -0.0006      0.2295     -0.0001      0.0527      0.0048
         5         0.2673      0.0002     -0.0000      0.0715      0.0068
         6        -0.0000     -1.0252      0.0001      1.0511      0.1145
         7        -0.3027      0.0002      0.0000      0.0916      0.0109
         8         0.0001      0.0206      0.0000      0.0004      0.0001
         9         1.8293     -0.0001      0.0000      3.3463      0.4098
        10        -0.0000     -2.4818     -0.0001      6.1594      0.7772
 Ground to excited state transition velocity dipole moments (Au):
       state          X           Y           Z        Dip. S.      Osc.
         1         0.0000     -0.0000      0.0000      0.0000      0.0000
         2         0.0000     -0.0000      0.0000      0.0000      0.0000
         3        -0.1486      0.0000     -0.0000      0.0221      0.1150
         4         0.0001     -0.0146      0.0000      0.0002      0.0010
         5        -0.0166     -0.0000      0.0000      0.0003      0.0013
         6         0.0000      0.0343      0.0000      0.0012      0.0048
         7         0.0288     -0.0000      0.0000      0.0008      0.0031
         8        -0.0000     -0.0023      0.0000      0.0000      0.0000
         9        -0.2042      0.0000     -0.0000      0.0417      0.1513
        10         0.0000      0.1809      0.0000      0.0327      0.1153
 Ground to excited state transition magnetic dipole moments (Au):
       state          X           Y           Z
         1         0.0000      0.8632     -0.0002
         2         0.0000      0.3249      0.0000
         3        -0.0000      0.0007      0.1555
         4         0.0001      0.0000     -0.0000
         5         0.0000      0.0001      1.3922
         6         0.0002     -0.0000      0.0001
         7        -0.0000      0.0000     -1.2737
         8         0.0000     -0.0000     -0.0001
         9         0.0000      0.0003     -0.2249
        10         0.0001      0.0000      0.0000
 Ground to excited state transition velocity quadrupole moments (Au):
       state          XX          YY          ZZ          XY          XZ          YZ
         1        -0.0000     -0.0000      0.0000     -0.0003     -0.0083     -0.0000
         2        -0.0000      0.0000     -0.0000      0.0002     -0.0018     -0.0000
         3         0.0002     -0.0001      0.0000     -0.0331     -0.0004     -0.0000
         4         0.4942     -0.0252      0.0145     -0.0000      0.0000      0.0000
         5        -0.0000     -0.0000      0.0000      0.1133     -0.0001      0.0000
         6        -0.1830      0.1786     -0.0105     -0.0001      0.0000      0.0000
         7        -0.0000     -0.0000     -0.0000     -0.7948     -0.0000     -0.0000
         8         0.5423     -0.1318      0.0254     -0.0002      0.0000      0.0001
         9        -0.0003      0.0002     -0.0000     -0.3936     -0.0003      0.0000
        10         0.4080     -0.0048      0.0218      0.0000      0.0000     -0.0000
 <0|del|b> * <b|rxdel|0> + <0|del|b> * <b|delr+rdel|0>
 Rotatory Strengths (R) in cgs (10**-40 erg-esu-cm/Gauss)
       state          XX          YY          ZZ    R(velocity)    E-M Angle
         1        -0.0010      0.0000     -0.0009     -0.0006       90.00
         2        -0.0005     -0.0000     -0.0005     -0.0003       90.00
         3         0.0000      0.0001      0.0001      0.0001       90.00
         4        -0.0000      0.0000      0.0000      0.0000       90.00
         5         0.0003      0.0003      0.0000      0.0002       90.00
         6        -0.0001      0.0000     -0.0000     -0.0000       90.00
         7        -0.0002     -0.0001     -0.0000     -0.0001       90.00
         8        -0.0000     -0.0000      0.0000     -0.0000       90.00
         9         0.0002     -0.0006     -0.0005     -0.0003       90.00
        10         0.0003      0.0000      0.0004      0.0002       90.00
 1/2[<0|r|b>*<b|rxdel|0> + (<0|rxdel|b>*<b|r|0>)*]
 Rotatory Strengths (R) in cgs (10**-40 erg-esu-cm/Gauss)
       state          XX          YY          ZZ     R(length)
         1         0.0000     -0.0011     -0.0000     -0.0004
         2         0.0000     -0.0007      0.0000     -0.0002
         3         0.0004     -0.0000     -0.0000      0.0001
         4         0.0000     -0.0000     -0.0000      0.0000
         5        -0.0000     -0.0000      0.0003      0.0001
         6         0.0000     -0.0006     -0.0000     -0.0002
         7        -0.0001     -0.0000      0.0007      0.0002
         8        -0.0000      0.0000      0.0000      0.0000
         9        -0.0017      0.0000      0.0001     -0.0005
        10         0.0000      0.0019      0.0000      0.0006
  1/2[<0|del|b>*<b|r|0> + (<0|r|b>*<b|del|0>)*] (Au)
       state          X           Y           Z        Dip. S.   Osc.(frdel)
         1        -0.0000     -0.0000     -0.0000      0.0000      0.0000
         2        -0.0000     -0.0000     -0.0000      0.0000      0.0000
         3        -0.3314      0.0000     -0.0000      0.3314      0.2209
         4        -0.0000     -0.0034     -0.0000      0.0034      0.0022
         5        -0.0044     -0.0000     -0.0000      0.0044      0.0030
         6        -0.0000     -0.0352      0.0000      0.0352      0.0235
         7        -0.0087     -0.0000      0.0000      0.0087      0.0058
         8        -0.0000     -0.0000      0.0000      0.0000      0.0000
         9        -0.3735     -0.0000     -0.0000      0.3735      0.2490
        10        -0.0000     -0.4490     -0.0000      0.4490      0.2994

 Excitation energies and oscillator strengths:
 
 Excited State   1:      Singlet-A      2.6168 eV  473.81 nm  f=0.0000  <S**2>=0.000
      39 -> 45        -0.39607
      39 -> 46        -0.30442
      39 -> 49         0.14540
      39 -> 50         0.19540
      40 -> 45         0.40397
      40 -> 50        -0.10620
 This state for optimization and/or second-order correction.
 Total Energy, E(CIS) =  -132.159538332    
 Copying the excited state density for this state as the 1-particle RhoCI density.
 
 Excited State   2:      Singlet-A      2.6822 eV  462.25 nm  f=0.0000  <S**2>=0.000
      39 -> 45         0.39695
      39 -> 50        -0.10302
      40 -> 45         0.41334
      40 -> 46        -0.29475
      40 -> 49         0.23265
 
 Excited State   3:      Singlet-A      3.4846 eV  355.80 nm  f=0.4246  <S**2>=0.000
      42 -> 45        -0.11419
      42 -> 46        -0.10613
      43 -> 47        -0.16257
      44 -> 45         0.65448
 
 Excited State   4:      Singlet-A      3.7070 eV  334.46 nm  f=0.0048  <S**2>=0.000
      42 -> 48        -0.14215
      43 -> 45         0.64701
      44 -> 47        -0.18310
 
 Excited State   5:      Singlet-A      3.8829 eV  319.31 nm  f=0.0068  <S**2>=0.000
      41 -> 47         0.10638
      42 -> 45         0.65174
      44 -> 45         0.10849
      44 -> 46         0.16074
 
 Excited State   6:      Singlet-A      4.4464 eV  278.84 nm  f=0.1145  <S**2>=0.000
      41 -> 45         0.52863
      42 -> 47         0.11118
      43 -> 46        -0.34784
      44 -> 48        -0.24434
 
 Excited State   7:      Singlet-A      4.8717 eV  254.50 nm  f=0.0109  <S**2>=0.000
      42 -> 45        -0.19228
      42 -> 46        -0.12802
      43 -> 48         0.26994
      44 -> 46         0.57877
 
 Excited State   8:      Singlet-A      4.9531 eV  250.32 nm  f=0.0001  <S**2>=0.000
      41 -> 46        -0.33271
      42 -> 48         0.27464
      43 -> 45         0.23666
      43 -> 49         0.12543
      43 -> 50        -0.19018
      44 -> 47         0.43956
 
 Excited State   9:      Singlet-A      4.9980 eV  248.07 nm  f=0.4098  <S**2>=0.000
      41 -> 48        -0.22916
      42 -> 46         0.44722
      43 -> 47         0.33209
      43 -> 48         0.11338
      44 -> 45         0.20651
      44 -> 46         0.13608
      44 -> 49         0.13016
      44 -> 50        -0.17043
 
 Excited State  10:      Singlet-A      5.1505 eV  240.72 nm  f=0.7772  <S**2>=0.000
      41 -> 45         0.43956
      43 -> 46         0.47273
      44 -> 48         0.24043
 SavETr:  write IOETrn=   770 NScale= 10 NData=  16 NLR=1 NState=   10 LETran=     190.

 **********************************************************************

            Population analysis using the SCF density.

 **********************************************************************

 Orbital symmetries:
       Occupied  (A) (A) (A) (A) (A) (A) (A) (A) (A) (A) (A) (A)
                 (A) (A) (A) (A) (A) (A) (A) (A) (A) (A) (A) (A)
                 (A) (A) (A) (A) (A) (A) (A) (A) (A) (A) (A) (A)
                 (A) (A) (A) (A) (A) (A) (A) (A)
       Virtual   (A) (A) (A) (A) (A) (A) (A) (A) (A) (A) (A) (A)
                 (A) (A) (A) (A) (A) (A) (A) (A) (A) (A) (A) (A)
                 (A) (A) (A) (A) (A) (A) (A) (A) (A) (A) (A) (A)
 The electronic state is 1-A.
 Alpha  occ. eigenvalues --   -1.75470  -1.68105  -1.64860  -1.54694  -1.53603
 Alpha  occ. eigenvalues --   -1.51098  -1.35418  -1.22606  -1.17325  -1.14478
 Alpha  occ. eigenvalues --   -1.04848  -1.02845  -1.00248  -0.89002  -0.88428
 Alpha  occ. eigenvalues --   -0.86430  -0.75665  -0.73089  -0.72731  -0.67077
 Alpha  occ. eigenvalues --   -0.66557  -0.65415  -0.61627  -0.60034  -0.58240
 Alpha  occ. eigenvalues --   -0.57528  -0.57151  -0.55386  -0.53056  -0.52480
 Alpha  occ. eigenvalues --   -0.51953  -0.50290  -0.49507  -0.49317  -0.47252
 Alpha  occ. eigenvalues --   -0.46922  -0.46744  -0.44602  -0.37565  -0.36431
 Alpha  occ. eigenvalues --   -0.36218  -0.35351  -0.33531  -0.32823
 Alpha virt. eigenvalues --   -0.06825  -0.01852  -0.00040   0.00796   0.04485
 Alpha virt. eigenvalues --    0.04842   0.05380   0.08150   0.08736   0.09087
 Alpha virt. eigenvalues --    0.10522   0.10611   0.11392   0.12271   0.12893
 Alpha virt. eigenvalues --    0.17885   0.18036   0.18354   0.20366   0.23391
 Alpha virt. eigenvalues --    0.24232   0.25966   0.26503   0.29567   0.29968
 Alpha virt. eigenvalues --    0.34218   0.34613   0.36554   0.39585   0.41609
 Alpha virt. eigenvalues --    0.43410   0.43683   0.44956   0.45337   0.48387
 Alpha virt. eigenvalues --    0.49591
     Molecular Orbital Coefficients:
                           1         2         3         4         5
                           O         O         O         O         O
     Eigenvalues --    -1.75470  -1.68105  -1.64860  -1.54694  -1.53603
   1 1   C  1S          0.33355  -0.00000  -0.11352  -0.00028   0.29848
   2        2PX        -0.00004   0.10833  -0.00001   0.01302   0.00001
   3        2PY        -0.05140   0.00005   0.14828   0.00015  -0.17210
   4        2PZ         0.00011  -0.00000  -0.00006  -0.00000   0.00013
   5 2   C  1S          0.27872   0.19937   0.05156  -0.11530  -0.01758
   6        2PX        -0.00457   0.08544  -0.00538  -0.05418  -0.13319
   7        2PY        -0.01860  -0.01786   0.11920  -0.10617  -0.07663
   8        2PZ         0.00002   0.00002  -0.00000  -0.00001  -0.00001
   9 3   C  1S          0.27881  -0.19924   0.05167   0.11531  -0.01741
  10        2PX         0.00455   0.08543   0.00533  -0.05443   0.13312
  11        2PY        -0.01862   0.01793   0.11921   0.10628  -0.07644
  12        2PZ         0.00002  -0.00002  -0.00000   0.00001  -0.00001
  13 4   O  1S          0.30468  -0.00007  -0.25282  -0.00041   0.43469
  14        2PX        -0.00002   0.05547  -0.00000   0.04261   0.00005
  15        2PY         0.10956  -0.00002  -0.08078  -0.00014   0.15702
  16        2PZ        -0.00005   0.00000   0.00005   0.00000  -0.00008
  17 5   C  1S          0.19765   0.00014   0.41633  -0.00017   0.21385
  18        2PX        -0.00001   0.04481  -0.00002  -0.09962  -0.00008
  19        2PY        -0.01071   0.00002   0.10328  -0.00009   0.12505
  20        2PZ         0.00005   0.00000   0.00012  -0.00000   0.00008
  21 6   C  1S          0.21600  -0.13777   0.26300   0.23024  -0.03759
  22        2PX         0.00574   0.05985   0.03437  -0.10016   0.11621
  23        2PY        -0.03281   0.03301   0.05084  -0.01347   0.05984
  24        2PZ         0.00001  -0.00001   0.00001   0.00002  -0.00001
  25 7   O  1S          0.13226   0.00013   0.42085  -0.00024   0.31325
  26        2PX        -0.00000   0.00967  -0.00000  -0.02704  -0.00002
  27        2PY        -0.05458  -0.00005  -0.16432   0.00009  -0.11425
  28        2PZ        -0.00002  -0.00000  -0.00006   0.00000  -0.00005
  29 8   C  1S          0.21596   0.13800   0.26291  -0.23020  -0.03797
  30        2PX        -0.00576   0.05984  -0.03441  -0.09997  -0.11638
  31        2PY        -0.03279  -0.03300   0.05086   0.01338   0.05985
  32        2PZ         0.00001   0.00001   0.00001  -0.00002  -0.00001
  33 9   C  1S          0.26583   0.34244  -0.08862   0.02374  -0.17788
  34        2PX        -0.03113   0.00511   0.00388   0.00434  -0.07276
  35        2PY        -0.03134  -0.05739   0.12487  -0.22172  -0.05682
  36        2PZ        -0.00001  -0.00000   0.00000  -0.00000  -0.00001
  37 10  C  1S          0.13266  -0.14007   0.17672   0.26901  -0.13543
  38        2PX         0.02287   0.00118   0.05766   0.00139   0.05595
  39        2PY        -0.04907   0.06230  -0.03147  -0.09540   0.08582
  40        2PZ        -0.00000   0.00000  -0.00001  -0.00000  -0.00001
  41 11  C  1S          0.13262   0.14023   0.17662  -0.26880  -0.13588
  42        2PX        -0.02287   0.00115  -0.05766   0.00148  -0.05595
  43        2PY        -0.04906  -0.06234  -0.03142   0.09526   0.08598
  44        2PZ        -0.00000  -0.00000  -0.00001   0.00000  -0.00001
  45 12  C  1S          0.26596  -0.34235  -0.08843  -0.02338  -0.17799
  46        2PX         0.03115   0.00509  -0.00390   0.00419   0.07278
  47        2PY        -0.03137   0.05744   0.12486   0.22176  -0.05642
  48        2PZ        -0.00001   0.00000   0.00000   0.00000  -0.00001
  49 13  C  1S          0.14142   0.20887   0.02400  -0.14964  -0.23602
  50        2PX        -0.06033  -0.08084  -0.00909   0.04770   0.06978
  51        2PY        -0.00470  -0.01219   0.05246  -0.10782  -0.03500
  52        2PZ        -0.00001  -0.00002  -0.00000   0.00001   0.00002
  53 14  C  1S          0.10741   0.14965   0.08980  -0.24768  -0.21727
  54        2PX        -0.04327  -0.05270  -0.04236   0.08829   0.06020
  55        2PY        -0.02711  -0.04164  -0.00294   0.03442   0.05557
  56        2PZ        -0.00001  -0.00001  -0.00001   0.00002   0.00002
  57 15  C  1S          0.14148  -0.20876   0.02413   0.15005  -0.23580
  58        2PX         0.06035  -0.08081   0.00914   0.04782  -0.06972
  59        2PY        -0.00470   0.01221   0.05246   0.10785  -0.03480
  60        2PZ        -0.00001   0.00002  -0.00000  -0.00001   0.00002
  61 16  C  1S          0.10745  -0.14953   0.08991   0.24802  -0.21686
  62        2PX         0.04328  -0.05266   0.04240   0.08839  -0.06006
  63        2PY        -0.02712   0.04162  -0.00297  -0.03451   0.05551
  64        2PZ        -0.00001   0.00001  -0.00001  -0.00002   0.00002
  65 17  H  1S          0.04019   0.03523   0.07477  -0.07928  -0.01515
  66 18  H  1S          0.04252   0.06768  -0.00588  -0.02246  -0.07284
  67 19  H  1S          0.02544   0.03756   0.02395  -0.07061  -0.06233
  68 20  H  1S          0.02545  -0.03753   0.02398   0.07071  -0.06221
  69 21  H  1S          0.04254  -0.06765  -0.00584   0.02260  -0.07282
  70 22  O  1S          0.27266   0.39139  -0.25455   0.35211  -0.09522
  71        2PX        -0.05615  -0.06433   0.05318  -0.06482  -0.01639
  72        2PY         0.05907   0.08876  -0.04529   0.05382  -0.04076
  73        2PZ        -0.00001  -0.00002   0.00001  -0.00002  -0.00000
  74 23  H  1S          0.13735   0.16384  -0.12405   0.14928   0.00643
  75 24  H  1S          0.04019  -0.03517   0.07480   0.07930  -0.01501
  76 25  O  1S          0.27282  -0.39136  -0.25437  -0.35179  -0.09591
  77        2PX         0.05618  -0.06433  -0.05316  -0.06483   0.01627
  78        2PY         0.05911  -0.08876  -0.04525  -0.05373  -0.04087
  79        2PZ        -0.00001   0.00002   0.00001   0.00002  -0.00000
  80 26  H  1S          0.13744  -0.16385  -0.12399  -0.14924   0.00616
                           6         7         8         9        10
                           O         O         O         O         O
     Eigenvalues --    -1.51098  -1.35418  -1.22606  -1.17325  -1.14478
   1 1   C  1S         -0.29453  -0.04881   0.00001  -0.00001  -0.09606
   2        2PX        -0.00001  -0.00001   0.15607  -0.19541   0.00001
   3        2PY         0.02118  -0.32933  -0.00001  -0.00000  -0.08082
   4        2PZ        -0.00010   0.00006   0.00000   0.00000  -0.00001
   5 2   C  1S         -0.19975  -0.20603   0.21766  -0.29978  -0.13931
   6        2PX         0.07017   0.12454  -0.00767  -0.07709  -0.03018
   7        2PY        -0.03702  -0.08820   0.03985   0.04753   0.06386
   8        2PZ         0.00000   0.00004  -0.00001  -0.00001  -0.00001
   9 3   C  1S         -0.19976  -0.20603  -0.21765   0.29975  -0.13935
  10        2PX        -0.07016  -0.12454  -0.00767  -0.07708   0.03019
  11        2PY        -0.03705  -0.08820  -0.03986  -0.04752   0.06386
  12        2PZ         0.00000   0.00004   0.00001   0.00001  -0.00001
  13 4   O  1S         -0.24402   0.36937   0.00001   0.00000   0.09310
  14        2PX        -0.00002   0.00001   0.05746  -0.03780  -0.00001
  15        2PY        -0.10824   0.10209   0.00001   0.00001  -0.02274
  16        2PZ         0.00004  -0.00008  -0.00000   0.00000  -0.00001
  17 5   C  1S          0.17168  -0.12061  -0.00001  -0.00000   0.02382
  18        2PX         0.00001  -0.00000   0.22254   0.14782  -0.00001
  19        2PY         0.23734   0.25464   0.00001  -0.00001  -0.15294
  20        2PZ         0.00009   0.00002   0.00000   0.00000  -0.00003
  21 6   C  1S         -0.09984  -0.18106  -0.29336  -0.05918   0.15139
  22        2PX         0.02221  -0.16868   0.01842   0.02678  -0.06496
  23        2PY         0.11748   0.10420  -0.01501  -0.20805   0.12252
  24        2PZ         0.00000   0.00004   0.00001  -0.00001   0.00001
  25 7   O  1S          0.40394   0.21047   0.00000  -0.00002  -0.25208
  26        2PX         0.00000  -0.00000   0.07644   0.08336  -0.00000
  27        2PY        -0.13947  -0.04907  -0.00000   0.00000   0.03706
  28        2PZ        -0.00007  -0.00004   0.00000   0.00000   0.00004
  29 8   C  1S         -0.09979  -0.18107   0.29335   0.05920   0.15139
  30        2PX        -0.02219   0.16867   0.01842   0.02679   0.06496
  31        2PY         0.11748   0.10420   0.01501   0.20807   0.12249
  32        2PZ         0.00000   0.00004  -0.00001   0.00001   0.00001
  33 9   C  1S          0.08319  -0.00419  -0.03695  -0.20815  -0.20450
  34        2PX         0.07146   0.05398  -0.17956   0.09398  -0.04793
  35        2PY        -0.17548   0.07317  -0.01949  -0.15874  -0.11744
  36        2PZ         0.00001   0.00002  -0.00005   0.00003  -0.00001
  37 10  C  1S         -0.05215   0.14524  -0.11767  -0.30218   0.33113
  38        2PX         0.02864  -0.08383  -0.17173   0.00477   0.00386
  39        2PY         0.05763  -0.02167  -0.00876  -0.06461   0.02422
  40        2PZ        -0.00000   0.00002   0.00005  -0.00000  -0.00000
  41 11  C  1S         -0.05208   0.14522   0.11767   0.30223   0.33108
  42        2PX        -0.02865   0.08383  -0.17173   0.00478  -0.00387
  43        2PY         0.05761  -0.02167   0.00875   0.06462   0.02420
  44        2PZ        -0.00000   0.00002  -0.00005   0.00000  -0.00000
  45 12  C  1S          0.08323  -0.00421   0.03697   0.20810  -0.20454
  46        2PX        -0.07145  -0.05398  -0.17956   0.09398   0.04792
  47        2PY        -0.17555   0.07319   0.01948   0.15874  -0.11747
  48        2PZ         0.00001   0.00002   0.00005  -0.00003  -0.00001
  49 13  C  1S         -0.00755   0.17614  -0.33404  -0.08215  -0.25086
  50        2PX         0.00928  -0.00840  -0.03024   0.07944   0.03880
  51        2PY        -0.07381   0.08125  -0.04307   0.04600   0.06339
  52        2PZ         0.00000  -0.00000  -0.00001   0.00002   0.00001
  53 14  C  1S         -0.08065   0.24836  -0.25083   0.16018   0.08514
  54        2PX         0.03185  -0.03230  -0.06763  -0.02577  -0.08105
  55        2PY         0.01309  -0.02808   0.10199   0.12006   0.17000
  56        2PZ         0.00001  -0.00001  -0.00002  -0.00000  -0.00002
  57 15  C  1S         -0.00757   0.17613   0.33405   0.08211  -0.25087
  58        2PX        -0.00929   0.00839  -0.03023   0.07943  -0.03882
  59        2PY        -0.07384   0.08126   0.04306  -0.04598   0.06340
  60        2PZ         0.00000  -0.00000   0.00001  -0.00002   0.00001
  61 16  C  1S         -0.08070   0.24837   0.25083  -0.16015   0.08518
  62        2PX        -0.03187   0.03230  -0.06763  -0.02576   0.08104
  63        2PY         0.01309  -0.02807  -0.10199  -0.12004   0.17002
  64        2PZ         0.00001  -0.00001   0.00002   0.00000  -0.00002
  65 17  H  1S          0.01184   0.06045   0.06438   0.17970   0.16471
  66 18  H  1S          0.01984   0.05803  -0.16123  -0.01277  -0.11780
  67 19  H  1S         -0.02127   0.09570  -0.12112   0.09867   0.05199
  68 20  H  1S         -0.02129   0.09571   0.12112  -0.09865   0.05201
  69 21  H  1S          0.01984   0.05802   0.16123   0.01275  -0.11780
  70 22  O  1S          0.36232  -0.12102   0.01816   0.20211   0.16630
  71        2PX        -0.04190   0.01733  -0.06055  -0.02003  -0.07038
  72        2PY         0.06656  -0.01421  -0.03852  -0.03866  -0.08317
  73        2PZ        -0.00001   0.00001  -0.00002  -0.00000  -0.00002
  74 23  H  1S          0.12091  -0.02920   0.05391   0.08076   0.11816
  75 24  H  1S          0.01182   0.06045  -0.06438  -0.17968   0.16474
  76 25  O  1S          0.36246  -0.12105  -0.01815  -0.20210   0.16633
  77        2PX         0.04191  -0.01733  -0.06056  -0.02002   0.07039
  78        2PY         0.06660  -0.01423   0.03851   0.03864  -0.08316
  79        2PZ        -0.00001   0.00001   0.00002   0.00000  -0.00002
  80 26  H  1S          0.12096  -0.02919  -0.05391  -0.08073   0.11817
                          11        12        13        14        15
                           O         O         O         O         O
     Eigenvalues --    -1.04848  -1.02845  -1.00248  -0.89002  -0.88428
   1 1   C  1S         -0.11285   0.00004  -0.21849   0.19685   0.00004
   2        2PX        -0.00001   0.23330   0.00003   0.00006   0.07108
   3        2PY        -0.08895   0.00001  -0.24193   0.06205  -0.00001
   4        2PZ        -0.00001  -0.00000   0.00002   0.00002   0.00000
   5 2   C  1S          0.11171   0.14483  -0.18667  -0.00552   0.04957
   6        2PX         0.24848  -0.02868   0.09045  -0.11037  -0.09968
   7        2PY        -0.03134  -0.12677   0.13044  -0.13883   0.09979
   8        2PZ         0.00006  -0.00002   0.00003  -0.00003  -0.00004
   9 3   C  1S          0.11172  -0.14477  -0.18671  -0.00554  -0.04959
  10        2PX        -0.24848  -0.02867  -0.09046   0.11034  -0.09964
  11        2PY        -0.03135   0.12673   0.13049  -0.13871  -0.09984
  12        2PZ         0.00006   0.00002   0.00003  -0.00003   0.00004
  13 4   O  1S         -0.01025  -0.00002   0.29303  -0.14548  -0.00002
  14        2PX        -0.00001   0.13593   0.00003   0.00005   0.06670
  15        2PY        -0.00348   0.00001  -0.00888   0.12889   0.00004
  16        2PZ        -0.00001   0.00000  -0.00004  -0.00002   0.00000
  17 5   C  1S         -0.18703  -0.00003   0.20276  -0.02854  -0.00000
  18        2PX         0.00001  -0.22576  -0.00003   0.00001   0.21907
  19        2PY         0.17172   0.00003  -0.20418  -0.00701  -0.00000
  20        2PZ         0.00000  -0.00000  -0.00000  -0.00001   0.00000
  21 6   C  1S          0.01193   0.16916   0.19952  -0.07013  -0.18263
  22        2PX        -0.24351   0.01658   0.04654   0.00211  -0.09906
  23        2PY        -0.03095   0.11366   0.12582   0.10301   0.01134
  24        2PZ         0.00005  -0.00001  -0.00001  -0.00000   0.00005
  25 7   O  1S          0.09520   0.00003  -0.25790  -0.06770  -0.00002
  26        2PX         0.00000  -0.09634  -0.00001   0.00002   0.06632
  27        2PY         0.01110   0.00000  -0.02566   0.00127  -0.00000
  28        2PZ        -0.00002  -0.00000   0.00003   0.00001   0.00000
  29 8   C  1S          0.01193  -0.16921   0.19947  -0.07020   0.18262
  30        2PX         0.24351   0.01661  -0.04654  -0.00213  -0.09905
  31        2PY        -0.03094  -0.11369   0.12581   0.10307  -0.01129
  32        2PZ         0.00005   0.00001  -0.00001  -0.00000  -0.00005
  33 9   C  1S          0.17318  -0.10004   0.05387   0.14329  -0.21705
  34        2PX        -0.13924  -0.24169   0.18565   0.09622  -0.03515
  35        2PY         0.10621   0.00705   0.01787  -0.14642   0.03791
  36        2PZ        -0.00004  -0.00006   0.00005   0.00002  -0.00001
  37 10  C  1S          0.09379  -0.03838  -0.02603   0.18860   0.19286
  38        2PX         0.09121   0.22308   0.18839  -0.03130  -0.14901
  39        2PY        -0.06608   0.00603  -0.02611   0.16952   0.05373
  40        2PZ        -0.00003  -0.00006  -0.00005   0.00001   0.00004
  41 11  C  1S          0.09379   0.03840  -0.02600   0.18867  -0.19279
  42        2PX        -0.09122   0.22312  -0.18833   0.03133  -0.14903
  43        2PY        -0.06608  -0.00602  -0.02611   0.16962  -0.05367
  44        2PZ        -0.00003   0.00006  -0.00005   0.00001  -0.00004
  45 12  C  1S          0.17317   0.10004   0.05388   0.14319   0.21710
  46        2PX         0.13926  -0.24164  -0.18571  -0.09622  -0.03520
  47        2PY         0.10622  -0.00707   0.01788  -0.14635  -0.03795
  48        2PZ        -0.00004   0.00006   0.00005   0.00002   0.00001
  49 13  C  1S         -0.20448  -0.17269   0.14466  -0.01418   0.14506
  50        2PX        -0.18386   0.04324  -0.03618  -0.00734   0.19428
  51        2PY        -0.06556   0.19081  -0.13498  -0.20055   0.14550
  52        2PZ        -0.00005   0.00001  -0.00001  -0.00000   0.00005
  53 14  C  1S         -0.23119   0.24728  -0.19554  -0.05012   0.04750
  54        2PX        -0.17286   0.00761  -0.01706  -0.02519   0.18664
  55        2PY         0.04193   0.11122  -0.10759   0.16878  -0.19713
  56        2PZ        -0.00004   0.00000  -0.00001  -0.00000   0.00004
  57 15  C  1S         -0.20449   0.17264   0.14472  -0.01416  -0.14504
  58        2PX         0.18385   0.04325   0.03620   0.00735   0.19428
  59        2PY        -0.06554  -0.19078  -0.13502  -0.20046  -0.14557
  60        2PZ        -0.00005  -0.00001  -0.00001  -0.00000  -0.00005
  61 16  C  1S         -0.23118  -0.24725  -0.19560  -0.05012  -0.04755
  62        2PX         0.17286   0.00763   0.01706   0.02520   0.18665
  63        2PY         0.04194  -0.11119  -0.10764   0.16869   0.19717
  64        2PZ        -0.00004  -0.00000  -0.00001  -0.00000  -0.00004
  65 17  H  1S          0.01221   0.00873  -0.03111   0.19774  -0.12586
  66 18  H  1S         -0.17268  -0.11946   0.09350   0.05112   0.13519
  67 19  H  1S         -0.18380   0.15923  -0.13895   0.01782   0.05917
  68 20  H  1S         -0.18380  -0.15921  -0.13899   0.01779  -0.05919
  69 21  H  1S         -0.17269   0.11942   0.09354   0.05111  -0.13515
  70 22  O  1S         -0.07022   0.00606  -0.03386  -0.10416   0.08830
  71        2PX        -0.02768  -0.14019   0.08583   0.14760  -0.09058
  72        2PY         0.01975  -0.13002   0.06884   0.31291  -0.23820
  73        2PZ        -0.00001  -0.00004   0.00002   0.00004  -0.00003
  74 23  H  1S         -0.01405   0.12678  -0.06045  -0.22139   0.15814
  75 24  H  1S          0.01220  -0.00872  -0.03112   0.19764   0.12593
  76 25  O  1S         -0.07023  -0.00603  -0.03385  -0.10405  -0.08833
  77        2PX         0.02769  -0.14017  -0.08586  -0.14760  -0.09067
  78        2PY         0.01975   0.12998   0.06882   0.31272   0.23828
  79        2PZ        -0.00001   0.00004   0.00002   0.00004   0.00003
  80 26  H  1S         -0.01404  -0.12675  -0.06045  -0.22129  -0.15821
                          16        17        18        19        20
                           O         O         O         O         O
     Eigenvalues --    -0.86430  -0.75665  -0.73089  -0.72731  -0.67077
   1 1   C  1S         -0.00004  -0.21605  -0.00007  -0.09526   0.23304
   2        2PX         0.31185  -0.00001  -0.05856   0.00004   0.00004
   3        2PY        -0.00001  -0.12353   0.00005   0.01808  -0.07362
   4        2PZ        -0.00000   0.00002  -0.00000   0.00002   0.00002
   5 2   C  1S          0.10636   0.01095   0.09697  -0.03168  -0.10979
   6        2PX        -0.12117   0.22887  -0.07171  -0.08849  -0.10910
   7        2PY        -0.21197  -0.06667   0.26045   0.24763  -0.08023
   8        2PZ        -0.00006   0.00007  -0.00004   0.00000  -0.00003
   9 3   C  1S         -0.10634   0.01095  -0.09699  -0.03156  -0.10986
  10        2PX        -0.12121  -0.22886  -0.07160   0.08854   0.10898
  11        2PY         0.21204  -0.06668  -0.26017   0.24790  -0.08034
  12        2PZ         0.00006   0.00007   0.00004   0.00000  -0.00003
  13 4   O  1S          0.00004   0.07243   0.00015   0.25194  -0.26093
  14        2PX         0.12106  -0.00001  -0.17460   0.00013   0.00004
  15        2PY        -0.00006  -0.03648  -0.00013  -0.15077   0.33553
  16        2PZ        -0.00000   0.00002  -0.00000   0.00007  -0.00018
  17 5   C  1S         -0.00000   0.28316  -0.00006  -0.08531   0.13578
  18        2PX         0.20703   0.00001   0.01337  -0.00002  -0.00006
  19        2PY         0.00001  -0.10795  -0.00002  -0.04141   0.05183
  20        2PZ         0.00000  -0.00000  -0.00000  -0.00000   0.00001
  21 6   C  1S          0.01628  -0.01049  -0.16535   0.01373  -0.01109
  22        2PX        -0.14519   0.21016  -0.07419   0.06621  -0.02891
  23        2PY        -0.13586   0.04355   0.22214  -0.22734   0.13028
  24        2PZ         0.00005  -0.00005   0.00005  -0.00001   0.00001
  25 7   O  1S          0.00003  -0.17815   0.00015   0.25220  -0.15542
  26        2PX         0.14214  -0.00000  -0.09068   0.00004  -0.00006
  27        2PY         0.00001  -0.13698   0.00011   0.17962  -0.20638
  28        2PZ         0.00000  -0.00004  -0.00000   0.00006  -0.00010
  29 8   C  1S         -0.01626  -0.01047   0.16536   0.01357  -0.01108
  30        2PX        -0.14519  -0.21016  -0.07424  -0.06611   0.02893
  31        2PY         0.13580   0.04354  -0.22241  -0.22711   0.13012
  32        2PZ        -0.00005  -0.00005  -0.00005  -0.00001   0.00001
  33 9   C  1S          0.07748   0.19023  -0.04624  -0.01999  -0.04206
  34        2PX        -0.06507  -0.17094   0.05021   0.20206   0.08761
  35        2PY        -0.12238  -0.04639  -0.18935  -0.05870  -0.06040
  36        2PZ        -0.00003  -0.00004  -0.00000   0.00007   0.00002
  37 10  C  1S         -0.02441  -0.12988   0.10929  -0.04194  -0.03153
  38        2PX        -0.03945  -0.11503   0.08691  -0.22324  -0.02833
  39        2PY        -0.21687   0.00677   0.09276  -0.11422  -0.23734
  40        2PZ         0.00001   0.00003  -0.00001   0.00006   0.00000
  41 11  C  1S          0.02433  -0.12990  -0.10932  -0.04182  -0.03147
  42        2PX        -0.03945   0.11502   0.08715   0.22315   0.02841
  43        2PY         0.21680   0.00676  -0.09285  -0.11415  -0.23729
  44        2PZ        -0.00001   0.00003   0.00001   0.00006   0.00000
  45 12  C  1S         -0.07754   0.19023   0.04621  -0.02000  -0.04198
  46        2PX        -0.06502   0.17093   0.04998  -0.20209  -0.08751
  47        2PY         0.12242  -0.04637   0.18929  -0.05891  -0.06041
  48        2PZ         0.00002  -0.00004  -0.00000   0.00007   0.00002
  49 13  C  1S          0.07162  -0.14098  -0.13387  -0.09414  -0.03236
  50        2PX         0.16472  -0.07796   0.04408  -0.16082  -0.15052
  51        2PY        -0.08139   0.07835  -0.02017  -0.06535   0.17511
  52        2PZ         0.00004  -0.00002   0.00001  -0.00004  -0.00004
  53 14  C  1S          0.03184   0.14865   0.12314   0.07347   0.08009
  54        2PX         0.18813   0.12292   0.11136  -0.12962  -0.16680
  55        2PY         0.06533   0.10131   0.16297   0.14762  -0.12989
  56        2PZ         0.00005   0.00003   0.00003  -0.00003  -0.00004
  57 15  C  1S         -0.07164  -0.14097   0.13378  -0.09429  -0.03240
  58        2PX         0.16471   0.07797   0.04422   0.16077   0.15059
  59        2PY         0.08149   0.07833   0.02008  -0.06538   0.17528
  60        2PZ        -0.00004  -0.00002  -0.00001  -0.00004  -0.00004
  61 16  C  1S         -0.03180   0.14863  -0.12308   0.07360   0.08015
  62        2PX         0.18812  -0.12290   0.11149   0.12948   0.16675
  63        2PY        -0.06538   0.10131  -0.16279   0.14782  -0.13000
  64        2PZ        -0.00005   0.00003  -0.00003  -0.00003  -0.00004
  65 17  H  1S          0.15631  -0.06493  -0.12920  -0.10172  -0.20386
  66 18  H  1S          0.15115  -0.15216  -0.02785  -0.12175  -0.18368
  67 19  H  1S          0.14321   0.18912   0.19664   0.01360  -0.12698
  68 20  H  1S         -0.14320   0.18910  -0.19663   0.01384  -0.12697
  69 21  H  1S         -0.15119  -0.15216   0.02775  -0.12178  -0.18381
  70 22  O  1S         -0.15907  -0.11077   0.08361   0.06925   0.07073
  71        2PX         0.02311  -0.07348   0.17755   0.17226   0.07041
  72        2PY         0.20456   0.17561   0.21783   0.10904   0.06332
  73        2PZ         0.00001  -0.00002   0.00004   0.00005   0.00001
  74 23  H  1S         -0.11082  -0.05062  -0.17112  -0.09601  -0.07359
  75 24  H  1S         -0.15639  -0.06491   0.12912  -0.10184  -0.20392
  76 25  O  1S          0.15914  -0.11079  -0.08356   0.06931   0.07072
  77        2PX         0.02318   0.07345   0.17741  -0.17246  -0.07035
  78        2PY        -0.20468   0.17562  -0.21769   0.10928   0.06335
  79        2PZ        -0.00001  -0.00001  -0.00004   0.00005   0.00001
  80 26  H  1S          0.11091  -0.05061   0.17104  -0.09620  -0.07360
                          21        22        23        24        25
                           O         O         O         O         O
     Eigenvalues --    -0.66557  -0.65415  -0.61627  -0.60034  -0.58240
   1 1   C  1S          0.00007  -0.03501  -0.00000  -0.00017   0.02903
   2        2PX        -0.13118   0.00001   0.26824   0.00000  -0.00003
   3        2PY        -0.00001  -0.08860   0.00004  -0.00004  -0.34884
   4        2PZ        -0.00000   0.00006  -0.00000   0.31818  -0.00001
   5 2   C  1S         -0.12321   0.02548  -0.01720   0.00002  -0.03358
   6        2PX         0.14045   0.02286  -0.21162  -0.00007   0.11635
   7        2PY        -0.12354   0.09205  -0.05985   0.00000   0.04462
   8        2PZ         0.00006   0.00004  -0.00008   0.31596  -0.00001
   9 3   C  1S          0.12314   0.02548   0.01722   0.00002  -0.03356
  10        2PX         0.14054  -0.02289  -0.21162   0.00007  -0.11633
  11        2PY         0.12350   0.09204   0.05981   0.00001   0.04458
  12        2PZ        -0.00006   0.00004   0.00008   0.31597  -0.00001
  13 4   O  1S         -0.00007  -0.01385   0.00003  -0.00011  -0.29772
  14        2PX        -0.03634   0.00004   0.18348   0.00000   0.00005
  15        2PY         0.00009   0.08207  -0.00009   0.00033   0.54369
  16        2PZ        -0.00000  -0.00002  -0.00000   0.24215  -0.00045
  17 5   C  1S          0.00002  -0.19727   0.00001  -0.00011  -0.02042
  18        2PX         0.20714  -0.00001  -0.15051  -0.00000  -0.00004
  19        2PY         0.00002   0.03378   0.00003  -0.00002  -0.23989
  20        2PZ        -0.00000   0.00004  -0.00000   0.27496  -0.00009
  21 6   C  1S         -0.02063   0.16199  -0.01865  -0.00000   0.05190
  22        2PX        -0.03213  -0.20690   0.16898   0.00011   0.08618
  23        2PY        -0.21346  -0.02311  -0.05039  -0.00003  -0.01209
  24        2PZ        -0.00001   0.00008  -0.00004   0.28124  -0.00008
  25 7   O  1S         -0.00003   0.14611  -0.00004  -0.00005   0.21481
  26        2PX         0.13680  -0.00001  -0.16598  -0.00000  -0.00005
  27        2PY        -0.00005   0.15720  -0.00005  -0.00018   0.38117
  28        2PZ        -0.00000   0.00009  -0.00000   0.20324   0.00018
  29 8   C  1S          0.02063   0.16199   0.01862  -0.00000   0.05194
  30        2PX        -0.03210   0.20692   0.16898  -0.00011  -0.08611
  31        2PY         0.21353  -0.02312   0.05041  -0.00003  -0.01210
  32        2PZ         0.00001   0.00008   0.00004   0.28124  -0.00008
  33 9   C  1S          0.12860  -0.06028  -0.13563  -0.00000   0.02038
  34        2PX        -0.10593  -0.12365   0.01094  -0.00007   0.00397
  35        2PY        -0.09447  -0.24269  -0.22073   0.00006   0.12470
  36        2PZ        -0.00002  -0.00002  -0.00001   0.25345  -0.00005
  37 10  C  1S          0.11869  -0.03998  -0.09293   0.00000  -0.03863
  38        2PX        -0.10398   0.22507  -0.02588   0.00002  -0.00394
  39        2PY         0.14194  -0.15440   0.21748   0.00004   0.06662
  40        2PZ         0.00002  -0.00005   0.00002   0.16858  -0.00003
  41 11  C  1S         -0.11870  -0.03997   0.09294   0.00000  -0.03861
  42        2PX        -0.10398  -0.22505  -0.02589  -0.00002   0.00391
  43        2PY        -0.14209  -0.15442  -0.21744   0.00004   0.06654
  44        2PZ        -0.00002  -0.00005  -0.00002   0.16858  -0.00003
  45 12  C  1S         -0.12863  -0.06025   0.13563  -0.00000   0.02037
  46        2PX        -0.10599   0.12368   0.01095   0.00007  -0.00400
  47        2PY         0.09440  -0.24267   0.22075   0.00006   0.12479
  48        2PZ         0.00002  -0.00001   0.00001   0.25345  -0.00005
  49 13  C  1S         -0.09429  -0.06802   0.03873   0.00000  -0.01430
  50        2PX        -0.13161   0.20758   0.14403  -0.00005  -0.05465
  51        2PY         0.25669   0.10537   0.10135  -0.00004  -0.06555
  52        2PZ        -0.00003   0.00006   0.00003   0.15211  -0.00005
  53 14  C  1S          0.12810   0.04029  -0.00653  -0.00001  -0.00592
  54        2PX         0.08550   0.17212  -0.21062  -0.00003   0.09071
  55        2PY        -0.13985  -0.04966  -0.13438   0.00003   0.07092
  56        2PZ         0.00002   0.00005  -0.00006   0.13163  -0.00001
  57 15  C  1S          0.09428  -0.06802  -0.03873   0.00000  -0.01429
  58        2PX        -0.13153  -0.20757   0.14402   0.00005   0.05474
  59        2PY        -0.25658   0.10538  -0.10133  -0.00004  -0.06552
  60        2PZ         0.00003   0.00006  -0.00003   0.15211  -0.00005
  61 16  C  1S         -0.12805   0.04030   0.00652  -0.00001  -0.00592
  62        2PX         0.08560  -0.17215  -0.21062   0.00003  -0.09071
  63        2PY         0.13976  -0.04966   0.13435   0.00003   0.07088
  64        2PZ        -0.00002   0.00005   0.00006   0.13163  -0.00001
  65 17  H  1S         -0.16065  -0.13617  -0.14144   0.00003   0.04441
  66 18  H  1S         -0.24179   0.06970   0.08379   0.00001  -0.01719
  67 19  H  1S          0.06324   0.11715  -0.21551   0.00001   0.09791
  68 20  H  1S         -0.06332   0.11717   0.21550   0.00001   0.09790
  69 21  H  1S          0.24169   0.06969  -0.08378   0.00001  -0.01726
  70 22  O  1S         -0.07068   0.00132  -0.02392   0.00005   0.08052
  71        2PX        -0.10622   0.03616   0.00918  -0.00000   0.09242
  72        2PY         0.19808   0.26314   0.21078  -0.00010  -0.15884
  73        2PZ        -0.00002   0.00002  -0.00000   0.22264  -0.00005
  74 23  H  1S         -0.04360  -0.12483  -0.06797  -0.00001  -0.01187
  75 24  H  1S          0.16052  -0.13616   0.14147   0.00003   0.04447
  76 25  O  1S          0.07072   0.00131   0.02393   0.00005   0.08062
  77        2PX        -0.10622  -0.03620   0.00923   0.00000  -0.09250
  78        2PY        -0.19803   0.26313  -0.21081  -0.00010  -0.15898
  79        2PZ         0.00002   0.00003  -0.00000   0.22263  -0.00004
  80 26  H  1S          0.04356  -0.12484   0.06799  -0.00001  -0.01190
                          26        27        28        29        30
                           O         O         O         O         O
     Eigenvalues --    -0.57528  -0.57151  -0.55386  -0.53056  -0.52480
   1 1   C  1S          0.00038   0.00000   0.00000  -0.03350   0.00004
   2        2PX        -0.00010   0.28945   0.00013   0.00004   0.03407
   3        2PY         0.08740  -0.00001  -0.00000  -0.13048   0.00001
   4        2PZ         0.00003  -0.00000  -0.00002   0.00002   0.00000
   5 2   C  1S         -0.07492   0.01327   0.00001  -0.01136   0.09206
   6        2PX        -0.04245  -0.23746  -0.00018   0.04699   0.02211
   7        2PY        -0.09242  -0.04868  -0.00001   0.03344  -0.04038
   8        2PZ         0.00003  -0.00021   0.21633   0.00003   0.00002
   9 3   C  1S         -0.07494  -0.01333  -0.00001  -0.01143  -0.09208
  10        2PX         0.04263  -0.23747  -0.00018  -0.04704   0.02214
  11        2PY        -0.09245   0.04859   0.00001   0.03346   0.04033
  12        2PZ         0.00003   0.00021  -0.21635   0.00003  -0.00002
  13 4   O  1S          0.03562  -0.00002  -0.00000  -0.11298  -0.00003
  14        2PX        -0.00011   0.16416   0.00020  -0.00009  -0.24289
  15        2PY        -0.11446  -0.00000   0.00000   0.17067   0.00002
  16        2PZ         0.00013  -0.00000  -0.00003  -0.00015   0.00000
  17 5   C  1S         -0.02655  -0.00001  -0.00000   0.07315  -0.00002
  18        2PX        -0.00011   0.26542   0.00011  -0.00001  -0.12518
  19        2PY        -0.31730  -0.00017   0.00000  -0.02862  -0.00001
  20        2PZ         0.00001  -0.00000  -0.00002  -0.00011   0.00001
  21 6   C  1S         -0.02195   0.01117  -0.00002   0.01016   0.08062
  22        2PX         0.10267  -0.22781  -0.00013   0.05547   0.06802
  23        2PY         0.10706  -0.03903  -0.00000  -0.04507   0.03073
  24        2PZ         0.00001   0.00018  -0.16002  -0.00005  -0.00005
  25 7   O  1S          0.26420   0.00013  -0.00000   0.01660   0.00001
  26        2PX        -0.00007   0.19277   0.00011   0.00002   0.01656
  27        2PY         0.48684   0.00025  -0.00000  -0.00941   0.00004
  28        2PZ         0.00035   0.00000  -0.00001  -0.00014   0.00001
  29 8   C  1S         -0.02195  -0.01118   0.00002   0.01011  -0.08059
  30        2PX        -0.10249  -0.22792  -0.00013  -0.05550   0.06807
  31        2PY         0.10701   0.03913   0.00000  -0.04510  -0.03065
  32        2PZ         0.00001  -0.00018   0.16000  -0.00005   0.00006
  33 9   C  1S          0.04297  -0.03672  -0.00002  -0.02749  -0.05259
  34        2PX        -0.00871   0.22752   0.00003  -0.07774  -0.11953
  35        2PY        -0.09382   0.08034   0.00002  -0.07154  -0.00214
  36        2PZ         0.00005  -0.00010   0.34491   0.00003  -0.00001
  37 10  C  1S          0.03240   0.06304   0.00003   0.03313  -0.03129
  38        2PX        -0.01063   0.18011   0.00005  -0.21701  -0.10876
  39        2PY         0.06178   0.01434   0.00004  -0.17140  -0.17823
  40        2PZ         0.00003   0.00004  -0.14804   0.00004  -0.00001
  41 11  C  1S          0.03246  -0.06304  -0.00003   0.03315   0.03126
  42        2PX         0.01050   0.18008   0.00005   0.21701  -0.10892
  43        2PY         0.06182  -0.01423  -0.00004  -0.17128   0.17826
  44        2PZ         0.00003  -0.00004   0.14804   0.00004   0.00001
  45 12  C  1S          0.04295   0.03676   0.00002  -0.02744   0.05261
  46        2PX         0.00852   0.22754   0.00003   0.07771  -0.11961
  47        2PY        -0.09376  -0.08035  -0.00003  -0.07152   0.00220
  48        2PZ         0.00005   0.00010  -0.34487   0.00003  -0.00000
  49 13  C  1S          0.04931   0.02055   0.00001   0.02722  -0.01058
  50        2PX        -0.05450  -0.25438  -0.00016   0.21862   0.02318
  51        2PY         0.18651   0.02098  -0.00003  -0.16855   0.24277
  52        2PZ         0.00002  -0.00017   0.22566   0.00008   0.00003
  53 14  C  1S          0.00569   0.07077   0.00003  -0.01770  -0.01172
  54        2PX        -0.09624  -0.13754  -0.00010  -0.24609   0.06659
  55        2PY        -0.20840  -0.01126   0.00003   0.16806  -0.25127
  56        2PZ        -0.00000  -0.00012   0.17259  -0.00005   0.00004
  57 15  C  1S          0.04932  -0.02052  -0.00001   0.02721   0.01055
  58        2PX         0.05473  -0.25430  -0.00016  -0.21862   0.02335
  59        2PY         0.18651  -0.02082   0.00003  -0.16872  -0.24274
  60        2PZ         0.00002   0.00016  -0.22564   0.00008  -0.00004
  61 16  C  1S          0.00576  -0.07076  -0.00003  -0.01770   0.01174
  62        2PX         0.09634  -0.13753  -0.00010   0.24606   0.06640
  63        2PY        -0.20838   0.01108  -0.00003   0.16823   0.25125
  64        2PZ        -0.00000   0.00012  -0.17258  -0.00005  -0.00004
  65 17  H  1S          0.07605  -0.04066  -0.00005  -0.14657   0.18303
  66 18  H  1S         -0.10477  -0.18890  -0.00006   0.26201  -0.09215
  67 19  H  1S         -0.16878  -0.07367  -0.00001  -0.12219  -0.07509
  68 20  H  1S         -0.16881   0.07359   0.00001  -0.12209   0.07522
  69 21  H  1S         -0.10494   0.18877   0.00006   0.26208   0.09200
  70 22  O  1S         -0.11871   0.07409   0.00002  -0.12072   0.20106
  71        2PX        -0.23352   0.18495  -0.00003  -0.26509   0.35829
  72        2PY         0.14556  -0.09645  -0.00004   0.06161  -0.04205
  73        2PZ         0.00000  -0.00012   0.45395   0.00002   0.00011
  74 23  H  1S          0.05295  -0.02780  -0.00001   0.09315  -0.17959
  75 24  H  1S          0.07599   0.04076   0.00005  -0.14669  -0.18302
  76 25  O  1S         -0.11867  -0.07413  -0.00002  -0.12081  -0.20099
  77        2PX         0.23335   0.18506  -0.00003   0.26526   0.35810
  78        2PY         0.14552   0.09652   0.00004   0.06164   0.04201
  79        2PZ        -0.00000   0.00012  -0.45385   0.00002  -0.00014
  80 26  H  1S          0.05293   0.02783   0.00001   0.09324   0.17954
                          31        32        33        34        35
                           O         O         O         O         O
     Eigenvalues --    -0.51953  -0.50290  -0.49507  -0.49317  -0.47252
   1 1   C  1S         -0.00001  -0.00001  -0.00115   0.12938   0.00414
   2        2PX         0.00000   0.09750  -0.00000   0.00002   0.00005
   3        2PY         0.00002  -0.00000  -0.00087   0.14680  -0.15470
   4        2PZ         0.01883   0.00000   0.47893   0.00331   0.00020
   5 2   C  1S          0.00001  -0.02478   0.00063  -0.08848  -0.02267
   6        2PX         0.00001   0.02725   0.00075  -0.11385  -0.07364
   7        2PY        -0.00001  -0.20085   0.00061  -0.10672   0.25070
   8        2PZ        -0.00138   0.00002   0.12666   0.00085   0.00010
   9 3   C  1S          0.00001   0.02480   0.00063  -0.08847  -0.02268
  10        2PX        -0.00001   0.02720  -0.00075   0.11384   0.07361
  11        2PY        -0.00001   0.20077   0.00061  -0.10666   0.25080
  12        2PZ        -0.00133  -0.00002   0.12662   0.00085   0.00010
  13 4   O  1S          0.00002  -0.00000   0.00013  -0.01239  -0.10660
  14        2PX        -0.00001   0.08091   0.00000  -0.00005  -0.00002
  15        2PY         0.00001  -0.00002   0.00114  -0.11199   0.23272
  16        2PZ         0.03897   0.00000   0.63988   0.00461  -0.00006
  17 5   C  1S          0.00017   0.00002   0.00041  -0.04064  -0.09068
  18        2PX        -0.00000  -0.04601   0.00000   0.00003  -0.00001
  19        2PY         0.00006  -0.00004   0.00033  -0.05513   0.19715
  20        2PZ        -0.40563  -0.00000  -0.21488  -0.00149  -0.00016
  21 6   C  1S         -0.00001   0.00447  -0.00038   0.05329   0.03681
  22        2PX        -0.00008   0.17287   0.00077  -0.11370  -0.02481
  23        2PY        -0.00000  -0.21243  -0.00114   0.17754  -0.22631
  24        2PZ        -0.20364  -0.00008  -0.06243  -0.00041   0.00002
[...]
   2        2PX         0.98674
   3        2PY         0.92134
   4        2PZ         0.68343
   5 2   C  1S          1.05174
   6        2PX         0.92473
   7        2PY         0.95043
   8        2PZ         1.08615
   9 3   C  1S          1.05173
  10        2PX         0.92474
  11        2PY         0.95043
  12        2PZ         1.08615
  13 4   O  1S          1.81734
  14        2PX         1.94602
  15        2PY         1.26090
  16        2PZ         1.50451
  17 5   C  1S          1.08155
  18        2PX         0.98568
  19        2PY         0.92072
  20        2PZ         0.69172
  21 6   C  1S          1.06069
  22        2PX         0.95807
  23        2PY         0.96449
  24        2PZ         1.00280
  25 7   O  1S          1.82227
  26        2PX         1.97777
  27        2PY         1.26531
  28        2PZ         1.44289
  29 8   C  1S          1.06069
  30        2PX         0.95807
  31        2PY         0.96449
  32        2PZ         1.00280
  33 9   C  1S          1.06261
  34        2PX         0.99249
  35        2PY         0.85201
  36        2PZ         0.90498
  37 10  C  1S          1.09668
  38        2PX         0.98164
  39        2PY         0.96231
  40        2PZ         0.96946
  41 11  C  1S          1.09668
  42        2PX         0.98164
  43        2PY         0.96231
  44        2PZ         0.96946
  45 12  C  1S          1.06260
  46        2PX         0.99249
  47        2PY         0.85201
  48        2PZ         0.90497
  49 13  C  1S          1.09239
  50        2PX         0.95451
  51        2PY         0.97205
  52        2PZ         1.00544
  53 14  C  1S          1.09477
  54        2PX         0.96967
  55        2PY         0.99020
  56        2PZ         0.95082
  57 15  C  1S          1.09239
  58        2PX         0.95451
  59        2PY         0.97205
  60        2PZ         1.00544
  61 16  C  1S          1.09477
  62        2PX         0.96967
  63        2PY         0.99020
  64        2PZ         0.95082
  65 17  H  1S          0.94314
  66 18  H  1S          0.95099
  67 19  H  1S          0.95752
  68 20  H  1S          0.95752
  69 21  H  1S          0.95099
  70 22  O  1S          1.69400
  71        2PX         1.50887
  72        2PY         1.22261
  73        2PZ         1.91907
  74 23  H  1S          0.75774
  75 24  H  1S          0.94314
  76 25  O  1S          1.69401
  77        2PX         1.50887
  78        2PY         1.22263
  79        2PZ         1.91907
  80 26  H  1S          0.75773
          Condensed to atoms (all electrons):
               1          2          3          4          5          6
     1  C    3.673160   0.000000   0.000000   0.000000   0.000000   0.000000
     2  C    0.000000   4.013055   0.000000   0.000000   0.000000   0.000000
     3  C    0.000000   0.000000   4.013056   0.000000   0.000000   0.000000
     4  O    0.000000   0.000000   0.000000   6.528770   0.000000   0.000000
     5  C    0.000000   0.000000   0.000000   0.000000   3.679668   0.000000
     6  C    0.000000   0.000000   0.000000   0.000000   0.000000   3.986055
     7  O    0.000000   0.000000   0.000000   0.000000   0.000000   0.000000
     8  C    0.000000   0.000000   0.000000   0.000000   0.000000   0.000000
     9  C    0.000000   0.000000   0.000000   0.000000   0.000000   0.000000
    10  C    0.000000   0.000000   0.000000   0.000000   0.000000   0.000000
    11  C    0.000000   0.000000   0.000000   0.000000   0.000000   0.000000
    12  C    0.000000   0.000000   0.000000   0.000000   0.000000   0.000000
    13  C    0.000000   0.000000   0.000000   0.000000   0.000000   0.000000
    14  C    0.000000   0.000000   0.000000   0.000000   0.000000   0.000000
    15  C    0.000000   0.000000   0.000000   0.000000   0.000000   0.000000
    16  C    0.000000   0.000000   0.000000   0.000000   0.000000   0.000000
    17  H    0.000000   0.000000   0.000000   0.000000   0.000000   0.000000
    18  H    0.000000   0.000000   0.000000   0.000000   0.000000   0.000000
    19  H    0.000000   0.000000   0.000000   0.000000   0.000000   0.000000
    20  H    0.000000   0.000000   0.000000   0.000000   0.000000   0.000000
    21  H    0.000000   0.000000   0.000000   0.000000   0.000000   0.000000
    22  O    0.000000   0.000000   0.000000   0.000000   0.000000   0.000000
    23  H    0.000000   0.000000   0.000000   0.000000   0.000000   0.000000
    24  H    0.000000   0.000000   0.000000   0.000000   0.000000   0.000000
    25  O    0.000000   0.000000   0.000000   0.000000   0.000000   0.000000
    26  H    0.000000   0.000000   0.000000   0.000000   0.000000   0.000000
               7          8          9         10         11         12
     1  C    0.000000   0.000000   0.000000   0.000000   0.000000   0.000000
     2  C    0.000000   0.000000   0.000000   0.000000   0.000000   0.000000
     3  C    0.000000   0.000000   0.000000   0.000000   0.000000   0.000000
     4  O    0.000000   0.000000   0.000000   0.000000   0.000000   0.000000
     5  C    0.000000   0.000000   0.000000   0.000000   0.000000   0.000000
     6  C    0.000000   0.000000   0.000000   0.000000   0.000000   0.000000
     7  O    6.508245   0.000000   0.000000   0.000000   0.000000   0.000000
     8  C    0.000000   3.986053   0.000000   0.000000   0.000000   0.000000
     9  C    0.000000   0.000000   3.812085   0.000000   0.000000   0.000000
    10  C    0.000000   0.000000   0.000000   4.010096   0.000000   0.000000
    11  C    0.000000   0.000000   0.000000   0.000000   4.010093   0.000000
    12  C    0.000000   0.000000   0.000000   0.000000   0.000000   3.812078
    13  C    0.000000   0.000000   0.000000   0.000000   0.000000   0.000000
    14  C    0.000000   0.000000   0.000000   0.000000   0.000000   0.000000
    15  C    0.000000   0.000000   0.000000   0.000000   0.000000   0.000000
    16  C    0.000000   0.000000   0.000000   0.000000   0.000000   0.000000
    17  H    0.000000   0.000000   0.000000   0.000000   0.000000   0.000000
    18  H    0.000000   0.000000   0.000000   0.000000   0.000000   0.000000
    19  H    0.000000   0.000000   0.000000   0.000000   0.000000   0.000000
    20  H    0.000000   0.000000   0.000000   0.000000   0.000000   0.000000
    21  H    0.000000   0.000000   0.000000   0.000000   0.000000   0.000000
    22  O    0.000000   0.000000   0.000000   0.000000   0.000000   0.000000
    23  H    0.000000   0.000000   0.000000   0.000000   0.000000   0.000000
    24  H    0.000000   0.000000   0.000000   0.000000   0.000000   0.000000
    25  O    0.000000   0.000000   0.000000   0.000000   0.000000   0.000000
    26  H    0.000000   0.000000   0.000000   0.000000   0.000000   0.000000
              13         14         15         16         17         18
     1  C    0.000000   0.000000   0.000000   0.000000   0.000000   0.000000
     2  C    0.000000   0.000000   0.000000   0.000000   0.000000   0.000000
     3  C    0.000000   0.000000   0.000000   0.000000   0.000000   0.000000
     4  O    0.000000   0.000000   0.000000   0.000000   0.000000   0.000000
     5  C    0.000000   0.000000   0.000000   0.000000   0.000000   0.000000
     6  C    0.000000   0.000000   0.000000   0.000000   0.000000   0.000000
     7  O    0.000000   0.000000   0.000000   0.000000   0.000000   0.000000
     8  C    0.000000   0.000000   0.000000   0.000000   0.000000   0.000000
     9  C    0.000000   0.000000   0.000000   0.000000   0.000000   0.000000
    10  C    0.000000   0.000000   0.000000   0.000000   0.000000   0.000000
    11  C    0.000000   0.000000   0.000000   0.000000   0.000000   0.000000
    12  C    0.000000   0.000000   0.000000   0.000000   0.000000   0.000000
    13  C    4.024384   0.000000   0.000000   0.000000   0.000000   0.000000
    14  C    0.000000   4.005459   0.000000   0.000000   0.000000   0.000000
    15  C    0.000000   0.000000   4.024385   0.000000   0.000000   0.000000
    16  C    0.000000   0.000000   0.000000   4.005460   0.000000   0.000000
    17  H    0.000000   0.000000   0.000000   0.000000   0.943142   0.000000
    18  H    0.000000   0.000000   0.000000   0.000000   0.000000   0.950994
    19  H    0.000000   0.000000   0.000000   0.000000   0.000000   0.000000
    20  H    0.000000   0.000000   0.000000   0.000000   0.000000   0.000000
    21  H    0.000000   0.000000   0.000000   0.000000   0.000000   0.000000
    22  O    0.000000   0.000000   0.000000   0.000000   0.000000   0.000000
    23  H    0.000000   0.000000   0.000000   0.000000   0.000000   0.000000
    24  H    0.000000   0.000000   0.000000   0.000000   0.000000   0.000000
    25  O    0.000000   0.000000   0.000000   0.000000   0.000000   0.000000
    26  H    0.000000   0.000000   0.000000   0.000000   0.000000   0.000000
              19         20         21         22         23         24
     1  C    0.000000   0.000000   0.000000   0.000000   0.000000   0.000000
     2  C    0.000000   0.000000   0.000000   0.000000   0.000000   0.000000
     3  C    0.000000   0.000000   0.000000   0.000000   0.000000   0.000000
     4  O    0.000000   0.000000   0.000000   0.000000   0.000000   0.000000
     5  C    0.000000   0.000000   0.000000   0.000000   0.000000   0.000000
     6  C    0.000000   0.000000   0.000000   0.000000   0.000000   0.000000
     7  O    0.000000   0.000000   0.000000   0.000000   0.000000   0.000000
     8  C    0.000000   0.000000   0.000000   0.000000   0.000000   0.000000
     9  C    0.000000   0.000000   0.000000   0.000000   0.000000   0.000000
    10  C    0.000000   0.000000   0.000000   0.000000   0.000000   0.000000
    11  C    0.000000   0.000000   0.000000   0.000000   0.000000   0.000000
    12  C    0.000000   0.000000   0.000000   0.000000   0.000000   0.000000
    13  C    0.000000   0.000000   0.000000   0.000000   0.000000   0.000000
    14  C    0.000000   0.000000   0.000000   0.000000   0.000000   0.000000
    15  C    0.000000   0.000000   0.000000   0.000000   0.000000   0.000000
    16  C    0.000000   0.000000   0.000000   0.000000   0.000000   0.000000
    17  H    0.000000   0.000000   0.000000   0.000000   0.000000   0.000000
    18  H    0.000000   0.000000   0.000000   0.000000   0.000000   0.000000
    19  H    0.957515   0.000000   0.000000   0.000000   0.000000   0.000000
    20  H    0.000000   0.957515   0.000000   0.000000   0.000000   0.000000
    21  H    0.000000   0.000000   0.950993   0.000000   0.000000   0.000000
    22  O    0.000000   0.000000   0.000000   6.344549   0.000000   0.000000
    23  H    0.000000   0.000000   0.000000   0.000000   0.757740   0.000000
    24  H    0.000000   0.000000   0.000000   0.000000   0.000000   0.943143
    25  O    0.000000   0.000000   0.000000   0.000000   0.000000   0.000000
    26  H    0.000000   0.000000   0.000000   0.000000   0.000000   0.000000
              25         26
     1  C    0.000000   0.000000
     2  C    0.000000   0.000000
     3  C    0.000000   0.000000
     4  O    0.000000   0.000000
     5  C    0.000000   0.000000
     6  C    0.000000   0.000000
     7  O    0.000000   0.000000
     8  C    0.000000   0.000000
     9  C    0.000000   0.000000
    10  C    0.000000   0.000000
    11  C    0.000000   0.000000
    12  C    0.000000   0.000000
    13  C    0.000000   0.000000
    14  C    0.000000   0.000000
    15  C    0.000000   0.000000
    16  C    0.000000   0.000000
    17  H    0.000000   0.000000
    18  H    0.000000   0.000000
    19  H    0.000000   0.000000
    20  H    0.000000   0.000000
    21  H    0.000000   0.000000
    22  O    0.000000   0.000000
    23  H    0.000000   0.000000
    24  H    0.000000   0.000000
    25  O    6.344575   0.000000
    26  H    0.000000   0.757730
 Mulliken charges:
               1
     1  C    0.326840
     2  C   -0.013055
     3  C   -0.013056
     4  O   -0.528770
     5  C    0.320332
     6  C    0.013945
     7  O   -0.508245
     8  C    0.013947
     9  C    0.187915
    10  C   -0.010096
    11  C   -0.010093
    12  C    0.187922
    13  C   -0.024384
    14  C   -0.005459
    15  C   -0.024385
    16  C   -0.005460
    17  H    0.056858
    18  H    0.049006
    19  H    0.042485
    20  H    0.042485
    21  H    0.049007
    22  O   -0.344549
    23  H    0.242260
    24  H    0.056857
    25  O   -0.344575
    26  H    0.242270
 Sum of Mulliken charges =  -0.00000
 Mulliken charges with hydrogens summed into heavy atoms:
               1
     1  C    0.326840
     2  C   -0.013055
     3  C   -0.013056
     4  O   -0.528770
     5  C    0.320332
     6  C    0.013945
     7  O   -0.508245
     8  C    0.013947
     9  C    0.187915
    10  C    0.046761
    11  C    0.046765
    12  C    0.187922
    13  C    0.024622
    14  C    0.037026
    15  C    0.024621
    16  C    0.037025
    22  O   -0.102290
    25  O   -0.102306
 Charge=             -0.0000 electrons
 Dipole moment (field-independent basis, Debye):
    X=              0.0004    Y=              0.7588    Z=             -0.0031  Tot=              0.7588
 N-N= 4.737295068896D+02 E-N= 0.000000000000D+00  KE=-1.141890417692D+03
 Orbital energies and kinetic energies (alpha):
                                 1                 2
   1         O                -1.754699        -14.314843
   2         O                -1.681048        -13.770656
   3         O                -1.648605        -14.094369
   4         O                -1.546937        -13.513981
   5         O                -1.536028        -13.902794
   6         O                -1.510975        -13.952040
   7         O                -1.354179        -13.837417
   8         O                -1.226064        -13.158009
   9         O                -1.173255        -13.411968
  10         O                -1.144776        -13.038881
  11         O                -1.048483        -12.978794
  12         O                -1.028451        -12.999244
  13         O                -1.002479        -13.361208
  14         O                -0.890025        -12.854836
  15         O                -0.884284        -12.722251
  16         O                -0.864304        -12.955512
  17         O                -0.756647        -12.845194
  18         O                -0.730891        -12.813912
  19         O                -0.727310        -12.989182
  20         O                -0.670770        -12.606842
  21         O                -0.665575        -12.468992
  22         O                -0.654146        -12.680748
  23         O                -0.616273        -12.578251
  24         O                -0.600343        -13.353615
  25         O                -0.582397        -13.323226
  26         O                -0.575276        -12.553923
  27         O                -0.571505        -12.836378
  28         O                -0.553861        -12.757012
  29         O                -0.530560        -11.936311
  30         O                -0.524802        -12.287263
  31         O                -0.519526        -12.874643
  32         O                -0.502903        -12.428538
  33         O                -0.495074        -13.410104
  34         O                -0.493165        -12.255917
  35         O                -0.472516        -12.827431
  36         O                -0.469217        -12.521222
  37         O                -0.467439        -12.384292
  38         O                -0.446015        -12.419159
  39         O                -0.375655        -12.913088
  40         O                -0.364311        -13.257544
  41         O                -0.362184        -12.810772
  42         O                -0.353508        -12.675739
  43         O                -0.335308        -12.659777
  44         O                -0.328231        -12.609333
  45         V                -0.068246        -12.902961
  46         V                -0.018520        -12.584628
  47         V                -0.000403        -12.522875
  48         V                 0.007957        -12.442841
  49         V                 0.044849        -13.005620
  50         V                 0.048420        -12.295103
  51         V                 0.053800        -12.932713
  52         V                 0.081499        -12.431279
  53         V                 0.087360        -12.258428
  54         V                 0.090867        -12.783614
  55         V                 0.105216        -12.820382
  56         V                 0.106106        -11.562268
  57         V                 0.113916        -11.836249
  58         V                 0.122710        -12.037811
  59         V                 0.128935        -12.317862
  60         V                 0.178852        -11.163887
  61         V                 0.180362        -10.715707
  62         V                 0.183541        -11.618271
  63         V                 0.203658        -11.835622
  64         V                 0.233906        -12.446531
  65         V                 0.242317        -11.995219
  66         V                 0.259660        -12.196599
  67         V                 0.265032        -11.786067
  68         V                 0.295667        -11.165506
  69         V                 0.299685        -11.130847
  70         V                 0.342180        -11.978842
  71         V                 0.346125        -11.592972
  72         V                 0.365541        -11.846186
  73         V                 0.395854        -12.621573
  74         V                 0.416088        -12.361768
  75         V                 0.434103        -12.253622
  76         V                 0.436828        -11.616119
  77         V                 0.449560        -11.987372
  78         V                 0.453366        -12.625444
  79         V                 0.483875        -12.346284
  80         V                 0.495912        -12.653224
 Total kinetic energy from orbitals=-1.141890417692D+03
 1\1\GINC-GTX1080DELTA\SP\RZINDO\STO-3G\C14H8O4\MVEROT\12-Apr-2022\0\\#
 n ZINDO(NSTATE=10) pop=full gfinput\\UV-spectra\\0,1\C,0,-0.0056420932
 ,1.4692684839,0.0010211896\C,0,1.2628429089,0.7258194586,0.0005217922\
 C,0,-1.2734590196,0.7247192878,0.0004733302\O,0,-0.0062379328,2.719806
 4037,0.0005616321\C,0,-0.0043873384,-1.4512359811,0.0003499158\C,0,-1.
 2708277218,-0.6882712705,0.0001705391\O,0,-0.0038555414,-2.6912151481,
 -0.000474179\C,0,1.261400608,-0.6871831229,0.000218264\C,0,2.510243024
 6,1.3830418374,0.0003517563\C,0,-2.461288078,-1.4083193736,-0.00030521
 11\C,0,2.4524572025,-1.4062410057,-0.0002130343\C,0,-2.5213813332,1.38
 09063656,0.0002553289\C,0,3.7207034716,0.642532048,-0.0000837935\C,0,3
 .6837614177,-0.7368437373,-0.0003574278\C,0,-3.7312361796,0.6394088163
 ,-0.0002253485\C,0,-3.6931490314,-0.7399392278,-0.0004964298\H,0,2.419
 9923142,-2.5086134619,-0.0004390872\H,0,4.6718703071,1.1963439633,-0.0
 00197121\H,0,4.6197381549,-1.3171190247,-0.0007019762\H,0,-4.628644799
 6,-1.3209897983,-0.0008756847\H,0,-4.6828588435,1.1924379729,-0.000375
 0811\O,0,2.7120769385,2.7320413671,0.000583806\H,0,1.8704940144,3.2156
 411309,0.0008788933\H,0,-2.4279094162,-2.5106648538,-0.0005293372\O,0,
 -2.7242391709,2.7297474682,0.0004773641\H,0,-1.882983863,3.2139214023,
 0.0008098999\\Version=AM64L-G09RevD.01\State=1-A\HF=-132.2557027\RMSD=
 6.755e-09\PG=C01 [X(C14H8O4)]\\@


 OUR LITTLE SYSTEMS HAVE THEIR DAY,    
   THEY HAVE THEIR DAY AND CEASE TO BE.
   THEY ARE BUT BROKEN LIGHTS OF THEE, 
 AND THOU, OH LORD, ART MORE THAN THEY.
          -------------------          
 LET KNOWLEDGE GROW FROM MORE TO MORE, 
   BUT MORE OF REVERENCE IN US DWELL.  
   THAT MIND AND SOUL, ACCORDING WELL, 
 MAY MAKE ONE MUSIC AS BEFORE.....     
          -------------------          
                    LORD TENNYSON      
 Job cpu time:       0 days  0 hours  0 minutes  1.2 seconds.
 File lengths (MBytes):  RWF=    127 Int=      0 D2E=      0 Chk=      5 Scr=      2
 Normal termination of Gaussian 09 at Tue Apr 12 00:35:54 2022.
