 Entering Gaussian System, Link 0=g09
 Input=/scratch/mverot/1-3-propanediol-open-opt/1-3-propanediol-open-opt.com
 Output=/scratch/mverot/1-3-propanediol-open-opt/1-3-propanediol-open-opt.log
 Initial command:
 /opt/g09/l1.exe "/scratch/mverot/1-3-propanediol-open-opt/Gau-1476719.inp" -scrdir="/scratch/mverot/1-3-propanediol-open-opt/"
 Entering Link 1 = /opt/g09/l1.exe PID=   1476721.
  
 Copyright (c) 1988,1990,1992,1993,1995,1998,2003,2009,2013,
            Gaussian, Inc.  All Rights Reserved.
  
 This is part of the Gaussian(R) 09 program.  It is based on
 the Gaussian(R) 03 system (copyright 2003, Gaussian, Inc.),
 the Gaussian(R) 98 system (copyright 1998, Gaussian, Inc.),
 the Gaussian(R) 94 system (copyright 1995, Gaussian, Inc.),
 the Gaussian 92(TM) system (copyright 1992, Gaussian, Inc.),
 the Gaussian 90(TM) system (copyright 1990, Gaussian, Inc.),
 the Gaussian 88(TM) system (copyright 1988, Gaussian, Inc.),
 the Gaussian 86(TM) system (copyright 1986, Carnegie Mellon
 University), and the Gaussian 82(TM) system (copyright 1983,
 Carnegie Mellon University). Gaussian is a federally registered
 trademark of Gaussian, Inc.
  
 This software contains proprietary and confidential information,
 including trade secrets, belonging to Gaussian, Inc.
  
 This software is provided under written license and may be
 used, copied, transmitted, or stored only in accord with that
 written license.
  
 The following legend is applicable only to US Government
 contracts under FAR:
  
                    RESTRICTED RIGHTS LEGEND
  
 Use, reproduction and disclosure by the US Government is
 subject to restrictions as set forth in subparagraphs (a)
 and (c) of the Commercial Computer Software - Restricted
 Rights clause in FAR 52.227-19.
  
 Gaussian, Inc.
 340 Quinnipiac St., Bldg. 40, Wallingford CT 06492
  
  
 ---------------------------------------------------------------
 Warning -- This program may not be used in any manner that
 competes with the business of Gaussian, Inc. or will provide
 assistance to any competitor of Gaussian, Inc.  The licensee
 of this program is prohibited from giving any competitor of
 Gaussian, Inc. access to this program.  By using this program,
 the user acknowledges that Gaussian, Inc. is engaged in the
 business of creating and licensing software in the field of
 computational chemistry and represents and warrants to the
 licensee that it is not a competitor of Gaussian, Inc. and that
 it will not use this program in any manner prohibited above.
 ---------------------------------------------------------------
  

 Cite this work as:
 Gaussian 09, Revision D.01,
 M. J. Frisch, G. W. Trucks, H. B. Schlegel, G. E. Scuseria, 
 M. A. Robb, J. R. Cheeseman, G. Scalmani, V. Barone, B. Mennucci, 
 G. A. Petersson, H. Nakatsuji, M. Caricato, X. Li, H. P. Hratchian, 
 A. F. Izmaylov, J. Bloino, G. Zheng, J. L. Sonnenberg, M. Hada, 
 M. Ehara, K. Toyota, R. Fukuda, J. Hasegawa, M. Ishida, T. Nakajima, 
 Y. Honda, O. Kitao, H. Nakai, T. Vreven, J. A. Montgomery, Jr., 
 J. E. Peralta, F. Ogliaro, M. Bearpark, J. J. Heyd, E. Brothers, 
 K. N. Kudin, V. N. Staroverov, T. Keith, R. Kobayashi, J. Normand, 
 K. Raghavachari, A. Rendell, J. C. Burant, S. S. Iyengar, J. Tomasi, 
 M. Cossi, N. Rega, J. M. Millam, M. Klene, J. E. Knox, J. B. Cross, 
 V. Bakken, C. Adamo, J. Jaramillo, R. Gomperts, R. E. Stratmann, 
 O. Yazyev, A. J. Austin, R. Cammi, C. Pomelli, J. W. Ochterski, 
 R. L. Martin, K. Morokuma, V. G. Zakrzewski, G. A. Voth, 
 P. Salvador, J. J. Dannenberg, S. Dapprich, A. D. Daniels, 
 O. Farkas, J. B. Foresman, J. V. Ortiz, J. Cioslowski, 
 and D. J. Fox, Gaussian, Inc., Wallingford CT, 2013.
 
 ******************************************
 Gaussian 09:  AM64L-G09RevD.01 24-Apr-2013
                17-Apr-2022 
 ******************************************
 %chk=1-3-propanediol-open-opt
 ----------
 #n AM1 Opt
 ----------
 1/14=-1,18=20,19=15,26=1,38=1/1,3;
 2/9=110,12=2,17=6,18=5,40=1/2;
 3/5=2,16=1,25=1,41=700000,71=1/1,2,3;
 4/35=1/1;
 5/5=2,35=1,38=5/2;
 6/7=2,8=2,9=2,10=2,28=1/1;
 7//1,2,3,16;
 1/14=-1,18=20,19=15,26=1/3(2);
 2/9=110/2;
 99//99;
 2/9=110/2;
 3/5=2,16=1,25=1,41=700000,71=1,135=20/1,2,3;
 4/5=5,16=3,35=1/1;
 5/5=2,35=1,38=5/2;
 7//1,2,3,16;
 1/14=-1,18=20,19=15,26=1/3(-5);
 2/9=110/2;
 6/7=2,8=2,9=2,10=2,19=2,28=1/1;
 99/9=1/99;
 -------------------------
 Optimisation de geometrie
 -------------------------
 Symbolic Z-matrix:
 Charge =  0 Multiplicity = 1
 C                     1.35234   2.2671    1.22173 
 O                     0.00813   2.03948   0.8116 
 C                     2.07311   0.92948   1.30359 
 C                     3.47119   1.06237   1.88454 
 O                     4.25953   1.9209    1.07292 
 H                     1.3328    2.76292   2.19737 
 H                     1.82988   2.93046   0.49372 
 H                    -0.4074    2.91344   0.714 
 H                     2.12648   0.50186   0.29456 
 H                     1.48589   0.22668   1.90634 
 H                     3.95461   0.08103   1.92404 
 H                     3.43572   1.47544   2.89774 
 H                     5.165     1.89747   1.42856 
 

 GradGradGradGradGradGradGradGradGradGradGradGradGradGradGradGradGradGrad
 Berny optimization.
 Initialization pass.
                           ----------------------------
                           !    Initial Parameters    !
                           ! (Angstroms and Degrees)  !
 --------------------------                            --------------------------
 ! Name  Definition              Value          Derivative Info.                !
 --------------------------------------------------------------------------------
 ! R1    R(1,2)                  1.4237         estimate D2E/DX2                !
 ! R2    R(1,3)                  1.5217         estimate D2E/DX2                !
 ! R3    R(1,6)                  1.0946         estimate D2E/DX2                !
 ! R4    R(1,7)                  1.0946         estimate D2E/DX2                !
 ! R5    R(2,8)                  0.9726         estimate D2E/DX2                !
 ! R6    R(3,4)                  1.5198         estimate D2E/DX2                !
 ! R7    R(3,9)                  1.0972         estimate D2E/DX2                !
 ! R8    R(3,10)                 1.0964         estimate D2E/DX2                !
 ! R9    R(4,5)                  1.4203         estimate D2E/DX2                !
 ! R10   R(4,11)                 1.0947         estimate D2E/DX2                !
 ! R11   R(4,12)                 1.0947         estimate D2E/DX2                !
 ! R12   R(5,13)                 0.9731         estimate D2E/DX2                !
 ! A1    A(2,1,3)              108.795          estimate D2E/DX2                !
 ! A2    A(2,1,6)              108.2003         estimate D2E/DX2                !
 ! A3    A(2,1,7)              108.4946         estimate D2E/DX2                !
 ! A4    A(3,1,6)              111.0203         estimate D2E/DX2                !
 ! A5    A(3,1,7)              111.2153         estimate D2E/DX2                !
 ! A6    A(6,1,7)              109.0323         estimate D2E/DX2                !
 ! A7    A(1,2,8)              106.7753         estimate D2E/DX2                !
 ! A8    A(1,3,4)              112.2989         estimate D2E/DX2                !
 ! A9    A(1,3,9)              108.4313         estimate D2E/DX2                !
 ! A10   A(1,3,10)             109.8382         estimate D2E/DX2                !
 ! A11   A(4,3,9)              109.9298         estimate D2E/DX2                !
 ! A12   A(4,3,10)             109.7917         estimate D2E/DX2                !
 ! A13   A(9,3,10)             106.3681         estimate D2E/DX2                !
 ! A14   A(3,4,5)              110.1826         estimate D2E/DX2                !
 ! A15   A(3,4,11)             109.9776         estimate D2E/DX2                !
 ! A16   A(3,4,12)             110.9142         estimate D2E/DX2                !
 ! A17   A(5,4,11)             108.5053         estimate D2E/DX2                !
 ! A18   A(5,4,12)             108.5892         estimate D2E/DX2                !
 ! A19   A(11,4,12)            108.6129         estimate D2E/DX2                !
 ! A20   A(4,5,13)             107.0422         estimate D2E/DX2                !
 ! D1    D(3,1,2,8)           -176.4582         estimate D2E/DX2                !
 ! D2    D(6,1,2,8)             62.8277         estimate D2E/DX2                !
 ! D3    D(7,1,2,8)            -55.333          estimate D2E/DX2                !
 ! D4    D(2,1,3,4)           -173.5853         estimate D2E/DX2                !
 ! D5    D(2,1,3,9)             64.7455         estimate D2E/DX2                !
 ! D6    D(2,1,3,10)           -51.1046         estimate D2E/DX2                !
 ! D7    D(6,1,3,4)            -54.6231         estimate D2E/DX2                !
 ! D8    D(6,1,3,9)           -176.2924         estimate D2E/DX2                !
 ! D9    D(6,1,3,10)            67.8576         estimate D2E/DX2                !
 ! D10   D(7,1,3,4)             66.972          estimate D2E/DX2                !
 ! D11   D(7,1,3,9)            -54.6972         estimate D2E/DX2                !
 ! D12   D(7,1,3,10)          -170.5473         estimate D2E/DX2                !
 ! D13   D(1,3,4,5)            -60.3121         estimate D2E/DX2                !
 ! D14   D(1,3,4,11)          -179.8787         estimate D2E/DX2                !
 ! D15   D(1,3,4,12)            59.9569         estimate D2E/DX2                !
 ! D16   D(9,3,4,5)             60.4977         estimate D2E/DX2                !
 ! D17   D(9,3,4,11)           -59.0689         estimate D2E/DX2                !
 ! D18   D(9,3,4,12)          -179.2332         estimate D2E/DX2                !
 ! D19   D(10,3,4,5)           177.1809         estimate D2E/DX2                !
 ! D20   D(10,3,4,11)           57.6143         estimate D2E/DX2                !
 ! D21   D(10,3,4,12)          -62.5501         estimate D2E/DX2                !
 ! D22   D(3,4,5,13)          -174.0016         estimate D2E/DX2                !
 ! D23   D(11,4,5,13)          -53.5453         estimate D2E/DX2                !
 ! D24   D(12,4,5,13)           64.3379         estimate D2E/DX2                !
 --------------------------------------------------------------------------------
 Trust Radius=3.00D-01 FncErr=1.00D-07 GrdErr=1.00D-07
 Number of steps in this run=     66 maximum allowed number of steps=    100.
 GradGradGradGradGradGradGradGradGradGradGradGradGradGradGradGradGradGrad

                          Input orientation:                          
 ---------------------------------------------------------------------
 Center     Atomic      Atomic             Coordinates (Angstroms)
 Number     Number       Type             X           Y           Z
 ---------------------------------------------------------------------
      1          6           0        1.352340    2.267100    1.221730
      2          8           0        0.008130    2.039480    0.811600
      3          6           0        2.073110    0.929480    1.303590
      4          6           0        3.471190    1.062370    1.884540
      5          8           0        4.259530    1.920900    1.072920
      6          1           0        1.332800    2.762920    2.197370
      7          1           0        1.829880    2.930460    0.493720
      8          1           0       -0.407400    2.913440    0.714000
      9          1           0        2.126480    0.501860    0.294560
     10          1           0        1.485890    0.226680    1.906340
     11          1           0        3.954610    0.081030    1.924040
     12          1           0        3.435720    1.475440    2.897740
     13          1           0        5.165000    1.897470    1.428560
 ---------------------------------------------------------------------
                    Distance matrix (angstroms):
                    1          2          3          4          5
     1  C    0.000000
     2  O    1.423699   0.000000
     3  C    1.521656   2.395474   0.000000
     4  C    2.525909   3.754827   1.519799   0.000000
     5  O    2.931510   4.261074   2.411753   1.420310   0.000000
     6  H    1.094574   2.049018   2.169886   2.749990   3.246403
     7  H    1.094573   2.052722   2.172319   2.849217   2.694046
     8  H    1.942223   0.972624   3.230579   4.454221   4.784788
     9  H    2.138927   2.668148   1.097200   2.156491   2.677577
    10  H    2.156349   2.582339   1.096386   2.154128   3.355302
    11  H    3.470440   4.543980   2.155196   1.094661   2.050001
    12  H    2.788585   4.051974   2.167047   1.094742   2.051113
    13  H    3.836115   5.195586   3.242284   1.942756   0.973090
                    6          7          8          9         10
     6  H    0.000000
     7  H    1.782577   0.000000
     8  H    2.291580   2.248163   0.000000
     9  H    3.059903   2.454737   3.523095   0.000000
    10  H    2.557469   3.069894   3.496413   1.756108   0.000000
    11  H    3.760470   3.831389   5.339838   2.484826   2.473076
    12  H    2.563278   3.236529   4.648240   3.072216   2.518752
    13  H    4.003227   3.614418   5.709153   3.530763   4.068865
                   11         12         13
    11  H    0.000000
    12  H    1.778122   0.000000
    13  H    2.238303   2.308031   0.000000
 Stoichiometry    C3H8O2
 Framework group  C1[X(C3H8O2)]
 Deg. of freedom    33
 Full point group                 C1      NOp   1
 Largest Abelian subgroup         C1      NOp   1
 Largest concise Abelian subgroup C1      NOp   1
                         Standard orientation:                         
 ---------------------------------------------------------------------
 Center     Atomic      Atomic             Coordinates (Angstroms)
 Number     Number       Type             X           Y           Z
 ---------------------------------------------------------------------
      1          6           0        0.983047   -0.379238    0.235436
      2          8           0        2.313491   -0.027686   -0.129593
      3          6           0        0.041097    0.724557   -0.222610
      4          6           0       -1.382330    0.506446    0.263262
      5          8           0       -1.889341   -0.721005   -0.240311
      6          1           0        0.947370   -0.499722    1.322774
      7          1           0        0.733981   -1.334242   -0.237874
      8          1           0        2.881201   -0.775410    0.124596
      9          1           0        0.060144    0.764089   -1.318933
     10          1           0        0.408254    1.696314    0.128026
     11          1           0       -2.026219    1.318786   -0.088582
     12          1           0       -1.421900    0.477923    1.356916
     13          1           0       -2.826911   -0.768796    0.015782
 ---------------------------------------------------------------------
 Rotational constants (GHZ):     13.7431319      2.4037000      2.2010294
 Standard basis: VSTO-6G (5D, 7F)
 There are    28 symmetry adapted cartesian basis functions of A   symmetry.
 There are    28 symmetry adapted basis functions of A   symmetry.
    28 basis functions,   168 primitive gaussians,    28 cartesian basis functions
    16 alpha electrons       16 beta electrons
       nuclear repulsion energy       137.0289445819 Hartrees.
 Integral buffers will be    131072 words long.
 Regular integral format.
 Two-electron integral symmetry is turned off.
 Do NDO integrals.
 One-electron integrals computed using PRISM.
 NBasis=    28 RedAO= F EigKep=  0.00D+00  NBF=    28
 NBsUse=    28 1.00D-04 EigRej=  0.00D+00 NBFU=    28
 Simple Huckel Guess.
 Overlap will be assumed to be unity.
 Keep J ints in memory in canonical form, NReq=891302.
 Requested convergence on RMS density matrix=1.00D-08 within 128 cycles.
 Requested convergence on MAX density matrix=1.00D-06.
 Requested convergence on             energy=1.00D-06.
 No special actions if energy rises.
 SCF Done:  E(RAM1) = -0.177860384249     A.U. after   12 cycles
            NFock= 11  Conv=0.94D-08     -V/T= 0.9915

 **********************************************************************

            Population analysis using the SCF density.

 **********************************************************************

 Orbital symmetries:
       Occupied  (A) (A) (A) (A) (A) (A) (A) (A) (A) (A) (A) (A)
                 (A) (A) (A) (A)
       Virtual   (A) (A) (A) (A) (A) (A) (A) (A) (A) (A) (A) (A)
 The electronic state is 1-A.
 Alpha  occ. eigenvalues --   -1.42651  -1.37873  -1.19962  -0.96789  -0.81571
 Alpha  occ. eigenvalues --   -0.68683  -0.66297  -0.61000  -0.57658  -0.54500
 Alpha  occ. eigenvalues --   -0.53150  -0.47379  -0.45886  -0.44766  -0.40611
 Alpha  occ. eigenvalues --   -0.39768
 Alpha virt. eigenvalues --    0.12053   0.12452   0.14267   0.15189   0.15820
 Alpha virt. eigenvalues --    0.16387   0.16637   0.17149   0.18498   0.18888
 Alpha virt. eigenvalues --    0.22394   0.23088
          Condensed to atoms (all electrons):
               1          2          3          4          5          6
     1  C    4.009280   0.000000   0.000000   0.000000   0.000000   0.000000
     2  O    0.000000   6.339910   0.000000   0.000000   0.000000   0.000000
     3  C    0.000000   0.000000   4.157885   0.000000   0.000000   0.000000
     4  C    0.000000   0.000000   0.000000   4.010122   0.000000   0.000000
     5  O    0.000000   0.000000   0.000000   0.000000   6.335342   0.000000
     6  H    0.000000   0.000000   0.000000   0.000000   0.000000   0.944883
     7  H    0.000000   0.000000   0.000000   0.000000   0.000000   0.000000
     8  H    0.000000   0.000000   0.000000   0.000000   0.000000   0.000000
     9  H    0.000000   0.000000   0.000000   0.000000   0.000000   0.000000
    10  H    0.000000   0.000000   0.000000   0.000000   0.000000   0.000000
    11  H    0.000000   0.000000   0.000000   0.000000   0.000000   0.000000
    12  H    0.000000   0.000000   0.000000   0.000000   0.000000   0.000000
    13  H    0.000000   0.000000   0.000000   0.000000   0.000000   0.000000
               7          8          9         10         11         12
     1  C    0.000000   0.000000   0.000000   0.000000   0.000000   0.000000
     2  O    0.000000   0.000000   0.000000   0.000000   0.000000   0.000000
     3  C    0.000000   0.000000   0.000000   0.000000   0.000000   0.000000
     4  C    0.000000   0.000000   0.000000   0.000000   0.000000   0.000000
     5  O    0.000000   0.000000   0.000000   0.000000   0.000000   0.000000
     6  H    0.000000   0.000000   0.000000   0.000000   0.000000   0.000000
     7  H    0.925202   0.000000   0.000000   0.000000   0.000000   0.000000
     8  H    0.000000   0.798675   0.000000   0.000000   0.000000   0.000000
     9  H    0.000000   0.000000   0.898762   0.000000   0.000000   0.000000
    10  H    0.000000   0.000000   0.000000   0.900615   0.000000   0.000000
    11  H    0.000000   0.000000   0.000000   0.000000   0.939675   0.000000
    12  H    0.000000   0.000000   0.000000   0.000000   0.000000   0.941686
    13  H    0.000000   0.000000   0.000000   0.000000   0.000000   0.000000
              13
     1  C    0.000000
     2  O    0.000000
     3  C    0.000000
     4  C    0.000000
     5  O    0.000000
     6  H    0.000000
     7  H    0.000000
     8  H    0.000000
     9  H    0.000000
    10  H    0.000000
    11  H    0.000000
    12  H    0.000000
    13  H    0.797962
 Mulliken charges:
               1
     1  C   -0.009280
     2  O   -0.339910
     3  C   -0.157885
     4  C   -0.010122
     5  O   -0.335342
     6  H    0.055117
     7  H    0.074798
     8  H    0.201325
     9  H    0.101238
    10  H    0.099385
    11  H    0.060325
    12  H    0.058314
    13  H    0.202038
 Sum of Mulliken charges =  -0.00000
 Mulliken charges with hydrogens summed into heavy atoms:
               1
     1  C    0.120635
     2  O   -0.138585
     3  C    0.042738
     4  C    0.108516
     5  O   -0.133304
 Charge=             -0.0000 electrons
 Dipole moment (field-independent basis, Debye):
    X=             -1.3506    Y=             -0.1024    Z=              1.4304  Tot=              1.9700
 N-N= 1.370289445819D+02 E-N=-2.304077245207D+02  KE=-2.083502731701D+01
 Calling FoFJK, ICntrl=      2127 FMM=F ISym2X=0 I1Cent= 0 IOpClX= 0 NMat=1 NMatS=1 NMatT=0.
 ***** Axes restored to original set *****
 -------------------------------------------------------------------
 Center     Atomic                   Forces (Hartrees/Bohr)
 Number     Number              X              Y              Z
 -------------------------------------------------------------------
      1        6          -0.008911753   -0.010696989   -0.002385451
      2        8          -0.004220764   -0.002346722   -0.001354413
      3        6           0.003848983    0.016315541   -0.002708362
      4        6          -0.003657170    0.008971822   -0.011542158
      5        8           0.002103619    0.003983922   -0.004767082
      6        1           0.002580988    0.008114097    0.019390248
      7        1           0.012990307    0.010432996   -0.012616401
      8        1           0.004558546   -0.006090537    0.001005062
      9        1           0.002621903   -0.005614731   -0.016392074
     10        1          -0.007624359   -0.009252755    0.012267551
     11        1           0.006436679   -0.020610115    0.001012536
     12        1          -0.003114193    0.007669856    0.019549316
     13        1          -0.007612785   -0.000876384   -0.001458772
 -------------------------------------------------------------------
 Cartesian Forces:  Max     0.020610115 RMS     0.009208980

 GradGradGradGradGradGradGradGradGradGradGradGradGradGradGradGradGradGrad
 Berny optimization.
 FormGI is forming the generalized inverse of G from B-inverse, IUseBI=4.
 GSVD:  received Info=                   1 from GESDD.
 Internal  Forces:  Max     0.021355597 RMS     0.007351599
 Search for a local minimum.
 Step number   1 out of a maximum of   66
 All quantities printed in internal units (Hartrees-Bohrs-Radians)
 Mixed Optimization -- RFO/linear search
 Second derivative matrix not updated -- first step.
 ITU=  0
     Eigenvalues ---    0.00479   0.00504   0.01378   0.01423   0.03653
     Eigenvalues ---    0.04928   0.05169   0.05298   0.05714   0.05826
     Eigenvalues ---    0.08351   0.11407   0.11492   0.12201   0.13697
     Eigenvalues ---    0.13805   0.16000   0.16000   0.21891   0.22017
     Eigenvalues ---    0.22036   0.30208   0.30386   0.33994   0.34085
     Eigenvalues ---    0.34270   0.34279   0.34289   0.34289   0.41908
     Eigenvalues ---    0.42414   0.52750   0.52844
 RFO step:  Lambda=-9.96193712D-03 EMin= 4.79476882D-03
 Linear search not attempted -- first point.
 Iteration  1 RMS(Cart)=  0.04879338 RMS(Int)=  0.00071021
 Iteration  2 RMS(Cart)=  0.00084084 RMS(Int)=  0.00037373
 Iteration  3 RMS(Cart)=  0.00000071 RMS(Int)=  0.00037373
 Variable       Old X    -DE/DX   Delta X   Delta X   Delta X     New X
                                 (Linear)    (Quad)   (Total)
    R1        2.69040   0.00113   0.00000   0.00264   0.00264   2.69304
    R2        2.87551  -0.00405   0.00000  -0.01297  -0.01297   2.86254
    R3        2.06845   0.02091   0.00000   0.05927   0.05927   2.12771
    R4        2.06844   0.02038   0.00000   0.05776   0.05776   2.12620
    R5        1.83799  -0.00752   0.00000  -0.01397  -0.01397   1.82402
    R6        2.87200  -0.00438   0.00000  -0.01397  -0.01397   2.85804
    R7        2.07341   0.01739   0.00000   0.04970   0.04970   2.12311
    R8        2.07187   0.01676   0.00000   0.04777   0.04777   2.11964
    R9        2.68400   0.00238   0.00000   0.00548   0.00548   2.68948
   R10        2.06861   0.02136   0.00000   0.06054   0.06054   2.12915
   R11        2.06876   0.02109   0.00000   0.05980   0.05980   2.12856
   R12        1.83887  -0.00760   0.00000  -0.01413  -0.01413   1.82474
    A1        1.89883  -0.01126   0.00000  -0.04952  -0.04957   1.84926
    A2        1.88845   0.00577   0.00000   0.03432   0.03368   1.92213
    A3        1.89359   0.00678   0.00000   0.04038   0.03949   1.93307
    A4        1.93767   0.00024   0.00000  -0.00964  -0.00940   1.92827
    A5        1.94107  -0.00133   0.00000  -0.02080  -0.02057   1.92050
    A6        1.90297   0.00017   0.00000   0.00798   0.00712   1.91009
    A7        1.86358  -0.00278   0.00000  -0.01637  -0.01637   1.84721
    A8        1.95999  -0.00509   0.00000  -0.02917  -0.02939   1.93059
    A9        1.89248   0.00204   0.00000   0.01446   0.01440   1.90688
   A10        1.91704   0.00160   0.00000   0.00153   0.00096   1.91800
   A11        1.91864   0.00094   0.00000   0.00276   0.00293   1.92157
   A12        1.91623   0.00017   0.00000  -0.01263  -0.01288   1.90334
   A13        1.85647   0.00069   0.00000   0.02645   0.02637   1.88285
   A14        1.92305  -0.01188   0.00000  -0.05419  -0.05435   1.86870
   A15        1.91947   0.00006   0.00000  -0.00835  -0.00808   1.91140
   A16        1.93582   0.00067   0.00000  -0.00727  -0.00720   1.92861
   A17        1.89378   0.00614   0.00000   0.03512   0.03455   1.92832
   A18        1.89524   0.00525   0.00000   0.02432   0.02358   1.91882
   A19        1.89565   0.00012   0.00000   0.01265   0.01217   1.90783
   A20        1.86824  -0.00326   0.00000  -0.01919  -0.01919   1.84905
    D1       -3.07978   0.00055   0.00000   0.00753   0.00763  -3.07214
    D2        1.09655   0.00344   0.00000   0.02782   0.02885   1.12541
    D3       -0.96574  -0.00370   0.00000  -0.02303  -0.02416  -0.98990
    D4       -3.02964   0.00050   0.00000   0.00627   0.00630  -3.02333
    D5        1.13002   0.00120   0.00000   0.01166   0.01183   1.14185
    D6       -0.89194  -0.00165   0.00000  -0.02890  -0.02885  -0.92079
    D7       -0.95335   0.00066   0.00000   0.01157   0.01162  -0.94174
    D8       -3.07688   0.00136   0.00000   0.01696   0.01715  -3.05974
    D9        1.18434  -0.00148   0.00000  -0.02361  -0.02353   1.16081
   D10        1.16888   0.00012   0.00000   0.00073   0.00048   1.16936
   D11       -0.95465   0.00082   0.00000   0.00611   0.00601  -0.94864
   D12       -2.97661  -0.00202   0.00000  -0.03445  -0.03467  -3.01128
   D13       -1.05264  -0.00014   0.00000  -0.00931  -0.00922  -1.06187
   D14       -3.13948  -0.00032   0.00000  -0.01352  -0.01357   3.13014
   D15        1.04645  -0.00094   0.00000  -0.01919  -0.01890   1.02755
   D16        1.05588  -0.00029   0.00000  -0.00848  -0.00846   1.04743
   D17       -1.03095  -0.00047   0.00000  -0.01269  -0.01281  -1.04375
   D18       -3.12821  -0.00109   0.00000  -0.01836  -0.01813   3.13684
   D19        3.09239   0.00120   0.00000   0.01783   0.01766   3.11005
   D20        1.00556   0.00101   0.00000   0.01363   0.01332   1.01888
   D21       -1.09170   0.00040   0.00000   0.00796   0.00799  -1.08372
   D22       -3.03690  -0.00003   0.00000  -0.00437  -0.00423  -3.04114
   D23       -0.93454  -0.00332   0.00000  -0.02547  -0.02630  -0.96085
   D24        1.12291   0.00318   0.00000   0.02275   0.02345   1.14636
         Item               Value     Threshold  Converged?
 Maximum Force            0.021356     0.000450     NO 
 RMS     Force            0.007352     0.000300     NO 
 Maximum Displacement     0.148205     0.001800     NO 
 RMS     Displacement     0.049084     0.001200     NO 
 Predicted change in Energy=-5.193947D-03
 GradGradGradGradGradGradGradGradGradGradGradGradGradGradGradGradGradGrad

                          Input orientation:                          
 ---------------------------------------------------------------------
 Center     Atomic      Atomic             Coordinates (Angstroms)
 Number     Number       Type             X           Y           Z
 ---------------------------------------------------------------------
      1          6           0        1.381279    2.276378    1.231942
      2          8           0        0.045422    2.015249    0.809817
      3          6           0        2.069598    0.928398    1.293266
      4          6           0        3.452327    1.063262    1.890971
      5          8           0        4.191396    1.933979    1.041764
      6          1           0        1.378642    2.763935    2.246839
      7          1           0        1.908307    2.945238    0.496547
      8          1           0       -0.372887    2.879353    0.709746
      9          1           0        2.137068    0.499335    0.257116
     10          1           0        1.466961    0.220318    1.920631
     11          1           0        3.942145    0.049739    1.938878
     12          1           0        3.392955    1.497682    2.928514
     13          1           0        5.094066    1.935763    1.384678
 ---------------------------------------------------------------------
                    Distance matrix (angstroms):
                    1          2          3          4          5
     1  C    0.000000
     2  O    1.425093   0.000000
     3  C    1.514792   2.347819   0.000000
     4  C    2.489018   3.698942   1.512408   0.000000
     5  O    2.837281   4.153252   2.361456   1.423209   0.000000
     6  H    1.125937   2.098342   2.180806   2.705383   3.170587
     7  H    1.125139   2.105553   2.174493   2.805396   2.555857
     8  H    1.927009   0.965232   3.180008   4.396105   4.672970
     9  H    2.163189   2.641677   1.123502   2.171958   2.625669
    10  H    2.170027   2.544889   1.121666   2.157107   3.336403
    11  H    3.466369   4.508044   2.166862   1.126697   2.101738
    12  H    2.744370   3.995338   2.179310   1.126384   2.094682
    13  H    3.731506   5.081888   3.189130   1.926888   0.965612
                    6          7          8          9         10
     6  H    0.000000
     7  H    1.837645   0.000000
     8  H    2.333202   2.292081   0.000000
     9  H    3.108476   2.468218   3.488443   0.000000
    10  H    2.565969   3.106121   3.452789   1.814987   0.000000
    11  H    3.746097   3.821090   5.304430   2.507741   2.481121
    12  H    2.474981   3.195945   4.584049   3.116138   2.521297
    13  H    3.903020   3.457872   5.588691   3.475422   4.047948
                   11         12         13
    11  H    0.000000
    12  H    1.837805   0.000000
    13  H    2.278409   2.338616   0.000000
 Stoichiometry    C3H8O2
 Framework group  C1[X(C3H8O2)]
 Deg. of freedom    33
 Full point group                 C1      NOp   1
 Largest Abelian subgroup         C1      NOp   1
 Largest concise Abelian subgroup C1      NOp   1
                         Standard orientation:                         
 ---------------------------------------------------------------------
 Center     Atomic      Atomic             Coordinates (Angstroms)
 Number     Number       Type             X           Y           Z
 ---------------------------------------------------------------------
      1          6           0        0.949034   -0.389825    0.255593
      2          8           0        2.268539   -0.020753   -0.136302
      3          6           0        0.042904    0.720114   -0.235893
      4          6           0       -1.368503    0.517955    0.268528
      5          8           0       -1.822547   -0.727783   -0.248681
      6          1           0        0.888738   -0.480498    1.376252
      7          1           0        0.651791   -1.367293   -0.215724
      8          1           0        2.835691   -0.758242    0.120839
      9          1           0        0.052786    0.736438   -1.359232
     10          1           0        0.422720    1.711434    0.126267
     11          1           0       -2.023025    1.358891   -0.097359
     12          1           0       -1.385586    0.495539    1.394560
     13          1           0       -2.751660   -0.797444    0.004897
 ---------------------------------------------------------------------
 Rotational constants (GHZ):     13.3060588      2.5093676      2.2906299
 Standard basis: VSTO-6G (5D, 7F)
 There are    28 symmetry adapted cartesian basis functions of A   symmetry.
 There are    28 symmetry adapted basis functions of A   symmetry.
    28 basis functions,   168 primitive gaussians,    28 cartesian basis functions
    16 alpha electrons       16 beta electrons
       nuclear repulsion energy       137.4678797244 Hartrees.
 Integral buffers will be    131072 words long.
 Regular integral format.
 Two-electron integral symmetry is turned off.
 Do NDO integrals.
 One-electron integrals computed using PRISM.
 NBasis=    28 RedAO= F EigKep=  0.00D+00  NBF=    28
 NBsUse=    28 1.00D-04 EigRej=  0.00D+00 NBFU=    28
 Initial guess from the checkpoint file:  "1-3-propanediol-open-opt.chk"
 B after Tr=     0.000000    0.000000    0.000000
         Rot=    0.999990    0.004231    0.001000   -0.000721 Ang=   0.51 deg.
 Overlap will be assumed to be unity.
 Keep J ints in memory in canonical form, NReq=891302.
 Requested convergence on RMS density matrix=1.00D-08 within 128 cycles.
 Requested convergence on MAX density matrix=1.00D-06.
 Requested convergence on             energy=1.00D-06.
 No special actions if energy rises.
 SCF Done:  E(RAM1) = -0.181759004756     A.U. after   11 cycles
            NFock= 10  Conv=0.46D-08     -V/T= 0.9913
 Calling FoFJK, ICntrl=      2127 FMM=F ISym2X=0 I1Cent= 0 IOpClX= 0 NMat=1 NMatS=1 NMatT=0.
 ***** Axes restored to original set *****
 -------------------------------------------------------------------
 Center     Atomic                   Forces (Hartrees/Bohr)
 Number     Number              X              Y              Z
 -------------------------------------------------------------------
      1        6          -0.005069103   -0.001423162   -0.001527789
      2        8           0.003522249    0.006607897    0.001770482
      3        6          -0.001213801   -0.004070284   -0.000758443
      4        6           0.002390821    0.000179781   -0.001338830
      5        8           0.002769071   -0.003565179    0.005310316
      6        1          -0.001081460   -0.000168650   -0.002457650
      7        1          -0.001844119   -0.000414102    0.001556530
      8        1          -0.000635793   -0.001796566   -0.000396092
      9        1          -0.000074398    0.000747655    0.001681341
     10        1           0.000098693    0.000388499   -0.000577909
     11        1           0.000437580    0.003031947    0.000229979
     12        1           0.001550150   -0.000558269   -0.001997899
     13        1          -0.000849888    0.001040431   -0.001494037
 -------------------------------------------------------------------
 Cartesian Forces:  Max     0.006607897 RMS     0.002293150

 GradGradGradGradGradGradGradGradGradGradGradGradGradGradGradGradGradGrad
 Berny optimization.
 Using GEDIIS/GDIIS optimizer.
 FormGI is forming the generalized inverse of G from B-inverse, IUseBI=4.
 Internal  Forces:  Max     0.006049627 RMS     0.001989338
 Search for a local minimum.
 Step number   2 out of a maximum of   66
 All quantities printed in internal units (Hartrees-Bohrs-Radians)
 Mixed Optimization -- RFO/linear search
 Update second derivatives using D2CorX and points    1    2
 DE= -3.90D-03 DEPred=-5.19D-03 R= 7.51D-01
 TightC=F SS=  1.41D+00  RLast= 2.02D-01 DXNew= 5.0454D-01 6.0454D-01
 Trust test= 7.51D-01 RLast= 2.02D-01 DXMaxT set to 5.05D-01
 ITU=  1  0
 Use linear search instead of GDIIS.
     Eigenvalues ---    0.00479   0.00504   0.01378   0.01423   0.03868
     Eigenvalues ---    0.05042   0.05539   0.05636   0.05926   0.05970
     Eigenvalues ---    0.08031   0.10980   0.11568   0.11960   0.13452
     Eigenvalues ---    0.13558   0.16000   0.16168   0.21912   0.21997
     Eigenvalues ---    0.23855   0.29432   0.30280   0.34009   0.34053
     Eigenvalues ---    0.34271   0.34283   0.34289   0.37247   0.42198
     Eigenvalues ---    0.43731   0.52382   0.52803
 RFO step:  Lambda=-3.85741626D-04 EMin= 4.79385078D-03
 Quartic linear search produced a step of -0.17371.
 Iteration  1 RMS(Cart)=  0.02028954 RMS(Int)=  0.00011084
 Iteration  2 RMS(Cart)=  0.00013197 RMS(Int)=  0.00003074
 Iteration  3 RMS(Cart)=  0.00000001 RMS(Int)=  0.00003074
 Variable       Old X    -DE/DX   Delta X   Delta X   Delta X     New X
                                 (Linear)    (Quad)   (Total)
    R1        2.69304  -0.00399  -0.00046  -0.00730  -0.00776   2.68528
    R2        2.86254   0.00486   0.00225   0.01049   0.01275   2.87529
    R3        2.12771  -0.00229  -0.01030   0.00720  -0.00310   2.12462
    R4        2.12620  -0.00213  -0.01003   0.00726  -0.00278   2.12343
    R5        1.82402  -0.00129   0.00243  -0.00501  -0.00258   1.82144
    R6        2.85804   0.00605   0.00243   0.01343   0.01586   2.87389
    R7        2.12311  -0.00184  -0.00863   0.00618  -0.00245   2.12066
    R8        2.11964  -0.00062  -0.00830   0.00873   0.00043   2.12007
    R9        2.68948  -0.00283  -0.00095  -0.00432  -0.00527   2.68420
   R10        2.12915  -0.00253  -0.01052   0.00689  -0.00363   2.12552
   R11        2.12856  -0.00214  -0.01039   0.00767  -0.00272   2.12584
   R12        1.82474  -0.00132   0.00245  -0.00510  -0.00264   1.82210
    A1        1.84926   0.00517   0.00861   0.01021   0.01880   1.86806
    A2        1.92213  -0.00250  -0.00585  -0.00473  -0.01056   1.91156
    A3        1.93307  -0.00224  -0.00686  -0.00135  -0.00815   1.92493
    A4        1.92827   0.00005   0.00163   0.00265   0.00426   1.93253
    A5        1.92050  -0.00020   0.00357  -0.00092   0.00263   1.92313
    A6        1.91009  -0.00018  -0.00124  -0.00540  -0.00655   1.90354
    A7        1.84721   0.00264   0.00284   0.01011   0.01295   1.86016
    A8        1.93059   0.00269   0.00511   0.00501   0.01015   1.94075
    A9        1.90688  -0.00066  -0.00250   0.00091  -0.00158   1.90530
   A10        1.91800  -0.00105  -0.00017  -0.00365  -0.00373   1.91426
   A11        1.92157  -0.00098  -0.00051  -0.00342  -0.00396   1.91761
   A12        1.90334  -0.00044   0.00224  -0.00202   0.00027   1.90361
   A13        1.88285   0.00038  -0.00458   0.00308  -0.00150   1.88135
   A14        1.86870   0.00462   0.00944   0.00696   0.01641   1.88511
   A15        1.91140   0.00053   0.00140   0.00564   0.00702   1.91842
   A16        1.92861   0.00010   0.00125   0.00403   0.00528   1.93389
   A17        1.92832  -0.00262  -0.00600  -0.00672  -0.01272   1.91560
   A18        1.91882  -0.00219  -0.00410  -0.00504  -0.00911   1.90970
   A19        1.90783  -0.00038  -0.00211  -0.00462  -0.00675   1.90108
   A20        1.84905   0.00275   0.00333   0.01005   0.01338   1.86244
    D1       -3.07214   0.00012  -0.00133   0.00620   0.00485  -3.06730
    D2        1.12541  -0.00162  -0.00501  -0.00037  -0.00546   1.11994
    D3       -0.98990   0.00174   0.00420   0.01045   0.01476  -0.97515
    D4       -3.02333  -0.00016  -0.00109  -0.01062  -0.01172  -3.03506
    D5        1.14185  -0.00023  -0.00206  -0.01016  -0.01225   1.12960
    D6       -0.92079   0.00033   0.00501  -0.01229  -0.00730  -0.92809
    D7       -0.94174  -0.00007  -0.00202  -0.00885  -0.01084  -0.95258
    D8       -3.05974  -0.00014  -0.00298  -0.00838  -0.01137  -3.07110
    D9        1.16081   0.00042   0.00409  -0.01052  -0.00642   1.15439
   D10        1.16936  -0.00039  -0.00008  -0.01448  -0.01454   1.15483
   D11       -0.94864  -0.00046  -0.00104  -0.01401  -0.01506  -0.96370
   D12       -3.01128   0.00010   0.00602  -0.01615  -0.01011  -3.02139
   D13       -1.06187  -0.00029   0.00160  -0.02091  -0.01931  -1.08118
   D14        3.13014  -0.00015   0.00236  -0.02007  -0.01772   3.11242
   D15        1.02755  -0.00008   0.00328  -0.02050  -0.01724   1.01031
   D16        1.04743  -0.00002   0.00147  -0.01876  -0.01729   1.03014
   D17       -1.04375   0.00013   0.00222  -0.01792  -0.01570  -1.05945
   D18        3.13684   0.00020   0.00315  -0.01835  -0.01522   3.12162
   D19        3.11005  -0.00040  -0.00307  -0.01823  -0.02127   3.08878
   D20        1.01888  -0.00025  -0.00231  -0.01739  -0.01968   0.99920
   D21       -1.08372  -0.00018  -0.00139  -0.01782  -0.01920  -1.10292
   D22       -3.04114  -0.00016   0.00074  -0.00448  -0.00375  -3.04489
   D23       -0.96085   0.00178   0.00457   0.00273   0.00732  -0.95353
   D24        1.14636  -0.00181  -0.00407  -0.01064  -0.01472   1.13163
         Item               Value     Threshold  Converged?
 Maximum Force            0.006050     0.000450     NO 
 RMS     Force            0.001989     0.000300     NO 
 Maximum Displacement     0.062920     0.001800     NO 
 RMS     Displacement     0.020260     0.001200     NO 
 Predicted change in Energy=-3.661982D-04
 GradGradGradGradGradGradGradGradGradGradGradGradGradGradGradGradGradGrad

                          Input orientation:                          
 ---------------------------------------------------------------------
 Center     Atomic      Atomic             Coordinates (Angstroms)
 Number     Number       Type             X           Y           Z
 ---------------------------------------------------------------------
      1          6           0        1.363013    2.274453    1.233613
      2          8           0        0.031865    2.027378    0.802098
      3          6           0        2.069447    0.928155    1.292832
      4          6           0        3.462099    1.063671    1.888640
      5          8           0        4.221157    1.914664    1.041746
      6          1           0        1.345346    2.759472    2.247759
      7          1           0        1.887083    2.955853    0.509957
      8          1           0       -0.388997    2.888656    0.701544
      9          1           0        2.137555    0.501949    0.256950
     10          1           0        1.470967    0.214658    1.918446
     11          1           0        3.952401    0.053272    1.950456
     12          1           0        3.413639    1.509409    2.920371
     13          1           0        5.121705    1.917040    1.386299
 ---------------------------------------------------------------------
                    Distance matrix (angstroms):
                    1          2          3          4          5
     1  C    0.000000
     2  O    1.420988   0.000000
     3  C    1.521536   2.366611   0.000000
     4  C    2.510222   3.725024   1.520799   0.000000
     5  O    2.887083   4.197654   2.380357   1.420418   0.000000
     6  H    1.124298   2.085936   2.188590   2.735936   3.230860
     7  H    1.123670   2.095053   2.181217   2.821664   2.610512
     8  H    1.931290   0.963865   3.199552   4.423879   4.724185
     9  H    2.166923   2.656699   1.122204   2.175399   2.636867
    10  H    2.173339   2.569670   1.121895   2.164790   3.349950
    11  H    3.486035   4.537226   2.177936   1.124777   2.088723
    12  H    2.763244   4.023900   2.189428   1.124945   2.084598
    13  H    3.778733   5.124445   3.209814   1.932583   0.964214
                    6          7          8          9         10
     6  H    0.000000
     7  H    1.830846   0.000000
     8  H    2.327105   2.285118   0.000000
     9  H    3.112446   2.479595   3.503926   0.000000
    10  H    2.569106   3.109846   3.477152   1.813131   0.000000
    11  H    3.769435   3.842597   5.333566   2.522487   2.486882
    12  H    2.508566   3.198855   4.613628   3.120446   2.540513
    13  H    3.963923   3.508544   5.637443   3.490424   4.063147
                   11         12         13
    11  H    0.000000
    12  H    1.830664   0.000000
    13  H    2.271382   2.331744   0.000000
 Stoichiometry    C3H8O2
 Framework group  C1[X(C3H8O2)]
 Deg. of freedom    33
 Full point group                 C1      NOp   1
 Largest Abelian subgroup         C1      NOp   1
 Largest concise Abelian subgroup C1      NOp   1
                         Standard orientation:                         
 ---------------------------------------------------------------------
 Center     Atomic      Atomic             Coordinates (Angstroms)
 Number     Number       Type             X           Y           Z
 ---------------------------------------------------------------------
      1          6           0        0.969666   -0.380877    0.258092
      2          8           0        2.286342   -0.025528   -0.141028
      3          6           0        0.042073    0.719575   -0.235516
      4          6           0       -1.376907    0.510563    0.270093
      5          8           0       -1.851561   -0.722649   -0.250945
      6          1           0        0.926432   -0.464941    1.378409
      7          1           0        0.677674   -1.366597   -0.195482
      8          1           0        2.858330   -0.758015    0.114567
      9          1           0        0.049266    0.731713   -1.357631
     10          1           0        0.414993    1.715981    0.120510
     11          1           0       -2.036642    1.350947   -0.081513
     12          1           0       -1.399328    0.475001    1.394251
     13          1           0       -2.777964   -0.794243    0.006660
 ---------------------------------------------------------------------
 Rotational constants (GHZ):     13.4138239      2.4573015      2.2511552
 Standard basis: VSTO-6G (5D, 7F)
 There are    28 symmetry adapted cartesian basis functions of A   symmetry.
 There are    28 symmetry adapted basis functions of A   symmetry.
    28 basis functions,   168 primitive gaussians,    28 cartesian basis functions
    16 alpha electrons       16 beta electrons
       nuclear repulsion energy       137.1312431168 Hartrees.
 Integral buffers will be    131072 words long.
 Regular integral format.
 Two-electron integral symmetry is turned off.
 Do NDO integrals.
 One-electron integrals computed using PRISM.
 NBasis=    28 RedAO= F EigKep=  0.00D+00  NBF=    28
 NBsUse=    28 1.00D-04 EigRej=  0.00D+00 NBFU=    28
 Initial guess from the checkpoint file:  "1-3-propanediol-open-opt.chk"
 B after Tr=     0.000000   -0.000000    0.000000
         Rot=    1.000000   -0.000075   -0.000797   -0.000020 Ang=  -0.09 deg.
 Overlap will be assumed to be unity.
 Keep J ints in memory in canonical form, NReq=891302.
 Requested convergence on RMS density matrix=1.00D-08 within 128 cycles.
 Requested convergence on MAX density matrix=1.00D-06.
 Requested convergence on             energy=1.00D-06.
 No special actions if energy rises.
 SCF Done:  E(RAM1) = -0.182049879022     A.U. after   10 cycles
            NFock=  9  Conv=0.50D-08     -V/T= 0.9912
 Calling FoFJK, ICntrl=      2127 FMM=F ISym2X=0 I1Cent= 0 IOpClX= 0 NMat=1 NMatS=1 NMatT=0.
 ***** Axes restored to original set *****
 -------------------------------------------------------------------
 Center     Atomic                   Forces (Hartrees/Bohr)
 Number     Number              X              Y              Z
 -------------------------------------------------------------------
      1        6           0.000350600   -0.001451720   -0.000001717
      2        8           0.000964596   -0.000372114    0.000373902
      3        6           0.000708033    0.001219196    0.000101820
      4        6          -0.001387136    0.000307286   -0.000786280
      5        8          -0.000802360   -0.000480654   -0.000087609
      6        1           0.000330220   -0.000463265   -0.000574541
      7        1           0.000036940   -0.000488666    0.000730909
      8        1           0.000428894   -0.000089895   -0.000027867
      9        1           0.000093465    0.000839388    0.001146114
     10        1           0.000874529    0.000898882   -0.000373743
     11        1          -0.000890657    0.000659294    0.000142759
     12        1          -0.000274606   -0.000457297   -0.000806863
     13        1          -0.000432517   -0.000120435    0.000163116
 -------------------------------------------------------------------
 Cartesian Forces:  Max     0.001451720 RMS     0.000654940

 GradGradGradGradGradGradGradGradGradGradGradGradGradGradGradGradGradGrad
 Berny optimization.
 Using GEDIIS/GDIIS optimizer.
 FormGI is forming the generalized inverse of G from B-inverse, IUseBI=4.
 Internal  Forces:  Max     0.004014967 RMS     0.000876562
 Search for a local minimum.
 Step number   3 out of a maximum of   66
 All quantities printed in internal units (Hartrees-Bohrs-Radians)
 Mixed Optimization -- En-DIIS/RFO-DIIS
 Update second derivatives using D2CorX and points    1    2    3
 DE= -2.91D-04 DEPred=-3.66D-04 R= 7.94D-01
 TightC=F SS=  1.41D+00  RLast= 8.35D-02 DXNew= 8.4853D-01 2.5054D-01
 Trust test= 7.94D-01 RLast= 8.35D-02 DXMaxT set to 5.05D-01
 ITU=  1  1  0
 Use linear search instead of GDIIS.
     Eigenvalues ---    0.00465   0.00492   0.01373   0.01421   0.03813
     Eigenvalues ---    0.05031   0.05414   0.05501   0.05826   0.05892
     Eigenvalues ---    0.08123   0.11142   0.11820   0.12029   0.13539
     Eigenvalues ---    0.13639   0.16000   0.16237   0.21940   0.21964
     Eigenvalues ---    0.23433   0.30275   0.33956   0.34039   0.34267
     Eigenvalues ---    0.34275   0.34289   0.34929   0.40005   0.42276
     Eigenvalues ---    0.48224   0.51982   0.52805
 RFO step:  Lambda=-8.77713504D-05 EMin= 4.64526603D-03
 Quartic linear search produced a step of -0.17321.
 Iteration  1 RMS(Cart)=  0.01035636 RMS(Int)=  0.00004810
 Iteration  2 RMS(Cart)=  0.00005880 RMS(Int)=  0.00000740
 Iteration  3 RMS(Cart)=  0.00000000 RMS(Int)=  0.00000740
 Variable       Old X    -DE/DX   Delta X   Delta X   Delta X     New X
                                 (Linear)    (Quad)   (Total)
    R1        2.68528  -0.00133   0.00134  -0.00501  -0.00367   2.68161
    R2        2.87529  -0.00354  -0.00221  -0.00516  -0.00737   2.86792
    R3        2.12462  -0.00072   0.00054  -0.00273  -0.00219   2.12242
    R4        2.12343  -0.00075   0.00048  -0.00268  -0.00220   2.12122
    R5        1.82144  -0.00026   0.00045  -0.00121  -0.00076   1.82068
    R6        2.87389  -0.00401  -0.00275  -0.00535  -0.00810   2.86580
    R7        2.12066  -0.00137   0.00042  -0.00403  -0.00361   2.11705
    R8        2.12007  -0.00125  -0.00007  -0.00281  -0.00288   2.11719
    R9        2.68420  -0.00107   0.00091  -0.00369  -0.00278   2.68142
   R10        2.12552  -0.00097   0.00063  -0.00348  -0.00285   2.12267
   R11        2.12584  -0.00091   0.00047  -0.00304  -0.00257   2.12327
   R12        1.82210  -0.00035   0.00046  -0.00135  -0.00089   1.82121
    A1        1.86806  -0.00069  -0.00326   0.00377   0.00052   1.86858
    A2        1.91156   0.00048   0.00183  -0.00037   0.00147   1.91303
    A3        1.92493   0.00048   0.00141   0.00032   0.00175   1.92668
    A4        1.93253  -0.00011  -0.00074  -0.00019  -0.00093   1.93160
    A5        1.92313  -0.00011  -0.00046  -0.00081  -0.00127   1.92186
    A6        1.90354  -0.00004   0.00113  -0.00260  -0.00146   1.90208
    A7        1.86016  -0.00057  -0.00224   0.00131  -0.00093   1.85923
    A8        1.94075  -0.00083  -0.00176  -0.00077  -0.00253   1.93822
    A9        1.90530   0.00024   0.00027   0.00021   0.00048   1.90578
   A10        1.91426   0.00026   0.00065  -0.00062   0.00002   1.91429
   A11        1.91761   0.00017   0.00069  -0.00131  -0.00062   1.91699
   A12        1.90361   0.00012  -0.00005  -0.00059  -0.00064   1.90297
   A13        1.88135   0.00007   0.00026   0.00321   0.00347   1.88482
   A14        1.88511  -0.00094  -0.00284   0.00193  -0.00091   1.88420
   A15        1.91842  -0.00014  -0.00122   0.00037  -0.00085   1.91757
   A16        1.93389  -0.00009  -0.00091  -0.00002  -0.00093   1.93296
   A17        1.91560   0.00061   0.00220  -0.00053   0.00169   1.91729
   A18        1.90970   0.00056   0.00158   0.00014   0.00174   1.91144
   A19        1.90108   0.00001   0.00117  -0.00187  -0.00069   1.90039
   A20        1.86244  -0.00057  -0.00232   0.00146  -0.00086   1.86158
    D1       -3.06730   0.00010  -0.00084   0.00668   0.00584  -3.06145
    D2        1.11994   0.00036   0.00095   0.00490   0.00583   1.12577
    D3       -0.97515  -0.00019  -0.00256   0.00816   0.00561  -0.96953
    D4       -3.03506  -0.00004   0.00203  -0.01212  -0.01009  -3.04514
    D5        1.12960   0.00012   0.00212  -0.01012  -0.00800   1.12161
    D6       -0.92809  -0.00025   0.00126  -0.01377  -0.01250  -0.94059
    D7       -0.95258   0.00006   0.00188  -0.01039  -0.00852  -0.96110
    D8       -3.07110   0.00022   0.00197  -0.00840  -0.00643  -3.07754
    D9        1.15439  -0.00016   0.00111  -0.01204  -0.01093   1.14345
   D10        1.15483  -0.00013   0.00252  -0.01431  -0.01179   1.14304
   D11       -0.96370   0.00003   0.00261  -0.01231  -0.00970  -0.97340
   D12       -3.02139  -0.00035   0.00175  -0.01596  -0.01420  -3.03560
   D13       -1.08118  -0.00007   0.00334  -0.01823  -0.01489  -1.09607
   D14        3.11242  -0.00016   0.00307  -0.01897  -0.01589   3.09653
   D15        1.01031  -0.00002   0.00299  -0.01686  -0.01388   0.99643
   D16        1.03014  -0.00020   0.00299  -0.01936  -0.01636   1.01378
   D17       -1.05945  -0.00029   0.00272  -0.02009  -0.01736  -1.07681
   D18        3.12162  -0.00015   0.00264  -0.01799  -0.01535   3.10627
   D19        3.08878   0.00006   0.00368  -0.01658  -0.01289   3.07589
   D20        0.99920  -0.00003   0.00341  -0.01731  -0.01390   0.98530
   D21       -1.10292   0.00011   0.00333  -0.01521  -0.01189  -1.11480
   D22       -3.04489  -0.00005   0.00065  -0.00436  -0.00371  -3.04860
   D23       -0.95353  -0.00043  -0.00127  -0.00306  -0.00431  -0.95784
   D24        1.13163   0.00030   0.00255  -0.00559  -0.00305   1.12858
         Item               Value     Threshold  Converged?
 Maximum Force            0.004015     0.000450     NO 
 RMS     Force            0.000877     0.000300     NO 
 Maximum Displacement     0.033401     0.001800     NO 
 RMS     Displacement     0.010356     0.001200     NO 
 Predicted change in Energy=-5.847931D-05
 GradGradGradGradGradGradGradGradGradGradGradGradGradGradGradGradGradGrad

                          Input orientation:                          
 ---------------------------------------------------------------------
 Center     Atomic      Atomic             Coordinates (Angstroms)
 Number     Number       Type             X           Y           Z
 ---------------------------------------------------------------------
      1          6           0        1.363563    2.270920    1.239651
      2          8           0        0.037902    2.026322    0.796382
      3          6           0        2.070016    0.928791    1.292952
      4          6           0        3.458688    1.067330    1.886425
      5          8           0        4.218320    1.906628    1.030884
      6          1           0        1.339155    2.746816    2.256689
      7          1           0        1.893502    2.958094    0.527632
      8          1           0       -0.380626    2.888202    0.695108
      9          1           0        2.139576    0.507804    0.257100
     10          1           0        1.475293    0.213908    1.917833
     11          1           0        3.944882    0.057412    1.960040
     12          1           0        3.409536    1.522925    2.912321
     13          1           0        5.117473    1.913479    1.377692
 ---------------------------------------------------------------------
                    Distance matrix (angstroms):
                    1          2          3          4          5
     1  C    0.000000
     2  O    1.419047   0.000000
     3  C    1.517639   2.362339   0.000000
     4  C    2.501299   3.716132   1.516514   0.000000
     5  O    2.885469   4.188701   2.374880   1.418948   0.000000
     6  H    1.123139   2.084435   2.183612   2.729504   3.240078
     7  H    1.122503   2.093723   2.175993   2.805551   2.600697
     8  H    1.928669   0.963462   3.194114   4.413066   4.714504
     9  H    2.162448   2.648350   1.120294   2.169753   2.622334
    10  H    2.168804   2.570718   1.120370   2.159438   3.343080
    11  H    3.475885   4.527162   2.172424   1.123270   2.087510
    12  H    2.746512   4.012297   2.183956   1.123586   2.083546
    13  H    3.773414   5.113970   3.203714   1.930374   0.963742
                    6          7          8          9         10
     6  H    0.000000
     7  H    1.827998   0.000000
     8  H    2.327268   2.281357   0.000000
     9  H    3.106800   2.477431   3.494219   0.000000
    10  H    2.559098   3.104531   3.477261   1.812645   0.000000
    11  H    3.756421   3.830653   5.321977   2.522298   2.474902
    12  H    2.492838   3.169355   4.598407   3.113434   2.538470
    13  H    3.967716   3.493968   5.625398   3.478437   4.055338
                   11         12         13
    11  H    0.000000
    12  H    1.827884   0.000000
    13  H    2.271361   2.329091   0.000000
 Stoichiometry    C3H8O2
 Framework group  C1[X(C3H8O2)]
 Deg. of freedom    33
 Full point group                 C1      NOp   1
 Largest Abelian subgroup         C1      NOp   1
 Largest concise Abelian subgroup C1      NOp   1
                         Standard orientation:                         
 ---------------------------------------------------------------------
 Center     Atomic      Atomic             Coordinates (Angstroms)
 Number     Number       Type             X           Y           Z
 ---------------------------------------------------------------------
      1          6           0        0.968211   -0.374204    0.266341
      2          8           0        2.281076   -0.029074   -0.147137
      3          6           0        0.041425    0.716878   -0.237478
      4          6           0       -1.372172    0.508454    0.270576
      5          8           0       -1.848721   -0.720876   -0.253887
      6          1           0        0.930996   -0.439881    1.386940
      7          1           0        0.669375   -1.365366   -0.167604
      8          1           0        2.851381   -0.761054    0.112128
      9          1           0        0.046680    0.716327   -1.357760
     10          1           0        0.410904    1.715922    0.109834
     11          1           0       -2.029993    1.351003   -0.074559
     12          1           0       -1.389987    0.469643    1.393350
     13          1           0       -2.772981   -0.793765    0.009228
 ---------------------------------------------------------------------
 Rotational constants (GHZ):     13.4477262      2.4662817      2.2621489
 Standard basis: VSTO-6G (5D, 7F)
 There are    28 symmetry adapted cartesian basis functions of A   symmetry.
 There are    28 symmetry adapted basis functions of A   symmetry.
    28 basis functions,   168 primitive gaussians,    28 cartesian basis functions
    16 alpha electrons       16 beta electrons
       nuclear repulsion energy       137.2759506237 Hartrees.
 Integral buffers will be    131072 words long.
 Regular integral format.
 Two-electron integral symmetry is turned off.
 Do NDO integrals.
 One-electron integrals computed using PRISM.
 NBasis=    28 RedAO= F EigKep=  0.00D+00  NBF=    28
 NBsUse=    28 1.00D-04 EigRej=  0.00D+00 NBFU=    28
 Initial guess from the checkpoint file:  "1-3-propanediol-open-opt.chk"
 B after Tr=    -0.000000   -0.000000   -0.000000
         Rot=    0.999997    0.002257   -0.000250    0.000116 Ang=   0.26 deg.
 Overlap will be assumed to be unity.
 Keep J ints in memory in canonical form, NReq=891302.
 Requested convergence on RMS density matrix=1.00D-08 within 128 cycles.
 Requested convergence on MAX density matrix=1.00D-06.
 Requested convergence on             energy=1.00D-06.
 No special actions if energy rises.
 SCF Done:  E(RAM1) = -0.182107866698     A.U. after   10 cycles
            NFock=  9  Conv=0.51D-08     -V/T= 0.9912
 Calling FoFJK, ICntrl=      2127 FMM=F ISym2X=0 I1Cent= 0 IOpClX= 0 NMat=1 NMatS=1 NMatT=0.
 ***** Axes restored to original set *****
 -------------------------------------------------------------------
 Center     Atomic                   Forces (Hartrees/Bohr)
 Number     Number              X              Y              Z
 -------------------------------------------------------------------
      1        6           0.000104116    0.000490710    0.000051465
      2        8          -0.000824469   -0.000535796   -0.000173249
      3        6          -0.000241748   -0.000470344   -0.000144789
      4        6           0.000326420   -0.000179305    0.000498303
      5        8           0.000227320    0.000441646   -0.000882134
      6        1           0.000099147    0.000115226    0.000323133
      7        1           0.000335593    0.000276014    0.000005632
      8        1          -0.000005443    0.000196005   -0.000138992
      9        1          -0.000086818    0.000004461   -0.000162241
     10        1           0.000091399   -0.000096511    0.000000086
     11        1          -0.000077404   -0.000305583    0.000224422
     12        1          -0.000041133    0.000028161    0.000247560
     13        1           0.000093020    0.000035315    0.000150806
 -------------------------------------------------------------------
 Cartesian Forces:  Max     0.000882134 RMS     0.000305315

 GradGradGradGradGradGradGradGradGradGradGradGradGradGradGradGradGradGrad
 Berny optimization.
 Using GEDIIS/GDIIS optimizer.
 FormGI is forming the generalized inverse of G from B-inverse, IUseBI=4.
 Internal  Forces:  Max     0.000931401 RMS     0.000240873
 Search for a local minimum.
 Step number   4 out of a maximum of   66
 All quantities printed in internal units (Hartrees-Bohrs-Radians)
 Mixed Optimization -- En-DIIS/RFO-DIIS
 Swapping is turned off.
 Update second derivatives using D2CorX and points    1    2    3    4
 DE= -5.80D-05 DEPred=-5.85D-05 R= 9.92D-01
 TightC=F SS=  1.41D+00  RLast= 5.77D-02 DXNew= 8.4853D-01 1.7317D-01
 Trust test= 9.92D-01 RLast= 5.77D-02 DXMaxT set to 5.05D-01
 ITU=  1  1  1  0
     Eigenvalues ---    0.00333   0.00488   0.01336   0.01415   0.03835
     Eigenvalues ---    0.05039   0.05419   0.05496   0.05701   0.05901
     Eigenvalues ---    0.08092   0.11128   0.11837   0.12026   0.13534
     Eigenvalues ---    0.13638   0.16000   0.16276   0.21932   0.21985
     Eigenvalues ---    0.24386   0.30277   0.33629   0.33891   0.34255
     Eigenvalues ---    0.34267   0.34289   0.34700   0.42121   0.43665
     Eigenvalues ---    0.51664   0.52799   0.60867
 En-DIIS/RFO-DIIS IScMMF=        0 using points:     4    3
 RFO step:  Lambda=-5.77547955D-06.
 DidBck=F Rises=F RFO-DIIS coefs:    0.99941    0.00059
 Iteration  1 RMS(Cart)=  0.01259388 RMS(Int)=  0.00008078
 Iteration  2 RMS(Cart)=  0.00010079 RMS(Int)=  0.00000047
 Iteration  3 RMS(Cart)=  0.00000001 RMS(Int)=  0.00000047
 Variable       Old X    -DE/DX   Delta X   Delta X   Delta X     New X
                                 (Linear)    (Quad)   (Total)
    R1        2.68161   0.00093   0.00000   0.00071   0.00072   2.68233
    R2        2.86792   0.00061   0.00000   0.00055   0.00055   2.86848
    R3        2.12242   0.00034   0.00000   0.00042   0.00042   2.12284
    R4        2.12122   0.00032   0.00000   0.00038   0.00038   2.12160
    R5        1.82068   0.00019   0.00000  -0.00007  -0.00007   1.82061
    R6        2.86580   0.00058   0.00000   0.00039   0.00039   2.86619
    R7        2.11705   0.00014   0.00000  -0.00058  -0.00058   2.11647
    R8        2.11719   0.00001   0.00000  -0.00059  -0.00059   2.11660
    R9        2.68142   0.00089   0.00000   0.00102   0.00102   2.68245
   R10        2.12267   0.00026   0.00000  -0.00005  -0.00005   2.12262
   R11        2.12327   0.00024   0.00000   0.00003   0.00003   2.12330
   R12        1.82121   0.00014   0.00000  -0.00021  -0.00021   1.82100
    A1        1.86858  -0.00022  -0.00000   0.00034   0.00034   1.86891
    A2        1.91303   0.00016  -0.00000   0.00130   0.00130   1.91433
    A3        1.92668   0.00018  -0.00000   0.00187   0.00187   1.92854
    A4        1.93160  -0.00001   0.00000  -0.00058  -0.00058   1.93103
    A5        1.92186  -0.00003   0.00000  -0.00088  -0.00088   1.92099
    A6        1.90208  -0.00008   0.00000  -0.00197  -0.00197   1.90011
    A7        1.85923  -0.00008   0.00000  -0.00006  -0.00006   1.85917
    A8        1.93822  -0.00000   0.00000  -0.00021  -0.00021   1.93801
    A9        1.90578  -0.00002  -0.00000  -0.00006  -0.00006   1.90572
   A10        1.91429   0.00003  -0.00000   0.00010   0.00010   1.91439
   A11        1.91699   0.00003   0.00000  -0.00013  -0.00013   1.91686
   A12        1.90297  -0.00003   0.00000  -0.00040  -0.00040   1.90257
   A13        1.88482  -0.00001  -0.00000   0.00072   0.00072   1.88554
   A14        1.88420  -0.00028   0.00000  -0.00055  -0.00055   1.88365
   A15        1.91757  -0.00004   0.00000  -0.00062  -0.00062   1.91695
   A16        1.93296   0.00001   0.00000  -0.00035  -0.00035   1.93261
   A17        1.91729   0.00020  -0.00000   0.00152   0.00152   1.91881
   A18        1.91144   0.00018  -0.00000   0.00162   0.00162   1.91306
   A19        1.90039  -0.00007   0.00000  -0.00157  -0.00157   1.89882
   A20        1.86158  -0.00012   0.00000  -0.00027  -0.00027   1.86131
    D1       -3.06145   0.00008  -0.00000   0.00787   0.00786  -3.05359
    D2        1.12577   0.00014  -0.00000   0.00763   0.00763   1.13340
    D3       -0.96953   0.00002  -0.00000   0.00807   0.00807  -0.96146
    D4       -3.04514  -0.00003   0.00001  -0.01397  -0.01396  -3.05910
    D5        1.12161  -0.00005   0.00000  -0.01363  -0.01363   1.10798
    D6       -0.94059  -0.00004   0.00001  -0.01454  -0.01453  -0.95512
    D7       -0.96110   0.00002   0.00001  -0.01252  -0.01251  -0.97361
    D8       -3.07754  -0.00000   0.00000  -0.01219  -0.01218  -3.08972
    D9        1.14345   0.00001   0.00001  -0.01309  -0.01308   1.13037
   D10        1.14304  -0.00010   0.00001  -0.01592  -0.01592   1.12712
   D11       -0.97340  -0.00013   0.00001  -0.01559  -0.01559  -0.98898
   D12       -3.03560  -0.00012   0.00001  -0.01650  -0.01649  -3.05208
   D13       -1.09607  -0.00006   0.00001  -0.01968  -0.01967  -1.11574
   D14        3.09653  -0.00012   0.00001  -0.02083  -0.02082   3.07571
   D15        0.99643  -0.00001   0.00001  -0.01824  -0.01824   0.97819
   D16        1.01378  -0.00007   0.00001  -0.01997  -0.01996   0.99382
   D17       -1.07681  -0.00012   0.00001  -0.02112  -0.02111  -1.09792
   D18        3.10627  -0.00001   0.00001  -0.01854  -0.01853   3.08774
   D19        3.07589  -0.00008   0.00001  -0.01941  -0.01940   3.05649
   D20        0.98530  -0.00014   0.00001  -0.02056  -0.02055   0.96475
   D21       -1.11480  -0.00003   0.00001  -0.01797  -0.01797  -1.13277
   D22       -3.04860  -0.00004   0.00000  -0.00501  -0.00501  -3.05361
   D23       -0.95784  -0.00013   0.00000  -0.00522  -0.00521  -0.96305
   D24        1.12858   0.00001   0.00000  -0.00521  -0.00521   1.12337
         Item               Value     Threshold  Converged?
 Maximum Force            0.000931     0.000450     NO 
 RMS     Force            0.000241     0.000300     YES
 Maximum Displacement     0.041135     0.001800     NO 
 RMS     Displacement     0.012591     0.001200     NO 
 Predicted change in Energy=-1.330013D-05
 GradGradGradGradGradGradGradGradGradGradGradGradGradGradGradGradGradGrad

                          Input orientation:                          
 ---------------------------------------------------------------------
 Center     Atomic      Atomic             Coordinates (Angstroms)
 Number     Number       Type             X           Y           Z
 ---------------------------------------------------------------------
      1          6           0        1.359677    2.270083    1.246983
      2          8           0        0.039266    2.026126    0.786799
      3          6           0        2.070436    0.929641    1.293394
      4          6           0        3.459784    1.070198    1.885339
      5          8           0        4.222990    1.894607    1.017689
      6          1           0        1.324325    2.735127    2.268952
      7          1           0        1.896674    2.966845    0.549400
      8          1           0       -0.378562    2.888077    0.683599
      9          1           0        2.139855    0.513640    0.255853
     10          1           0        1.479453    0.210570    1.916453
     11          1           0        3.940417    0.058847    1.973856
     12          1           0        3.411939    1.538789    2.905447
     13          1           0        5.121027    1.906082    1.366947
 ---------------------------------------------------------------------
                    Distance matrix (angstroms):
                    1          2          3          4          5
     1  C    0.000000
     2  O    1.419426   0.000000
     3  C    1.517932   2.363171   0.000000
     4  C    2.501533   3.717598   1.516720   0.000000
     5  O    2.896916   4.192155   2.375008   1.419490   0.000000
     6  H    1.123359   2.085866   2.183615   2.734836   3.267169
     7  H    1.122705   2.095537   2.175758   2.797376   2.603985
     8  H    1.928935   0.963425   3.194513   4.413814   4.719415
     9  H    2.162431   2.642346   1.119986   2.169607   2.612837
    10  H    2.168901   2.578081   1.120057   2.159083   3.342268
    11  H    3.475361   4.527503   2.172128   1.123244   2.089047
    12  H    2.738078   4.012617   2.183896   1.123604   2.085196
    13  H    3.780826   5.116178   3.203896   1.930586   0.963630
                    6          7          8          9         10
     6  H    0.000000
     7  H    1.827056   0.000000
     8  H    2.331644   2.280551   0.000000
     9  H    3.106873   2.482644   3.487598   0.000000
    10  H    2.553764   3.104828   3.484421   1.812616   0.000000
    11  H    3.754130   3.829153   5.321925   2.529901   2.466306
    12  H    2.488871   3.144253   4.596203   3.112793   2.544951
    13  H    3.989470   3.491426   5.628211   3.472868   4.054354
                   11         12         13
    11  H    0.000000
    12  H    1.826850   0.000000
    13  H    2.274743   2.328706   0.000000
 Stoichiometry    C3H8O2
 Framework group  C1[X(C3H8O2)]
 Deg. of freedom    33
 Full point group                 C1      NOp   1
 Largest Abelian subgroup         C1      NOp   1
 Largest concise Abelian subgroup C1      NOp   1
                         Standard orientation:                         
 ---------------------------------------------------------------------
 Center     Atomic      Atomic             Coordinates (Angstroms)
 Number     Number       Type             X           Y           Z
 ---------------------------------------------------------------------
      1          6           0        0.972060   -0.367349    0.278176
      2          8           0        2.281416   -0.032820   -0.155930
      3          6           0        0.040865    0.713855   -0.239503
      4          6           0       -1.371913    0.506389    0.271824
      5          8           0       -1.852872   -0.719345   -0.258463
      6          1           0        0.944719   -0.409488    1.400412
      7          1           0        0.665945   -1.367314   -0.130271
      8          1           0        2.852175   -0.763116    0.106920
      9          1           0        0.045633    0.698609   -1.359375
     10          1           0        0.406133    1.718402    0.095148
     11          1           0       -2.027694    1.353455   -0.065972
     12          1           0       -1.386200    0.463014    1.394500
     13          1           0       -2.775133   -0.793612    0.010799
 ---------------------------------------------------------------------
 Rotational constants (GHZ):     13.4469206      2.4594741      2.2605015
 Standard basis: VSTO-6G (5D, 7F)
 There are    28 symmetry adapted cartesian basis functions of A   symmetry.
 There are    28 symmetry adapted basis functions of A   symmetry.
    28 basis functions,   168 primitive gaussians,    28 cartesian basis functions
    16 alpha electrons       16 beta electrons
       nuclear repulsion energy       137.2428951942 Hartrees.
 Integral buffers will be    131072 words long.
 Regular integral format.
 Two-electron integral symmetry is turned off.
 Do NDO integrals.
 One-electron integrals computed using PRISM.
 NBasis=    28 RedAO= F EigKep=  0.00D+00  NBF=    28
 NBsUse=    28 1.00D-04 EigRej=  0.00D+00 NBFU=    28
 Initial guess from the checkpoint file:  "1-3-propanediol-open-opt.chk"
 B after Tr=     0.000000   -0.000000   -0.000000
         Rot=    0.999996    0.002720   -0.000353    0.000075 Ang=   0.31 deg.
 Overlap will be assumed to be unity.
 Keep J ints in memory in canonical form, NReq=891302.
 Requested convergence on RMS density matrix=1.00D-08 within 128 cycles.
 Requested convergence on MAX density matrix=1.00D-06.
 Requested convergence on             energy=1.00D-06.
 No special actions if energy rises.
 SCF Done:  E(RAM1) = -0.182129144719     A.U. after   10 cycles
            NFock=  9  Conv=0.74D-08     -V/T= 0.9912
 Calling FoFJK, ICntrl=      2127 FMM=F ISym2X=0 I1Cent= 0 IOpClX= 0 NMat=1 NMatS=1 NMatT=0.
 ***** Axes restored to original set *****
 -------------------------------------------------------------------
 Center     Atomic                   Forces (Hartrees/Bohr)
 Number     Number              X              Y              Z
 -------------------------------------------------------------------
      1        6           0.000191905    0.000387897    0.000039919
      2        8          -0.000141669   -0.000372594    0.000066103
      3        6          -0.000210131   -0.000111781   -0.000032374
      4        6           0.000230263    0.000026842    0.000274386
      5        8          -0.000162998   -0.000025894   -0.000340393
      6        1          -0.000171662    0.000002027    0.000194909
      7        1           0.000064096    0.000142831   -0.000092543
      8        1           0.000001397    0.000219633   -0.000116684
      9        1          -0.000088745   -0.000092339   -0.000341600
     10        1          -0.000049821   -0.000195756    0.000050152
     11        1           0.000103876   -0.000200444    0.000016901
     12        1           0.000066764    0.000185260    0.000116271
     13        1           0.000166726    0.000034316    0.000164954
 -------------------------------------------------------------------
 Cartesian Forces:  Max     0.000387897 RMS     0.000173982

 GradGradGradGradGradGradGradGradGradGradGradGradGradGradGradGradGradGrad
 Berny optimization.
 Using GEDIIS/GDIIS optimizer.
 FormGI is forming the generalized inverse of G from B-inverse, IUseBI=4.
 Internal  Forces:  Max     0.000463101 RMS     0.000134037
 Search for a local minimum.
 Step number   5 out of a maximum of   66
 All quantities printed in internal units (Hartrees-Bohrs-Radians)
 Mixed Optimization -- En-DIIS/RFO-DIIS
 Swapping is turned off.
 Update second derivatives using D2CorX and points    1    2    3    4    5
 DE= -2.13D-05 DEPred=-1.33D-05 R= 1.60D+00
 TightC=F SS=  1.41D+00  RLast= 7.47D-02 DXNew= 8.4853D-01 2.2420D-01
 Trust test= 1.60D+00 RLast= 7.47D-02 DXMaxT set to 5.05D-01
 ITU=  1  1  1  1  0
     Eigenvalues ---    0.00098   0.00488   0.01283   0.01412   0.03843
     Eigenvalues ---    0.05090   0.05419   0.05489   0.05905   0.07006
     Eigenvalues ---    0.08121   0.11122   0.12000   0.12630   0.13550
     Eigenvalues ---    0.13642   0.16011   0.16259   0.21968   0.22059
     Eigenvalues ---    0.23875   0.30340   0.33912   0.34248   0.34261
     Eigenvalues ---    0.34289   0.34313   0.36789   0.42126   0.46685
     Eigenvalues ---    0.52772   0.53180   0.58460
 En-DIIS/RFO-DIIS IScMMF=        0 using points:     5    4    3
 RFO step:  Lambda=-3.11527434D-06.
 DidBck=F Rises=F RFO-DIIS coefs:    2.49702   -1.41911   -0.07790
 Iteration  1 RMS(Cart)=  0.03718996 RMS(Int)=  0.00069642
 Iteration  2 RMS(Cart)=  0.00087852 RMS(Int)=  0.00000096
 Iteration  3 RMS(Cart)=  0.00000038 RMS(Int)=  0.00000094
 Variable       Old X    -DE/DX   Delta X   Delta X   Delta X     New X
                                 (Linear)    (Quad)   (Total)
    R1        2.68233   0.00017   0.00079  -0.00186  -0.00108   2.68125
    R2        2.86848   0.00036   0.00026   0.00029   0.00055   2.86902
    R3        2.12284   0.00018   0.00045   0.00037   0.00083   2.12367
    R4        2.12160   0.00018   0.00040   0.00035   0.00075   2.12235
    R5        1.82061   0.00021  -0.00016   0.00020   0.00004   1.82065
    R6        2.86619   0.00046  -0.00005   0.00114   0.00110   2.86728
    R7        2.11647   0.00035  -0.00115   0.00123   0.00008   2.11654
    R8        2.11660   0.00018  -0.00111   0.00067  -0.00044   2.11616
    R9        2.68245   0.00011   0.00132  -0.00161  -0.00030   2.68215
   R10        2.12262   0.00023  -0.00030   0.00050   0.00021   2.12283
   R11        2.12330   0.00018  -0.00015   0.00036   0.00021   2.12352
   R12        1.82100   0.00022  -0.00038   0.00022  -0.00016   1.82083
    A1        1.86891  -0.00020   0.00054  -0.00125  -0.00071   1.86820
    A2        1.91433  -0.00001   0.00206  -0.00243  -0.00037   1.91396
    A3        1.92854   0.00004   0.00293  -0.00069   0.00224   1.93078
    A4        1.93103   0.00010  -0.00094   0.00182   0.00088   1.93190
    A5        1.92099   0.00006  -0.00141   0.00111  -0.00030   1.92069
    A6        1.90011   0.00001  -0.00306   0.00139  -0.00167   1.89844
    A7        1.85917  -0.00011  -0.00016  -0.00100  -0.00116   1.85802
    A8        1.93801  -0.00007  -0.00051  -0.00094  -0.00145   1.93656
    A9        1.90572  -0.00001  -0.00005  -0.00065  -0.00070   1.90502
   A10        1.91439   0.00004   0.00015   0.00046   0.00061   1.91500
   A11        1.91686   0.00006  -0.00024   0.00029   0.00005   1.91691
   A12        1.90257   0.00003  -0.00065   0.00077   0.00011   1.90268
   A13        1.88554  -0.00004   0.00135   0.00011   0.00145   1.88699
   A14        1.88365  -0.00017  -0.00089  -0.00134  -0.00223   1.88142
   A15        1.91695   0.00007  -0.00099   0.00161   0.00062   1.91756
   A16        1.93261   0.00009  -0.00060   0.00195   0.00136   1.93397
   A17        1.91881   0.00001   0.00240  -0.00195   0.00045   1.91926
   A18        1.91306   0.00001   0.00256  -0.00128   0.00129   1.91435
   A19        1.89882  -0.00001  -0.00241   0.00096  -0.00145   1.89737
   A20        1.86131  -0.00010  -0.00047  -0.00064  -0.00111   1.86020
    D1       -3.05359   0.00008   0.01222   0.01259   0.02481  -3.02878
    D2        1.13340   0.00008   0.01187   0.01251   0.02439   1.15779
    D3       -0.96146   0.00005   0.01251   0.01278   0.02529  -0.93617
    D4       -3.05910  -0.00003  -0.02168  -0.02053  -0.04221  -3.10131
    D5        1.10798  -0.00004  -0.02103  -0.01986  -0.04089   1.06709
    D6       -0.95512  -0.00001  -0.02273  -0.01987  -0.04260  -0.99772
    D7       -0.97361  -0.00010  -0.01940  -0.02320  -0.04259  -1.01621
    D8       -3.08972  -0.00012  -0.01874  -0.02253  -0.04127  -3.13099
    D9        1.13037  -0.00009  -0.02044  -0.02254  -0.04298   1.08739
   D10        1.12712   0.00001  -0.02475  -0.01957  -0.04431   1.08281
   D11       -0.98898  -0.00001  -0.02409  -0.01890  -0.04299  -1.03197
   D12       -3.05208   0.00003  -0.02579  -0.01891  -0.04470  -3.09678
   D13       -1.11574  -0.00004  -0.03061  -0.02597  -0.05658  -1.17232
   D14        3.07571   0.00001  -0.03241  -0.02373  -0.05614   3.01957
   D15        0.97819  -0.00008  -0.02838  -0.02722  -0.05560   0.92259
   D16        0.99382  -0.00007  -0.03116  -0.02721  -0.05836   0.93545
   D17       -1.09792  -0.00001  -0.03295  -0.02497  -0.05792  -1.15584
   D18        3.08774  -0.00010  -0.02893  -0.02845  -0.05738   3.03036
[...]
     Eigenvalues ---    0.53074   0.53286   0.69492
 En-DIIS/RFO-DIIS IScMMF=        0 using points:    11   10    9    8    7
 RFO step:  Lambda=-2.18097466D-08.
 DidBck=F Rises=F RFO-DIIS coefs:    1.12091    0.21070   -1.06849    0.70290    0.03397
 Iteration  1 RMS(Cart)=  0.00033956 RMS(Int)=  0.00000024
 Iteration  2 RMS(Cart)=  0.00000024 RMS(Int)=  0.00000003
 Variable       Old X    -DE/DX   Delta X   Delta X   Delta X     New X
                                 (Linear)    (Quad)   (Total)
    R1        2.68275  -0.00002  -0.00013   0.00003  -0.00010   2.68265
    R2        2.86935  -0.00001  -0.00002  -0.00001  -0.00002   2.86933
    R3        2.12337   0.00001   0.00003   0.00002   0.00006   2.12343
    R4        2.12183   0.00001   0.00002   0.00002   0.00004   2.12187
    R5        1.82103   0.00001  -0.00002   0.00003   0.00001   1.82105
    R6        2.86707   0.00003   0.00005   0.00003   0.00009   2.86716
    R7        2.11784  -0.00003  -0.00011   0.00001  -0.00010   2.11774
    R8        2.11668  -0.00002  -0.00005  -0.00000  -0.00005   2.11664
    R9        2.68282   0.00005   0.00001   0.00001   0.00002   2.68284
   R10        2.12321   0.00001  -0.00000   0.00001   0.00001   2.12323
   R11        2.12349   0.00001  -0.00000   0.00001   0.00001   2.12350
   R12        1.82148   0.00001  -0.00003   0.00004   0.00001   1.82149
    A1        1.86825  -0.00001   0.00007  -0.00003   0.00004   1.86829
    A2        1.91089   0.00001   0.00012  -0.00002   0.00010   1.91099
    A3        1.93011   0.00001   0.00017   0.00005   0.00021   1.93033
    A4        1.93196   0.00000   0.00001   0.00001   0.00002   1.93198
    A5        1.92040   0.00001   0.00002   0.00003   0.00005   1.92045
    A6        1.90223  -0.00002  -0.00037  -0.00003  -0.00040   1.90183
    A7        1.85898   0.00000  -0.00004   0.00007   0.00003   1.85901
    A8        1.93683   0.00000  -0.00003  -0.00001  -0.00004   1.93679
    A9        1.90491  -0.00000   0.00001  -0.00002  -0.00001   1.90491
   A10        1.91540  -0.00000  -0.00006  -0.00001  -0.00007   1.91533
   A11        1.91728  -0.00000  -0.00002  -0.00002  -0.00004   1.91724
   A12        1.90372  -0.00000  -0.00009   0.00003  -0.00007   1.90366
   A13        1.88497   0.00001   0.00020   0.00002   0.00022   1.88519
   A14        1.88140   0.00001   0.00006  -0.00000   0.00006   1.88146
   A15        1.91792  -0.00001  -0.00005   0.00001  -0.00004   1.91788
   A16        1.93377  -0.00001  -0.00003   0.00001  -0.00002   1.93375
   A17        1.91693   0.00001   0.00011  -0.00002   0.00009   1.91702
   A18        1.91402   0.00001   0.00015  -0.00000   0.00015   1.91417
   A19        1.89982  -0.00001  -0.00024   0.00000  -0.00024   1.89958
   A20        1.86069   0.00004   0.00008   0.00005   0.00013   1.86082
    D1       -3.00316   0.00000   0.00077   0.00055   0.00131  -3.00185
    D2        1.18503  -0.00000   0.00065   0.00056   0.00122   1.18624
    D3       -0.91126   0.00001   0.00093   0.00059   0.00152  -0.90974
    D4       -3.10944   0.00000   0.00037   0.00015   0.00052  -3.10892
    D5        1.05841   0.00001   0.00041   0.00019   0.00059   1.05900
    D6       -1.00411  -0.00000   0.00019   0.00017   0.00037  -1.00375
    D7       -1.02798   0.00001   0.00056   0.00011   0.00067  -1.02731
    D8        3.13987   0.00002   0.00060   0.00015   0.00074   3.14061
    D9        1.07735   0.00001   0.00038   0.00013   0.00052   1.07786
   D10        1.07562  -0.00001   0.00011   0.00010   0.00021   1.07583
   D11       -1.03972  -0.00000   0.00015   0.00013   0.00029  -1.03943
   D12       -3.10224  -0.00001  -0.00006   0.00012   0.00006  -3.10218
   D13       -1.17310  -0.00000   0.00049  -0.00041   0.00008  -1.17302
   D14        3.02142  -0.00001   0.00034  -0.00039  -0.00005   3.02137
   D15        0.92129   0.00001   0.00069  -0.00041   0.00028   0.92157
   D16        0.93496  -0.00000   0.00047  -0.00045   0.00002   0.93497
   D17       -1.15372  -0.00002   0.00032  -0.00043  -0.00011  -1.15383
   D18        3.02934   0.00001   0.00067  -0.00045   0.00022   3.02956
   D19        2.99787   0.00000   0.00064  -0.00041   0.00022   2.99810
   D20        0.90920  -0.00001   0.00049  -0.00040   0.00010   0.90930
   D21       -1.19093   0.00001   0.00085  -0.00042   0.00043  -1.19050
   D22       -3.08795   0.00000  -0.00048  -0.00013  -0.00061  -3.08856
   D23       -0.99865   0.00000  -0.00044  -0.00013  -0.00057  -0.99921
   D24        1.08843  -0.00000  -0.00057  -0.00014  -0.00071   1.08772
         Item               Value     Threshold  Converged?
 Maximum Force            0.000053     0.000450     YES
 RMS     Force            0.000013     0.000300     YES
 Maximum Displacement     0.001247     0.001800     YES
 RMS     Displacement     0.000340     0.001200     YES
 Predicted change in Energy=-4.073364D-08
 Optimization completed.
    -- Stationary point found.
                           ----------------------------
                           !   Optimized Parameters   !
                           ! (Angstroms and Degrees)  !
 --------------------------                            --------------------------
 ! Name  Definition              Value          Derivative Info.                !
 --------------------------------------------------------------------------------
 ! R1    R(1,2)                  1.4197         -DE/DX =    0.0                 !
 ! R2    R(1,3)                  1.5184         -DE/DX =    0.0                 !
 ! R3    R(1,6)                  1.1236         -DE/DX =    0.0                 !
 ! R4    R(1,7)                  1.1228         -DE/DX =    0.0                 !
 ! R5    R(2,8)                  0.9636         -DE/DX =    0.0                 !
 ! R6    R(3,4)                  1.5172         -DE/DX =    0.0                 !
 ! R7    R(3,9)                  1.1207         -DE/DX =    0.0                 !
 ! R8    R(3,10)                 1.1201         -DE/DX =    0.0                 !
 ! R9    R(4,5)                  1.4197         -DE/DX =    0.0001              !
 ! R10   R(4,11)                 1.1236         -DE/DX =    0.0                 !
 ! R11   R(4,12)                 1.1237         -DE/DX =    0.0                 !
 ! R12   R(5,13)                 0.9639         -DE/DX =    0.0                 !
 ! A1    A(2,1,3)              107.0429         -DE/DX =    0.0                 !
 ! A2    A(2,1,6)              109.4862         -DE/DX =    0.0                 !
 ! A3    A(2,1,7)              110.5874         -DE/DX =    0.0                 !
 ! A4    A(3,1,6)              110.6933         -DE/DX =    0.0                 !
 ! A5    A(3,1,7)              110.0306         -DE/DX =    0.0                 !
 ! A6    A(6,1,7)              108.9899         -DE/DX =    0.0                 !
 ! A7    A(1,2,8)              106.5119         -DE/DX =    0.0                 !
 ! A8    A(1,3,4)              110.972          -DE/DX =    0.0                 !
 ! A9    A(1,3,9)              109.1435         -DE/DX =    0.0                 !
 ! A10   A(1,3,10)             109.7442         -DE/DX =    0.0                 !
 ! A11   A(4,3,9)              109.8519         -DE/DX =    0.0                 !
 ! A12   A(4,3,10)             109.0754         -DE/DX =    0.0                 !
 ! A13   A(9,3,10)             108.0009         -DE/DX =    0.0                 !
 ! A14   A(3,4,5)              107.7964         -DE/DX =    0.0                 !
 ! A15   A(3,4,11)             109.8884         -DE/DX =    0.0                 !
 ! A16   A(3,4,12)             110.7968         -DE/DX =    0.0                 !
 ! A17   A(5,4,11)             109.8319         -DE/DX =    0.0                 !
 ! A18   A(5,4,12)             109.6655         -DE/DX =    0.0                 !
 ! A19   A(11,4,12)            108.8515         -DE/DX =    0.0                 !
 ! A20   A(4,5,13)             106.6094         -DE/DX =    0.0                 !
 ! D1    D(3,1,2,8)           -172.0684         -DE/DX =    0.0                 !
 ! D2    D(6,1,2,8)             67.897          -DE/DX =    0.0                 !
 ! D3    D(7,1,2,8)            -52.2111         -DE/DX =    0.0                 !
 ! D4    D(2,1,3,4)           -178.1577         -DE/DX =    0.0                 !
 ! D5    D(2,1,3,9)             60.6423         -DE/DX =    0.0                 !
 ! D6    D(2,1,3,10)           -57.5315         -DE/DX =    0.0                 !
 ! D7    D(6,1,3,4)            -58.8988         -DE/DX =    0.0                 !
 ! D8    D(6,1,3,9)            179.9012         -DE/DX =    0.0                 !
 ! D9    D(6,1,3,10)            61.7274         -DE/DX =    0.0                 !
 ! D10   D(7,1,3,4)             61.6286         -DE/DX =    0.0                 !
 ! D11   D(7,1,3,9)            -59.5714         -DE/DX =    0.0                 !
 ! D12   D(7,1,3,10)          -177.7452         -DE/DX =    0.0                 !
 ! D13   D(1,3,4,5)            -67.2134         -DE/DX =    0.0                 !
 ! D14   D(1,3,4,11)           173.1144         -DE/DX =    0.0                 !
 ! D15   D(1,3,4,12)            52.7858         -DE/DX =    0.0                 !
 ! D16   D(9,3,4,5)             53.569          -DE/DX =    0.0                 !
 ! D17   D(9,3,4,11)           -66.1032         -DE/DX =    0.0                 !
 ! D18   D(9,3,4,12)           173.5683         -DE/DX =    0.0                 !
 ! D19   D(10,3,4,5)           171.7654         -DE/DX =    0.0                 !
 ! D20   D(10,3,4,11)           52.0933         -DE/DX =    0.0                 !
 ! D21   D(10,3,4,12)          -68.2353         -DE/DX =    0.0                 !
 ! D22   D(3,4,5,13)          -176.9263         -DE/DX =    0.0                 !
 ! D23   D(11,4,5,13)          -57.2183         -DE/DX =    0.0                 !
 ! D24   D(12,4,5,13)           62.3625         -DE/DX =    0.0                 !
 --------------------------------------------------------------------------------
 GradGradGradGradGradGradGradGradGradGradGradGradGradGradGradGradGradGrad

                          Input orientation:                          
 ---------------------------------------------------------------------
 Center     Atomic      Atomic             Coordinates (Angstroms)
 Number     Number       Type             X           Y           Z
 ---------------------------------------------------------------------
      1          6           0        1.348882    2.267073    1.275113
      2          8           0        0.047625    2.028414    0.760155
      3          6           0        2.069797    0.930956    1.299496
      4          6           0        3.463676    1.076544    1.880678
      5          8           0        4.232423    1.853857    0.974958
      6          1           0        1.269384    2.694312    2.311316
      7          1           0        1.904866    2.992210    0.622585
      8          1           0       -0.357793    2.892737    0.628995
      9          1           0        2.132889    0.528288    0.255528
     10          1           0        1.489782    0.199278    1.918250
     11          1           0        3.932868    0.063484    2.006965
     12          1           0        3.427526    1.587191    2.880998
     13          1           0        5.125355    1.894286    1.335674
 ---------------------------------------------------------------------
                    Distance matrix (angstroms):
                    1          2          3          4          5
     1  C    0.000000
     2  O    1.419651   0.000000
     3  C    1.518394   2.363151   0.000000
     4  C    2.501284   3.719010   1.517190   0.000000
     5  O    2.928421   4.193942   2.373610   1.419689   0.000000
     6  H    1.123642   2.083798   2.184917   2.759989   3.357353
     7  H    1.122824   2.096943   2.175817   2.771726   2.614869
     8  H    1.929162   0.963650   3.192390   4.412357   4.719009
     9  H    2.162775   2.617892   1.120711   2.170873   2.585103
    10  H    2.170081   2.601295   1.120101   2.160386   3.339089
    11  H    3.473959   4.528863   2.173489   1.123556   2.088111
    12  H    2.713277   4.014522   2.185228   1.123703   2.086136
    13  H    3.795311   5.112001   3.204021   1.930520   0.963886
                    6          7          8          9         10
     6  H    0.000000
     7  H    1.828768   0.000000
     8  H    2.348890   2.264853   0.000000
     9  H    3.108628   2.501527   3.454504   0.000000
    10  H    2.535403   3.106688   3.511472   1.812865   0.000000
    11  H    3.756065   3.821876   5.321020   2.554114   2.448465
    12  H    2.491552   3.064801   4.593976   3.112950   2.570611
    13  H    4.057145   3.476418   5.617937   3.462299   4.053374
                   11         12         13
    11  H    0.000000
    12  H    1.827836   0.000000
    13  H    2.285715   2.316238   0.000000
 Stoichiometry    C3H8O2
 Framework group  C1[X(C3H8O2)]
 Deg. of freedom    33
 Full point group                 C1      NOp   1
 Largest Abelian subgroup         C1      NOp   1
 Largest concise Abelian subgroup C1      NOp   1
                         Standard orientation:                         
 ---------------------------------------------------------------------
 Center     Atomic      Atomic             Coordinates (Angstroms)
 Number     Number       Type             X           Y           Z
 ---------------------------------------------------------------------
      1          6           0        0.982970   -0.341583    0.318060
      2          8           0        2.278379   -0.046753   -0.182340
      3          6           0        0.039258    0.706158   -0.245116
      4          6           0       -1.371926    0.500333    0.272634
      5          8           0       -1.860823   -0.716163   -0.272008
      6          1           0        0.996714   -0.301084    1.440887
      7          1           0        0.658035   -1.366141   -0.006642
      8          1           0        2.845025   -0.782904    0.073816
      9          1           0        0.046923    0.644213   -1.364087
     10          1           0        0.391010    1.728578    0.047379
     11          1           0       -2.026539    1.353733   -0.052281
     12          1           0       -1.380757    0.442784    1.394828
     13          1           0       -2.772676   -0.805299    0.027418
 ---------------------------------------------------------------------
 Rotational constants (GHZ):     13.4063205      2.4454624      2.2610084

 **********************************************************************

            Population analysis using the SCF density.

 **********************************************************************

 Orbital symmetries:
       Occupied  (A) (A) (A) (A) (A) (A) (A) (A) (A) (A) (A) (A)
                 (A) (A) (A) (A)
       Virtual   (A) (A) (A) (A) (A) (A) (A) (A) (A) (A) (A) (A)
 The electronic state is 1-A.
 Alpha  occ. eigenvalues --   -1.42653  -1.37982  -1.19486  -0.95794  -0.80626
 Alpha  occ. eigenvalues --   -0.68802  -0.66483  -0.60279  -0.57809  -0.54217
 Alpha  occ. eigenvalues --   -0.52803  -0.47157  -0.45658  -0.44597  -0.40491
 Alpha  occ. eigenvalues --   -0.39644
 Alpha virt. eigenvalues --    0.12415   0.12779   0.14065   0.14635   0.15339
 Alpha virt. eigenvalues --    0.15730   0.16560   0.17177   0.18297   0.18502
 Alpha virt. eigenvalues --    0.22590   0.23297
          Condensed to atoms (all electrons):
               1          2          3          4          5          6
     1  C    4.017777   0.000000   0.000000   0.000000   0.000000   0.000000
     2  O    0.000000   6.332063   0.000000   0.000000   0.000000   0.000000
     3  C    0.000000   0.000000   4.163065   0.000000   0.000000   0.000000
     4  C    0.000000   0.000000   0.000000   4.019423   0.000000   0.000000
     5  O    0.000000   0.000000   0.000000   0.000000   6.330774   0.000000
     6  H    0.000000   0.000000   0.000000   0.000000   0.000000   0.943839
     7  H    0.000000   0.000000   0.000000   0.000000   0.000000   0.000000
     8  H    0.000000   0.000000   0.000000   0.000000   0.000000   0.000000
     9  H    0.000000   0.000000   0.000000   0.000000   0.000000   0.000000
    10  H    0.000000   0.000000   0.000000   0.000000   0.000000   0.000000
    11  H    0.000000   0.000000   0.000000   0.000000   0.000000   0.000000
    12  H    0.000000   0.000000   0.000000   0.000000   0.000000   0.000000
    13  H    0.000000   0.000000   0.000000   0.000000   0.000000   0.000000
               7          8          9         10         11         12
     1  C    0.000000   0.000000   0.000000   0.000000   0.000000   0.000000
     2  O    0.000000   0.000000   0.000000   0.000000   0.000000   0.000000
     3  C    0.000000   0.000000   0.000000   0.000000   0.000000   0.000000
     4  C    0.000000   0.000000   0.000000   0.000000   0.000000   0.000000
     5  O    0.000000   0.000000   0.000000   0.000000   0.000000   0.000000
     6  H    0.000000   0.000000   0.000000   0.000000   0.000000   0.000000
     7  H    0.921428   0.000000   0.000000   0.000000   0.000000   0.000000
     8  H    0.000000   0.801521   0.000000   0.000000   0.000000   0.000000
     9  H    0.000000   0.000000   0.890713   0.000000   0.000000   0.000000
    10  H    0.000000   0.000000   0.000000   0.902084   0.000000   0.000000
    11  H    0.000000   0.000000   0.000000   0.000000   0.936331   0.000000
    12  H    0.000000   0.000000   0.000000   0.000000   0.000000   0.939568
    13  H    0.000000   0.000000   0.000000   0.000000   0.000000   0.000000
              13
     1  C    0.000000
     2  O    0.000000
     3  C    0.000000
     4  C    0.000000
     5  O    0.000000
     6  H    0.000000
     7  H    0.000000
     8  H    0.000000
     9  H    0.000000
    10  H    0.000000
    11  H    0.000000
    12  H    0.000000
    13  H    0.801413
 Mulliken charges:
               1
     1  C   -0.017777
     2  O   -0.332063
     3  C   -0.163065
     4  C   -0.019423
     5  O   -0.330774
     6  H    0.056161
     7  H    0.078572
     8  H    0.198479
     9  H    0.109287
    10  H    0.097916
    11  H    0.063669
    12  H    0.060432
    13  H    0.198587
 Sum of Mulliken charges =   0.00000
 Mulliken charges with hydrogens summed into heavy atoms:
               1
     1  C    0.116956
     2  O   -0.133584
     3  C    0.044137
     4  C    0.104678
     5  O   -0.132187
 Charge=              0.0000 electrons
 Dipole moment (field-independent basis, Debye):
    X=             -1.2845    Y=             -0.1401    Z=              1.6243  Tot=              2.0756
 N-N= 1.371844875263D+02 E-N=-2.308399215873D+02  KE=-2.080374166160D+01
 1\1\GINC-GTX1080DELTA\FOpt\RAM1\ZDO\C3H8O2\MVEROT\17-Apr-2022\0\\#n AM
 1 Opt\\Optimisation de geometrie\\0,1\C,1.3488818602,2.2670725635,1.27
 51129497\O,0.0476250541,2.028414475,0.7601554329\C,2.0697969467,0.9309
 559626,1.2994958911\C,3.4636760412,1.0765435183,1.8806775075\O,4.23242
 32855,1.8538574802,0.9749575702\H,1.2693843751,2.6943116736,2.31131632
 52\H,1.904865557,2.9922099052,0.6225851324\H,-0.3577933291,2.892737213
 6,0.6289946284\H,2.1328894945,0.5282875719,0.2555276766\H,1.4897815288
 ,0.1992782707,1.9182495965\H,3.9328681016,0.0634843171,2.0069653958\H,
 3.427526305,1.5871909571,2.8809983517\H,5.1253547793,1.8942860912,1.33
 56735421\\Version=AM64L-G09RevD.01\State=1-A\HF=-0.1821616\RMSD=5.153e
 -09\RMSF=2.236e-05\Dipole=0.4719777,0.2217567,0.6283933\PG=C01 [X(C3H8
 O2)]\\@


 ABOVE ALL I AM AN OPTIMIST FOR NUMBER THEORY,
 AND I HOLD THE HOPE THAT WE MAY NOT BE FAR FROM
 A TIME WHEN IRREFUTABLE ARITHMETIC WILL CELEBRATE
 ITS TRIUMPHS IN PHYSICS AND CHEMISTRY.
   -- HERMANN MINKOWSKI, 1905
 Job cpu time:       0 days  0 hours  0 minutes  6.3 seconds.
 File lengths (MBytes):  RWF=     72 Int=      0 D2E=      0 Chk=      2 Scr=      2
 Normal termination of Gaussian 09 at Sun Apr 17 23:35:11 2022.
