 Entering Gaussian System, Link 0=g09
 Input=/scratch/mverot/1-4-butanediol-opt/1-4-butanediol-opt.com
 Output=/scratch/mverot/1-4-butanediol-opt/1-4-butanediol-opt.log
 Initial command:
 /opt/g09/l1.exe "/scratch/mverot/1-4-butanediol-opt/Gau-1473985.inp" -scrdir="/scratch/mverot/1-4-butanediol-opt/"
 Entering Link 1 = /opt/g09/l1.exe PID=   1473987.
  
 Copyright (c) 1988,1990,1992,1993,1995,1998,2003,2009,2013,
            Gaussian, Inc.  All Rights Reserved.
  
 This is part of the Gaussian(R) 09 program.  It is based on
 the Gaussian(R) 03 system (copyright 2003, Gaussian, Inc.),
 the Gaussian(R) 98 system (copyright 1998, Gaussian, Inc.),
 the Gaussian(R) 94 system (copyright 1995, Gaussian, Inc.),
 the Gaussian 92(TM) system (copyright 1992, Gaussian, Inc.),
 the Gaussian 90(TM) system (copyright 1990, Gaussian, Inc.),
 the Gaussian 88(TM) system (copyright 1988, Gaussian, Inc.),
 the Gaussian 86(TM) system (copyright 1986, Carnegie Mellon
 University), and the Gaussian 82(TM) system (copyright 1983,
 Carnegie Mellon University). Gaussian is a federally registered
 trademark of Gaussian, Inc.
  
 This software contains proprietary and confidential information,
 including trade secrets, belonging to Gaussian, Inc.
  
 This software is provided under written license and may be
 used, copied, transmitted, or stored only in accord with that
 written license.
  
 The following legend is applicable only to US Government
 contracts under FAR:
  
                    RESTRICTED RIGHTS LEGEND
  
 Use, reproduction and disclosure by the US Government is
 subject to restrictions as set forth in subparagraphs (a)
 and (c) of the Commercial Computer Software - Restricted
 Rights clause in FAR 52.227-19.
  
 Gaussian, Inc.
 340 Quinnipiac St., Bldg. 40, Wallingford CT 06492
  
  
 ---------------------------------------------------------------
 Warning -- This program may not be used in any manner that
 competes with the business of Gaussian, Inc. or will provide
 assistance to any competitor of Gaussian, Inc.  The licensee
 of this program is prohibited from giving any competitor of
 Gaussian, Inc. access to this program.  By using this program,
 the user acknowledges that Gaussian, Inc. is engaged in the
 business of creating and licensing software in the field of
 computational chemistry and represents and warrants to the
 licensee that it is not a competitor of Gaussian, Inc. and that
 it will not use this program in any manner prohibited above.
 ---------------------------------------------------------------
  

 Cite this work as:
 Gaussian 09, Revision D.01,
 M. J. Frisch, G. W. Trucks, H. B. Schlegel, G. E. Scuseria, 
 M. A. Robb, J. R. Cheeseman, G. Scalmani, V. Barone, B. Mennucci, 
 G. A. Petersson, H. Nakatsuji, M. Caricato, X. Li, H. P. Hratchian, 
 A. F. Izmaylov, J. Bloino, G. Zheng, J. L. Sonnenberg, M. Hada, 
 M. Ehara, K. Toyota, R. Fukuda, J. Hasegawa, M. Ishida, T. Nakajima, 
 Y. Honda, O. Kitao, H. Nakai, T. Vreven, J. A. Montgomery, Jr., 
 J. E. Peralta, F. Ogliaro, M. Bearpark, J. J. Heyd, E. Brothers, 
 K. N. Kudin, V. N. Staroverov, T. Keith, R. Kobayashi, J. Normand, 
 K. Raghavachari, A. Rendell, J. C. Burant, S. S. Iyengar, J. Tomasi, 
 M. Cossi, N. Rega, J. M. Millam, M. Klene, J. E. Knox, J. B. Cross, 
 V. Bakken, C. Adamo, J. Jaramillo, R. Gomperts, R. E. Stratmann, 
 O. Yazyev, A. J. Austin, R. Cammi, C. Pomelli, J. W. Ochterski, 
 R. L. Martin, K. Morokuma, V. G. Zakrzewski, G. A. Voth, 
 P. Salvador, J. J. Dannenberg, S. Dapprich, A. D. Daniels, 
 O. Farkas, J. B. Foresman, J. V. Ortiz, J. Cioslowski, 
 and D. J. Fox, Gaussian, Inc., Wallingford CT, 2013.
 
 ******************************************
 Gaussian 09:  AM64L-G09RevD.01 24-Apr-2013
                17-Apr-2022 
 ******************************************
 %chk=1-4-butanediol-opt
 ----------
 #n PM6 Opt
 ----------
 1/14=-1,18=20,19=15,26=1,38=1/1,3;
 2/9=110,12=2,17=6,18=5,40=1/2;
 3/5=2,16=1,25=1,41=3900000,71=1/1,2,3;
 4/35=1/1;
 5/5=2,35=1,38=5/2;
 6/7=2,8=2,9=2,10=2,28=1/1;
 7//1,2,3,16;
 1/14=-1,18=20,19=15,26=1/3(2);
 2/9=110/2;
 99//99;
 2/9=110/2;
 3/5=2,16=1,25=1,41=3900000,71=1,135=20/1,2,3;
 4/5=5,16=3,35=1/1;
 5/5=2,35=1,38=5/2;
 7//1,2,3,16;
 1/14=-1,18=20,19=15,26=1/3(-5);
 2/9=110/2;
 6/7=2,8=2,9=2,10=2,19=2,28=1/1;
 99/9=1/99;
 -------------------------
 Optimisation de geometrie
 -------------------------
 Symbolic Z-matrix:
 Charge =  0 Multiplicity = 1
 C                     1.6107    1.2545    1.9562 
 C                     1.1287    2.3802    1.0303 
 O                     1.4973    3.6767    1.461 
 C                     3.1202    0.9463    1.9456 
 C                     4.0514    2.0104    2.5215 
 O                     4.1945    3.0862    1.5783 
 H                     1.0825    0.3332    1.6712 
 H                     1.2915    1.4946    2.98 
 H                     0.0328    2.3688    1.0055 
 H                     1.4756    2.182     0.0004 
 H                     2.4724    3.7128    1.402 
 H                     3.4548    0.7229    0.923 
 H                     3.2871    0.0321    2.5311 
 H                     5.0392    1.5667    2.7112 
 H                     3.6576    2.3857    3.4778 
 H                     4.7634    3.7635    1.976 
 

 GradGradGradGradGradGradGradGradGradGradGradGradGradGradGradGradGradGrad
 Berny optimization.
 Initialization pass.
                           ----------------------------
                           !    Initial Parameters    !
                           ! (Angstroms and Degrees)  !
 --------------------------                            --------------------------
 ! Name  Definition              Value          Derivative Info.                !
 --------------------------------------------------------------------------------
 ! R1    R(1,2)                  1.5352         estimate D2E/DX2                !
 ! R2    R(1,4)                  1.5407         estimate D2E/DX2                !
 ! R3    R(1,7)                  1.0996         estimate D2E/DX2                !
 ! R4    R(1,8)                  1.099          estimate D2E/DX2                !
 ! R5    R(2,3)                  1.415          estimate D2E/DX2                !
 ! R6    R(2,9)                  1.0962         estimate D2E/DX2                !
 ! R7    R(2,10)                 1.1047         estimate D2E/DX2                !
 ! R8    R(3,11)                 0.9776         estimate D2E/DX2                !
 ! R9    R(4,5)                  1.5268         estimate D2E/DX2                !
 ! R10   R(4,12)                 1.0989         estimate D2E/DX2                !
 ! R11   R(4,13)                 1.0984         estimate D2E/DX2                !
 ! R12   R(5,6)                  1.4379         estimate D2E/DX2                !
 ! R13   R(5,14)                 1.0994         estimate D2E/DX2                !
 ! R14   R(5,15)                 1.1002         estimate D2E/DX2                !
 ! R15   R(6,16)                 0.9698         estimate D2E/DX2                !
 ! A1    A(2,1,4)              116.7531         estimate D2E/DX2                !
 ! A2    A(2,1,7)              107.8932         estimate D2E/DX2                !
 ! A3    A(2,1,8)              108.0877         estimate D2E/DX2                !
 ! A4    A(4,1,7)              107.5333         estimate D2E/DX2                !
 ! A5    A(4,1,8)              109.554          estimate D2E/DX2                !
 ! A6    A(7,1,8)              106.559          estimate D2E/DX2                !
 ! A7    A(1,2,3)              113.9843         estimate D2E/DX2                !
 ! A8    A(1,2,9)              108.6562         estimate D2E/DX2                !
 ! A9    A(1,2,10)             109.3984         estimate D2E/DX2                !
 ! A10   A(3,2,9)              106.0708         estimate D2E/DX2                !
 ! A11   A(3,2,10)             111.4914         estimate D2E/DX2                !
 ! A12   A(9,2,10)             106.9162         estimate D2E/DX2                !
 ! A13   A(2,3,11)             105.9801         estimate D2E/DX2                !
 ! A14   A(1,4,5)              117.1002         estimate D2E/DX2                !
 ! A15   A(1,4,12)             110.2059         estimate D2E/DX2                !
 ! A16   A(1,4,13)             108.1622         estimate D2E/DX2                !
 ! A17   A(5,4,12)             107.8776         estimate D2E/DX2                !
 ! A18   A(5,4,13)             106.6391         estimate D2E/DX2                !
 ! A19   A(12,4,13)            106.2946         estimate D2E/DX2                !
 ! A20   A(4,5,6)              109.5557         estimate D2E/DX2                !
 ! A21   A(4,5,14)             109.3787         estimate D2E/DX2                !
 ! A22   A(4,5,15)             110.3221         estimate D2E/DX2                !
 ! A23   A(6,5,14)             109.0102         estimate D2E/DX2                !
 ! A24   A(6,5,15)             110.5225         estimate D2E/DX2                !
 ! A25   A(14,5,15)            108.0171         estimate D2E/DX2                !
 ! A26   A(5,6,16)             108.174          estimate D2E/DX2                !
 ! D1    D(4,1,2,3)            -71.948          estimate D2E/DX2                !
 ! D2    D(4,1,2,9)            170.0178         estimate D2E/DX2                !
 ! D3    D(4,1,2,10)            53.6277         estimate D2E/DX2                !
 ! D4    D(7,1,2,3)            166.9021         estimate D2E/DX2                !
 ! D5    D(7,1,2,9)             48.8678         estimate D2E/DX2                !
 ! D6    D(7,1,2,10)           -67.5223         estimate D2E/DX2                !
 ! D7    D(8,1,2,3)             52.0354         estimate D2E/DX2                !
 ! D8    D(8,1,2,9)            -65.9989         estimate D2E/DX2                !
 ! D9    D(8,1,2,10)           177.611          estimate D2E/DX2                !
 ! D10   D(2,1,4,5)             68.0507         estimate D2E/DX2                !
 ! D11   D(2,1,4,12)           -55.715          estimate D2E/DX2                !
 ! D12   D(2,1,4,13)          -171.5252         estimate D2E/DX2                !
 ! D13   D(7,1,4,5)           -170.6099         estimate D2E/DX2                !
 ! D14   D(7,1,4,12)            65.6244         estimate D2E/DX2                !
 ! D15   D(7,1,4,13)           -50.1858         estimate D2E/DX2                !
 ! D16   D(8,1,4,5)            -55.1806         estimate D2E/DX2                !
 ! D17   D(8,1,4,12)          -178.9464         estimate D2E/DX2                !
 ! D18   D(8,1,4,13)            65.2435         estimate D2E/DX2                !
 ! D19   D(1,2,3,11)            65.689          estimate D2E/DX2                !
 ! D20   D(9,2,3,11)          -174.8043         estimate D2E/DX2                !
 ! D21   D(10,2,3,11)          -58.7729         estimate D2E/DX2                !
 ! D22   D(1,4,5,6)            -76.1976         estimate D2E/DX2                !
 ! D23   D(1,4,5,14)           164.3712         estimate D2E/DX2                !
 ! D24   D(1,4,5,15)            45.6919         estimate D2E/DX2                !
 ! D25   D(12,4,5,6)            48.744          estimate D2E/DX2                !
 ! D26   D(12,4,5,14)          -70.6872         estimate D2E/DX2                !
 ! D27   D(12,4,5,15)          170.6335         estimate D2E/DX2                !
 ! D28   D(13,4,5,6)           162.5783         estimate D2E/DX2                !
 ! D29   D(13,4,5,14)           43.1471         estimate D2E/DX2                !
 ! D30   D(13,4,5,15)          -75.5322         estimate D2E/DX2                !
 ! D31   D(4,5,6,16)           178.0428         estimate D2E/DX2                !
 ! D32   D(14,5,6,16)          -62.2996         estimate D2E/DX2                !
 ! D33   D(15,5,6,16)           56.2735         estimate D2E/DX2                !
 --------------------------------------------------------------------------------
 Trust Radius=3.00D-01 FncErr=1.00D-07 GrdErr=1.00D-07
 Number of steps in this run=     84 maximum allowed number of steps=    100.
 GradGradGradGradGradGradGradGradGradGradGradGradGradGradGradGradGradGrad

                          Input orientation:                          
 ---------------------------------------------------------------------
 Center     Atomic      Atomic             Coordinates (Angstroms)
 Number     Number       Type             X           Y           Z
 ---------------------------------------------------------------------
      1          6           0        1.610700    1.254500    1.956200
      2          6           0        1.128700    2.380200    1.030300
      3          8           0        1.497300    3.676700    1.461000
      4          6           0        3.120200    0.946300    1.945600
      5          6           0        4.051400    2.010400    2.521500
      6          8           0        4.194500    3.086200    1.578300
      7          1           0        1.082500    0.333200    1.671200
      8          1           0        1.291500    1.494600    2.980000
      9          1           0        0.032800    2.368800    1.005500
     10          1           0        1.475600    2.182000    0.000400
     11          1           0        2.472400    3.712800    1.402000
     12          1           0        3.454800    0.722900    0.923000
     13          1           0        3.287100    0.032100    2.531100
     14          1           0        5.039200    1.566700    2.711200
     15          1           0        3.657600    2.385700    3.477800
     16          1           0        4.763400    3.763500    1.976000
 ---------------------------------------------------------------------
                    Distance matrix (angstroms):
                    1          2          3          4          5
     1  C    0.000000
     2  C    1.535192   0.000000
     3  O    2.474901   1.415020   0.000000
     4  C    1.540678   2.619144   3.213056   0.000000
     5  C    2.616862   3.301909   3.228722   1.526795   0.000000
     6  O    3.189664   3.193410   2.763573   2.422437   1.437863
     7  H    1.099552   2.145483   3.375683   2.145555   3.514310
     8  H    1.098955   2.147585   2.666697   2.171350   2.844876
     9  H    2.152966   1.096240   2.015650   3.526944   4.309971
    10  H    2.168793   1.104680   2.089964   2.831160   3.608343
    11  H    2.663251   1.928604   0.977550   2.892865   2.577729
    12  H    2.179634   2.858128   3.584157   1.098897   2.137473
    13  H    2.152926   3.524864   4.199001   1.098375   2.120829
    14  H    3.524501   4.333499   4.308150   2.157221   1.099366
    15  H    2.790104   3.519321   3.225067   2.169864   1.100199
    16  H    4.029267   4.002363   3.307593   3.261540   1.969232
                    6          7          8          9         10
     6  O    0.000000
     7  H    4.155982   0.000000
     8  H    3.595186   1.762240   0.000000
     9  H    4.261750   2.385098   2.499440   0.000000
    10  H    3.271049   2.522729   3.063401   1.768274   0.000000
    11  H    1.841015   3.664149   2.967325   2.813396   2.302486
    12  H    2.561593   2.517832   3.083283   3.798141   2.626289
    13  H    3.325467   2.385446   2.514525   4.286968   3.782598
    14  H    2.075057   4.273008   3.758019   5.349469   4.519544
    15  H    2.094531   3.756022   2.576877   4.387679   4.110344
    16  H    0.969818   5.040723   4.267319   5.026493   4.148948
                   11         12         13         14         15
    11  H    0.000000
    12  H    3.183403   0.000000
    13  H    3.935245   1.758213   0.000000
    14  H    3.592800   2.533768   2.336084   0.000000
    15  H    2.734015   3.055002   2.563775   1.779678   0.000000
    16  H    2.362356   3.473686   4.051042   2.332920   2.318735
                   16
    16  H    0.000000
 Stoichiometry    C4H10O2
 Framework group  C1[X(C4H10O2)]
 Deg. of freedom    42
 Full point group                 C1      NOp   1
 Largest Abelian subgroup         C1      NOp   1
 Largest concise Abelian subgroup C1      NOp   1
                         Standard orientation:                         
 ---------------------------------------------------------------------
 Center     Atomic      Atomic             Coordinates (Angstroms)
 Number     Number       Type             X           Y           Z
 ---------------------------------------------------------------------
      1          6           0        0.830011    1.152271    0.212354
      2          6           0        1.646795   -0.045249   -0.293241
      3          8           0        1.303057   -1.274744    0.317060
      4          6           0       -0.644568    1.221794   -0.228637
      5          6           0       -1.588870    0.160941    0.331710
      6          8           0       -1.371828   -1.085645   -0.351200
      7          1           0        1.324059    2.070107   -0.137655
      8          1           0        0.886718    1.165023    1.309771
      9          1           0        2.703422    0.126014   -0.056702
     10          1           0        1.569165   -0.103974   -1.393623
     11          1           0        0.386969   -1.467934    0.035876
     12          1           0       -0.714763    1.190762   -1.324851
     13          1           0       -1.048228    2.196018    0.078564
     14          1           0       -2.629383    0.479027    0.174364
     15          1           0       -1.429669    0.040813    1.413682
     16          1           0       -1.958328   -1.751287    0.040574
 ---------------------------------------------------------------------
 Rotational constants (GHZ):      4.5593886      2.8857863      1.9677595
 Standard basis: VSTO-6G (5D, 7F)
 There are    34 symmetry adapted cartesian basis functions of A   symmetry.
 There are    34 symmetry adapted basis functions of A   symmetry.
    34 basis functions,   204 primitive gaussians,    34 cartesian basis functions
    19 alpha electrons       19 beta electrons
       nuclear repulsion energy       178.3715809216 Hartrees.
 Integral buffers will be    131072 words long.
 Regular integral format.
 Two-electron integral symmetry is turned off.
 Do NDO integrals.
 One-electron integrals computed using PRISM.
 NBasis=    34 RedAO= F EigKep=  0.00D+00  NBF=    34
 NBsUse=    34 1.00D-04 EigRej=  0.00D+00 NBFU=    34
 Simple Huckel Guess.
 Overlap will be assumed to be unity.
 Keep J ints in memory in canonical form, NReq=895124.
 Requested convergence on RMS density matrix=1.00D-08 within 128 cycles.
 Requested convergence on MAX density matrix=1.00D-06.
 Requested convergence on             energy=1.00D-06.
 No special actions if energy rises.
 SCF Done:  E(RPM6) = -0.166072106998     A.U. after   14 cycles
            NFock= 13  Conv=0.28D-08     -V/T= 0.9925

 **********************************************************************

            Population analysis using the SCF density.

 **********************************************************************

 Orbital symmetries:
       Occupied  (A) (A) (A) (A) (A) (A) (A) (A) (A) (A) (A) (A)
                 (A) (A) (A) (A) (A) (A) (A)
       Virtual   (A) (A) (A) (A) (A) (A) (A) (A) (A) (A) (A) (A)
                 (A) (A) (A)
 The electronic state is 1-A.
 Alpha  occ. eigenvalues --   -1.12270  -1.08328  -1.02586  -0.93610  -0.83153
 Alpha  occ. eigenvalues --   -0.74400  -0.68718  -0.64119  -0.60285  -0.56123
 Alpha  occ. eigenvalues --   -0.55822  -0.52720  -0.49519  -0.48672  -0.46059
 Alpha  occ. eigenvalues --   -0.44242  -0.42086  -0.39690  -0.36808
 Alpha virt. eigenvalues --    0.08479   0.12629   0.12963   0.14051   0.15015
 Alpha virt. eigenvalues --    0.18668   0.19195   0.19377   0.20182   0.20516
 Alpha virt. eigenvalues --    0.20680   0.22031   0.22627   0.23311   0.24543
          Condensed to atoms (all electrons):
               1          2          3          4          5          6
     1  C    4.324937   0.000000   0.000000   0.000000   0.000000   0.000000
     2  C    0.000000   3.977634   0.000000   0.000000   0.000000   0.000000
     3  O    0.000000   0.000000   6.554956   0.000000   0.000000   0.000000
     4  C    0.000000   0.000000   0.000000   4.276902   0.000000   0.000000
     5  C    0.000000   0.000000   0.000000   0.000000   4.002815   0.000000
     6  O    0.000000   0.000000   0.000000   0.000000   0.000000   6.547679
     7  H    0.000000   0.000000   0.000000   0.000000   0.000000   0.000000
     8  H    0.000000   0.000000   0.000000   0.000000   0.000000   0.000000
     9  H    0.000000   0.000000   0.000000   0.000000   0.000000   0.000000
    10  H    0.000000   0.000000   0.000000   0.000000   0.000000   0.000000
    11  H    0.000000   0.000000   0.000000   0.000000   0.000000   0.000000
    12  H    0.000000   0.000000   0.000000   0.000000   0.000000   0.000000
    13  H    0.000000   0.000000   0.000000   0.000000   0.000000   0.000000
    14  H    0.000000   0.000000   0.000000   0.000000   0.000000   0.000000
    15  H    0.000000   0.000000   0.000000   0.000000   0.000000   0.000000
    16  H    0.000000   0.000000   0.000000   0.000000   0.000000   0.000000
               7          8          9         10         11         12
     1  C    0.000000   0.000000   0.000000   0.000000   0.000000   0.000000
     2  C    0.000000   0.000000   0.000000   0.000000   0.000000   0.000000
     3  O    0.000000   0.000000   0.000000   0.000000   0.000000   0.000000
     4  C    0.000000   0.000000   0.000000   0.000000   0.000000   0.000000
     5  C    0.000000   0.000000   0.000000   0.000000   0.000000   0.000000
     6  O    0.000000   0.000000   0.000000   0.000000   0.000000   0.000000
     7  H    0.860597   0.000000   0.000000   0.000000   0.000000   0.000000
     8  H    0.000000   0.848330   0.000000   0.000000   0.000000   0.000000
     9  H    0.000000   0.000000   0.872631   0.000000   0.000000   0.000000
    10  H    0.000000   0.000000   0.000000   0.891869   0.000000   0.000000
    11  H    0.000000   0.000000   0.000000   0.000000   0.671640   0.000000
    12  H    0.000000   0.000000   0.000000   0.000000   0.000000   0.845058
    13  H    0.000000   0.000000   0.000000   0.000000   0.000000   0.000000
    14  H    0.000000   0.000000   0.000000   0.000000   0.000000   0.000000
    15  H    0.000000   0.000000   0.000000   0.000000   0.000000   0.000000
    16  H    0.000000   0.000000   0.000000   0.000000   0.000000   0.000000
              13         14         15         16
     1  C    0.000000   0.000000   0.000000   0.000000
     2  C    0.000000   0.000000   0.000000   0.000000
     3  O    0.000000   0.000000   0.000000   0.000000
     4  C    0.000000   0.000000   0.000000   0.000000
     5  C    0.000000   0.000000   0.000000   0.000000
     6  O    0.000000   0.000000   0.000000   0.000000
     7  H    0.000000   0.000000   0.000000   0.000000
     8  H    0.000000   0.000000   0.000000   0.000000
     9  H    0.000000   0.000000   0.000000   0.000000
    10  H    0.000000   0.000000   0.000000   0.000000
    11  H    0.000000   0.000000   0.000000   0.000000
    12  H    0.000000   0.000000   0.000000   0.000000
    13  H    0.861761   0.000000   0.000000   0.000000
    14  H    0.000000   0.890306   0.000000   0.000000
    15  H    0.000000   0.000000   0.881411   0.000000
    16  H    0.000000   0.000000   0.000000   0.691476
 Mulliken charges:
               1
     1  C   -0.324937
     2  C    0.022366
     3  O   -0.554956
     4  C   -0.276902
     5  C   -0.002815
     6  O   -0.547679
     7  H    0.139403
     8  H    0.151670
     9  H    0.127369
    10  H    0.108131
    11  H    0.328360
    12  H    0.154942
    13  H    0.138239
    14  H    0.109694
    15  H    0.118589
    16  H    0.308524
 Sum of Mulliken charges =   0.00000
 Mulliken charges with hydrogens summed into heavy atoms:
               1
     1  C   -0.033864
     2  C    0.257867
     3  O   -0.226596
     4  C    0.016280
     5  C    0.225469
     6  O   -0.239155
 Charge=              0.0000 electrons
 Dipole moment (field-independent basis, Debye):
    X=             -2.4321    Y=              2.2732    Z=              0.2742  Tot=              3.3403
 N-N= 1.783715809216D+02 E-N=-3.102375222447D+02  KE=-2.205359255064D+01
 Calling FoFJK, ICntrl=      2127 FMM=F ISym2X=0 I1Cent= 0 IOpClX= 0 NMat=1 NMatS=1 NMatT=0.
 ***** Axes restored to original set *****
 -------------------------------------------------------------------
 Center     Atomic                   Forces (Hartrees/Bohr)
 Number     Number              X              Y              Z
 -------------------------------------------------------------------
      1        6           0.009796435    0.003215091    0.004073442
      2        6          -0.003376037   -0.017471445   -0.007261912
      3        8          -0.006161462   -0.001971959    0.000064143
      4        6          -0.004959251    0.006860345   -0.005712729
      5        6          -0.005870496   -0.007850151    0.009766256
      6        8          -0.001462685   -0.002731805   -0.002445121
      7        1          -0.003067658   -0.004279788   -0.000241096
      8        1          -0.000694489    0.000920683    0.005240258
      9        1          -0.006365225    0.005482029    0.001287122
     10        1           0.003178122    0.004803619   -0.001925983
     11        1           0.012578810    0.008463690    0.001978608
     12        1          -0.000404723   -0.000862511   -0.006696698
     13        1          -0.000026427   -0.006744019    0.002238340
     14        1           0.005659256    0.000741602   -0.001139174
     15        1          -0.001419672    0.005754555    0.001499446
     16        1           0.002595503    0.005670062   -0.000724900
 -------------------------------------------------------------------
 Cartesian Forces:  Max     0.017471445 RMS     0.005499725

 GradGradGradGradGradGradGradGradGradGradGradGradGradGradGradGradGradGrad
 Berny optimization.
 FormGI is forming the generalized inverse of G from B-inverse, IUseBI=4.
 Internal  Forces:  Max     0.015614979 RMS     0.003962336
 Search for a local minimum.
 Step number   1 out of a maximum of   84
 All quantities printed in internal units (Hartrees-Bohrs-Radians)
 Mixed Optimization -- RFO/linear search
 Second derivative matrix not updated -- first step.
 ITU=  0
     Eigenvalues ---    0.00230   0.00300   0.00412   0.01191   0.01493
     Eigenvalues ---    0.03094   0.03096   0.04594   0.04691   0.04711
     Eigenvalues ---    0.05131   0.05871   0.05894   0.08956   0.09056
     Eigenvalues ---    0.11250   0.11807   0.12656   0.12716   0.13729
     Eigenvalues ---    0.14096   0.16000   0.16000   0.21997   0.22001
     Eigenvalues ---    0.22010   0.22052   0.28459   0.28949   0.29721
     Eigenvalues ---    0.33170   0.33660   0.33732   0.33752   0.33798
     Eigenvalues ---    0.33804   0.33862   0.34101   0.39880   0.43219
     Eigenvalues ---    0.51864   0.53414
 RFO step:  Lambda=-6.19625769D-03 EMin= 2.30000000D-03
 Linear search not attempted -- first point.
 Iteration  1 RMS(Cart)=  0.04921079 RMS(Int)=  0.00180608
 Iteration  2 RMS(Cart)=  0.00241061 RMS(Int)=  0.00040955
 Iteration  3 RMS(Cart)=  0.00000449 RMS(Int)=  0.00040954
 Iteration  4 RMS(Cart)=  0.00000000 RMS(Int)=  0.00040954
 Variable       Old X    -DE/DX   Delta X   Delta X   Delta X     New X
                                 (Linear)    (Quad)   (Total)
    R1        2.90109   0.00307   0.00000   0.01038   0.01038   2.91148
    R2        2.91146  -0.00591   0.00000  -0.02034  -0.02034   2.89112
    R3        2.07785   0.00512   0.00000   0.01491   0.01491   2.09276
    R4        2.07672   0.00528   0.00000   0.01535   0.01535   2.09208
    R5        2.67400   0.00824   0.00000   0.01880   0.01880   2.69280
    R6        2.07159   0.00628   0.00000   0.01808   0.01808   2.08967
    R7        2.08754   0.00193   0.00000   0.00572   0.00572   2.09326
    R8        1.84730   0.01274   0.00000   0.02428   0.02428   1.87158
    R9        2.88522   0.00342   0.00000   0.01129   0.01129   2.89651
   R10        2.07662   0.00628   0.00000   0.01825   0.01825   2.09487
   R11        2.07563   0.00680   0.00000   0.01973   0.01973   2.09535
   R12        2.71717   0.00439   0.00000   0.01084   0.01084   2.72801
   R13        2.07750   0.00459   0.00000   0.01335   0.01335   2.09085
   R14        2.07908   0.00377   0.00000   0.01101   0.01101   2.09009
   R15        1.83269   0.00519   0.00000   0.00960   0.00960   1.84229
    A1        2.03773  -0.00518   0.00000  -0.02376  -0.02375   2.01397
    A2        1.88309   0.00136   0.00000   0.00398   0.00392   1.88701
    A3        1.88649   0.00239   0.00000   0.01446   0.01445   1.90094
    A4        1.87681   0.00160   0.00000   0.00438   0.00435   1.88116
    A5        1.91208   0.00107   0.00000   0.00346   0.00354   1.91562
    A6        1.85981  -0.00099   0.00000  -0.00102  -0.00109   1.85872
    A7        1.98940  -0.00275   0.00000  -0.01999  -0.01975   1.96965
    A8        1.89641   0.00415   0.00000   0.03171   0.03074   1.92715
    A9        1.90936   0.00421   0.00000   0.03509   0.03431   1.94367
   A10        1.85128  -0.00335   0.00000  -0.04204  -0.04184   1.80945
   A11        1.94589  -0.00243   0.00000  -0.02898  -0.02872   1.91717
   A12        1.86604   0.00030   0.00000   0.02668   0.02486   1.89090
   A13        1.84970   0.01561   0.00000   0.09396   0.09396   1.94366
   A14        2.04378  -0.00597   0.00000  -0.02800  -0.02797   2.01581
   A15        1.92346   0.00037   0.00000  -0.00769  -0.00756   1.91590
   A16        1.88779   0.00065   0.00000  -0.00370  -0.00353   1.88426
   A17        1.88282   0.00332   0.00000   0.02001   0.01973   1.90255
   A18        1.86120   0.00289   0.00000   0.01938   0.01918   1.88038
   A19        1.85519  -0.00082   0.00000   0.00333   0.00302   1.85821
   A20        1.91211  -0.00696   0.00000  -0.03834  -0.03820   1.87391
   A21        1.90902   0.00380   0.00000   0.02699   0.02605   1.93507
   A22        1.92548   0.00442   0.00000   0.03231   0.03150   1.95698
   A23        1.90259  -0.00051   0.00000  -0.02301  -0.02275   1.87984
   A24        1.92898  -0.00032   0.00000  -0.01906  -0.01868   1.91030
   A25        1.88525  -0.00031   0.00000   0.02191   0.02061   1.90586
   A26        1.88799   0.00648   0.00000   0.03898   0.03898   1.92698
    D1       -1.25573  -0.00079   0.00000  -0.05237  -0.05235  -1.30807
    D2        2.96737   0.00229   0.00000  -0.00880  -0.00822   2.95915
    D3        0.93598  -0.00272   0.00000  -0.07782  -0.07833   0.85765
    D4        2.91299  -0.00041   0.00000  -0.04503  -0.04503   2.86796
    D5        0.85290   0.00266   0.00000  -0.00147  -0.00090   0.85200
    D6       -1.17849  -0.00235   0.00000  -0.07048  -0.07101  -1.24950
    D7        0.90819  -0.00117   0.00000  -0.05320  -0.05325   0.85493
    D8       -1.15190   0.00191   0.00000  -0.00963  -0.00913  -1.16102
    D9        3.09990  -0.00310   0.00000  -0.07865  -0.07924   3.02066
   D10        1.18771   0.00052   0.00000   0.03836   0.03839   1.22610
   D11       -0.97241   0.00034   0.00000   0.03954   0.03946  -0.93295
   D12       -2.99368   0.00076   0.00000   0.04184   0.04190  -2.95178
   D13       -2.97770   0.00004   0.00000   0.03091   0.03094  -2.94676
   D14        1.14536  -0.00014   0.00000   0.03210   0.03201   1.17738
   D15       -0.87591   0.00028   0.00000   0.03439   0.03446  -0.84145
   D16       -0.96308   0.00030   0.00000   0.03388   0.03389  -0.92919
   D17       -3.12320   0.00012   0.00000   0.03506   0.03496  -3.08824
   D18        1.13871   0.00053   0.00000   0.03736   0.03741   1.17612
   D19        1.14649   0.00013   0.00000   0.00516   0.00502   1.15151
   D20       -3.05091   0.00142   0.00000   0.00448   0.00459  -3.04632
   D21       -1.02578  -0.00141   0.00000  -0.00295  -0.00293  -1.02871
   D22       -1.32990  -0.00055   0.00000  -0.05024  -0.05020  -1.38010
   D23        2.86882   0.00197   0.00000  -0.01534  -0.01487   2.85395
   D24        0.79747  -0.00265   0.00000  -0.07827  -0.07875   0.71872
   D25        0.85074  -0.00171   0.00000  -0.06466  -0.06481   0.78593
   D26       -1.23372   0.00081   0.00000  -0.02976  -0.02947  -1.26320
   D27        2.97812  -0.00381   0.00000  -0.09269  -0.09335   2.88476
   D28        2.83753   0.00029   0.00000  -0.04206  -0.04186   2.79567
   D29        0.75306   0.00281   0.00000  -0.00715  -0.00653   0.74653
   D30       -1.31829  -0.00181   0.00000  -0.07009  -0.07041  -1.38869
   D31        3.10743   0.00009   0.00000  -0.00318  -0.00323   3.10420
   D32       -1.08733   0.00025   0.00000  -0.00716  -0.00680  -1.09414
   D33        0.98216  -0.00063   0.00000  -0.00586  -0.00617   0.97599
         Item               Value     Threshold  Converged?
 Maximum Force            0.015615     0.000450     NO 
 RMS     Force            0.003962     0.000300     NO 
 Maximum Displacement     0.165225     0.001800     NO 
 RMS     Displacement     0.048759     0.001200     NO 
 Predicted change in Energy=-3.421905D-03
 GradGradGradGradGradGradGradGradGradGradGradGradGradGradGradGradGradGrad

                          Input orientation:                          
 ---------------------------------------------------------------------
 Center     Atomic      Atomic             Coordinates (Angstroms)
 Number     Number       Type             X           Y           Z
 ---------------------------------------------------------------------
      1          6           0        1.618569    1.237922    1.972283
      2          6           0        1.155307    2.358914    1.022293
      3          8           0        1.510069    3.658870    1.485749
      4          6           0        3.115763    0.925175    1.937107
      5          6           0        4.028814    2.001146    2.535438
      6          8           0        4.171963    3.043288    1.546789
      7          1           0        1.073261    0.312071    1.704204
      8          1           0        1.313978    1.494235    3.005316
      9          1           0        0.051061    2.391210    0.973244
     10          1           0        1.545418    2.205792   -0.003074
     11          1           0        2.492400    3.784952    1.489433
     12          1           0        3.432102    0.722338    0.894185
     13          1           0        3.282510   -0.012925    2.504233
     14          1           0        5.036140    1.592860    2.742288
     15          1           0        3.612396    2.430651    3.465715
     16          1           0        4.719950    3.770101    1.895897
 ---------------------------------------------------------------------
                    Distance matrix (angstroms):
                    1          2          3          4          5
     1  C    0.000000
     2  C    1.540686   0.000000
     3  O    2.471735   1.424968   0.000000
     4  C    1.529914   2.595357   3.202353   0.000000
     5  C    2.590161   3.267208   3.192800   1.532767   0.000000
     6  O    3.155980   3.137463   2.732827   2.398814   1.443600
     7  H    1.107442   2.159005   3.382246   2.145216   3.504171
     8  H    1.107081   2.169153   2.652014   2.170559   2.801442
     9  H    2.187517   1.105807   1.999582   3.531386   4.291284
    10  H    2.200945   1.107705   2.080692   2.805399   3.557131
    11  H    2.735706   2.009882   0.990396   2.960966   2.576172
    12  H    2.171871   2.806882   3.559126   1.108557   2.164515
    13  H    2.148556   3.513796   4.202492   1.108814   2.148121
    14  H    3.521176   4.313477   4.275565   2.186771   1.106431
    15  H    2.761936   3.465941   3.138242   2.202214   1.106026
    16  H    4.004538   3.932088   3.237890   3.266300   2.003967
                    6          7          8          9         10
     6  O    0.000000
     7  H    4.133555   0.000000
     8  H    3.562996   1.774359   0.000000
     9  H    4.211412   2.429406   2.555159   0.000000
    10  H    3.162627   2.593050   3.100046   1.794626   0.000000
    11  H    1.836923   3.757791   2.988974   2.858165   2.370253
    12  H    2.521922   2.527564   3.088550   3.771316   2.562281
    13  H    3.323893   2.372014   2.529374   4.308835   3.771841
    14  H    2.068758   4.292138   3.732747   5.349569   4.483061
    15  H    2.090626   3.746800   2.524197   4.347077   4.044188
    16  H    0.974896   5.029220   4.243940   4.954912   4.016317
                   11         12         13         14         15
    11  H    0.000000
    12  H    3.258368   0.000000
    13  H    4.009734   1.776300   0.000000
    14  H    3.584065   2.597350   2.389651   0.000000
    15  H    2.644658   3.092508   2.646571   1.803409   0.000000
    16  H    2.264379   3.456998   4.092382   2.357271   2.342036
                   16
    16  H    0.000000
 Stoichiometry    C4H10O2
 Framework group  C1[X(C4H10O2)]
 Deg. of freedom    42
 Full point group                 C1      NOp   1
 Largest Abelian subgroup         C1      NOp   1
 Largest concise Abelian subgroup C1      NOp   1
                         Standard orientation:                         
 ---------------------------------------------------------------------
 Center     Atomic      Atomic             Coordinates (Angstroms)
 Number     Number       Type             X           Y           Z
 ---------------------------------------------------------------------
      1          6           0        0.808113    1.162677    0.220614
      2          6           0        1.621293   -0.030727   -0.316266
      3          8           0        1.296382   -1.257828    0.331183
      4          6           0       -0.651187    1.220329   -0.235191
      5          6           0       -1.570629    0.146985    0.358048
      6          8           0       -1.337019   -1.074052   -0.375761
      7          1           0        1.303755    2.095109   -0.113060
      8          1           0        0.854869    1.160267    1.326704
      9          1           0        2.696392    0.104562   -0.095659
     10          1           0        1.501429   -0.140426   -1.411989
     11          1           0        0.366881   -1.535758    0.132015
     12          1           0       -0.700946    1.167183   -1.341355
     13          1           0       -1.059781    2.210703    0.050603
     14          1           0       -2.634160    0.421451    0.224785
     15          1           0       -1.371249   -0.024985    1.432277
     16          1           0       -1.877639   -1.798650   -0.010918
 ---------------------------------------------------------------------
 Rotational constants (GHZ):      4.5322913      2.9445255      2.0074373
 Standard basis: VSTO-6G (5D, 7F)
 There are    34 symmetry adapted cartesian basis functions of A   symmetry.
 There are    34 symmetry adapted basis functions of A   symmetry.
    34 basis functions,   204 primitive gaussians,    34 cartesian basis functions
    19 alpha electrons       19 beta electrons
       nuclear repulsion energy       178.5518473727 Hartrees.
 Integral buffers will be    131072 words long.
 Regular integral format.
 Two-electron integral symmetry is turned off.
 Do NDO integrals.
 One-electron integrals computed using PRISM.
 NBasis=    34 RedAO= F EigKep=  0.00D+00  NBF=    34
 NBsUse=    34 1.00D-04 EigRej=  0.00D+00 NBFU=    34
 Initial guess from the checkpoint file:  "1-4-butanediol-opt.chk"
 B after Tr=     0.000000   -0.000000   -0.000000
         Rot=    0.999991   -0.000961   -0.000631   -0.004071 Ang=  -0.48 deg.
 Overlap will be assumed to be unity.
 Keep J ints in memory in canonical form, NReq=895124.
 Requested convergence on RMS density matrix=1.00D-08 within 128 cycles.
 Requested convergence on MAX density matrix=1.00D-06.
 Requested convergence on             energy=1.00D-06.
 No special actions if energy rises.
 SCF Done:  E(RPM6) = -0.169245595640     A.U. after   12 cycles
            NFock= 11  Conv=0.36D-08     -V/T= 0.9923
 Calling FoFJK, ICntrl=      2127 FMM=F ISym2X=0 I1Cent= 0 IOpClX= 0 NMat=1 NMatS=1 NMatT=0.
 ***** Axes restored to original set *****
 -------------------------------------------------------------------
 Center     Atomic                   Forces (Hartrees/Bohr)
 Number     Number              X              Y              Z
 -------------------------------------------------------------------
      1        6          -0.000276214    0.004062378   -0.000492344
      2        6           0.003554387   -0.005756056   -0.001594056
      3        8          -0.005657438    0.000804205    0.001393089
      4        6           0.002126877    0.003323494   -0.000819833
      5        6          -0.001490693   -0.004614777    0.004672485
      6        8          -0.001419964    0.000531155   -0.002935018
      7        1          -0.001829884   -0.000355036    0.000761319
      8        1          -0.000532695    0.000892329    0.000198413
      9        1          -0.000464988    0.001999640    0.001202951
     10        1           0.001370884    0.001411274    0.001707732
     11        1           0.001882965   -0.003119140   -0.001629475
     12        1           0.000570981    0.000876330   -0.000940001
     13        1           0.001266425   -0.001275013   -0.000568967
     14        1           0.000072879    0.000188157   -0.000347257
     15        1          -0.000488326    0.000989227   -0.001487592
     16        1           0.001314803    0.000041830    0.000878553
 -------------------------------------------------------------------
 Cartesian Forces:  Max     0.005756056 RMS     0.002128203

 GradGradGradGradGradGradGradGradGradGradGradGradGradGradGradGradGradGrad
 Berny optimization.
 Using GEDIIS/GDIIS optimizer.
 FormGI is forming the generalized inverse of G from B-inverse, IUseBI=4.
 Internal  Forces:  Max     0.006913577 RMS     0.001329086
 Search for a local minimum.
 Step number   2 out of a maximum of   84
 All quantities printed in internal units (Hartrees-Bohrs-Radians)
 Mixed Optimization -- RFO/linear search
 Update second derivatives using D2CorX and points    1    2
 DE= -3.17D-03 DEPred=-3.42D-03 R= 9.27D-01
 TightC=F SS=  1.41D+00  RLast= 3.05D-01 DXNew= 5.0454D-01 9.1548D-01
 Trust test= 9.27D-01 RLast= 3.05D-01 DXMaxT set to 5.05D-01
 ITU=  1  0
 Use linear search instead of GDIIS.
     Eigenvalues ---    0.00220   0.00305   0.00405   0.01193   0.01492
     Eigenvalues ---    0.03202   0.03238   0.04689   0.04720   0.04761
     Eigenvalues ---    0.04977   0.05351   0.05655   0.08726   0.08901
     Eigenvalues ---    0.11226   0.11696   0.12497   0.12532   0.13561
     Eigenvalues ---    0.14016   0.15974   0.19734   0.21265   0.21983
     Eigenvalues ---    0.22044   0.22058   0.28510   0.29390   0.30855
     Eigenvalues ---    0.33001   0.33484   0.33721   0.33761   0.33799
     Eigenvalues ---    0.33841   0.34011   0.34342   0.39694   0.44682
     Eigenvalues ---    0.51262   0.53301
 RFO step:  Lambda=-1.89759090D-03 EMin= 2.19838519D-03
 Quartic linear search produced a step of  0.04210.
 Iteration  1 RMS(Cart)=  0.07767126 RMS(Int)=  0.00207767
 Iteration  2 RMS(Cart)=  0.00432402 RMS(Int)=  0.00012837
 Iteration  3 RMS(Cart)=  0.00000953 RMS(Int)=  0.00012829
 Iteration  4 RMS(Cart)=  0.00000000 RMS(Int)=  0.00012829
 Variable       Old X    -DE/DX   Delta X   Delta X   Delta X     New X
                                 (Linear)    (Quad)   (Total)
    R1        2.91148  -0.00426   0.00044  -0.01305  -0.01262   2.89886
    R2        2.89112   0.00193  -0.00086   0.00344   0.00258   2.89370
    R3        2.09276   0.00101   0.00063   0.00550   0.00613   2.09889
    R4        2.09208   0.00054   0.00065   0.00416   0.00480   2.09688
    R5        2.69280  -0.00313   0.00079  -0.00415  -0.00336   2.68944
    R6        2.08967   0.00047   0.00076   0.00439   0.00516   2.09483
    R7        2.09326  -0.00129   0.00024  -0.00296  -0.00272   2.09054
    R8        1.87158   0.00146   0.00102   0.00689   0.00791   1.87949
    R9        2.89651  -0.00290   0.00048  -0.00793  -0.00746   2.88905
   R10        2.09487   0.00089   0.00077   0.00568   0.00645   2.10131
   R11        2.09535   0.00098   0.00083   0.00619   0.00702   2.10237
   R12        2.72801   0.00181   0.00046   0.00638   0.00683   2.73484
   R13        2.09085  -0.00007   0.00056   0.00202   0.00258   2.09343
   R14        2.09009  -0.00068   0.00046  -0.00021   0.00026   2.09034
   R15        1.84229   0.00108   0.00040   0.00365   0.00405   1.84634
    A1        2.01397  -0.00125  -0.00100  -0.00895  -0.00993   2.00404
    A2        1.88701  -0.00046   0.00016  -0.00669  -0.00650   1.88051
    A3        1.90094   0.00025   0.00061   0.00200   0.00263   1.90357
    A4        1.88116   0.00126   0.00018   0.01098   0.01112   1.89228
    A5        1.91562   0.00072   0.00015   0.00759   0.00773   1.92335
    A6        1.85872  -0.00048  -0.00005  -0.00495  -0.00505   1.85367
    A7        1.96965  -0.00094  -0.00083  -0.01271  -0.01350   1.95615
    A8        1.92715   0.00114   0.00129   0.01500   0.01588   1.94303
    A9        1.94367   0.00055   0.00144   0.01210   0.01319   1.95686
   A10        1.80945  -0.00116  -0.00176  -0.02398  -0.02566   1.78379
   A11        1.91717  -0.00037  -0.00121  -0.01405  -0.01518   1.90199
   A12        1.89090   0.00076   0.00105   0.02283   0.02325   1.91414
   A13        1.94366  -0.00691   0.00396  -0.02758  -0.02362   1.92003
   A14        2.01581  -0.00048  -0.00118  -0.00643  -0.00761   2.00821
   A15        1.91590   0.00049  -0.00032   0.00493   0.00462   1.92052
   A16        1.88426   0.00066  -0.00015   0.00421   0.00405   1.88831
   A17        1.90255   0.00001   0.00083   0.00304   0.00387   1.90643
   A18        1.88038  -0.00044   0.00081  -0.00359  -0.00279   1.87759
   A19        1.85821  -0.00023   0.00013  -0.00210  -0.00200   1.85621
   A20        1.87391  -0.00121  -0.00161  -0.01457  -0.01617   1.85774
   A21        1.93507   0.00016   0.00110   0.00544   0.00630   1.94137
   A22        1.95698   0.00078   0.00133   0.01197   0.01312   1.97010
   A23        1.87984  -0.00004  -0.00096  -0.00978  -0.01073   1.86911
   A24        1.91030  -0.00009  -0.00079  -0.00737  -0.00806   1.90224
   A25        1.90586   0.00034   0.00087   0.01272   0.01332   1.91918
   A26        1.92698  -0.00161   0.00164  -0.00359  -0.00195   1.92503
    D1       -1.30807  -0.00025  -0.00220  -0.04057  -0.04277  -1.35084
    D2        2.95915   0.00104  -0.00035  -0.01255  -0.01268   2.94647
    D3        0.85765  -0.00104  -0.00330  -0.05943  -0.06290   0.79475
    D4        2.86796  -0.00071  -0.00190  -0.04381  -0.04573   2.82223
    D5        0.85200   0.00059  -0.00004  -0.01580  -0.01565   0.83635
    D6       -1.24950  -0.00149  -0.00299  -0.06267  -0.06587  -1.31537
    D7        0.85493  -0.00002  -0.00224  -0.03544  -0.03770   0.81724
    D8       -1.16102   0.00128  -0.00038  -0.00743  -0.00761  -1.16863
    D9        3.02066  -0.00080  -0.00334  -0.05431  -0.05783   2.96283
   D10        1.22610   0.00089   0.00162   0.15127   0.15290   1.37900
   D11       -0.93295   0.00085   0.00166   0.14802   0.14969  -0.78326
   D12       -2.95178   0.00049   0.00176   0.14555   0.14732  -2.80446
   D13       -2.94676   0.00041   0.00130   0.14495   0.14622  -2.80054
   D14        1.17738   0.00037   0.00135   0.14170   0.14301   1.32039
   D15       -0.84145   0.00001   0.00145   0.13923   0.14064  -0.70081
   D16       -0.92919   0.00091   0.00143   0.14915   0.15060  -0.77859
   D17       -3.08824   0.00087   0.00147   0.14589   0.14739  -2.94085
   D18        1.17612   0.00051   0.00157   0.14343   0.14502   1.32114
   D19        1.15151   0.00008   0.00021   0.01311   0.01326   1.16477
   D20       -3.04632   0.00023   0.00019   0.00966   0.00996  -3.03636
   D21       -1.02871   0.00034  -0.00012   0.01734   0.01717  -1.01154
   D22       -1.38010  -0.00052  -0.00211  -0.07895  -0.08104  -1.46114
   D23        2.85395   0.00015  -0.00063  -0.06155  -0.06209   2.79186
   D24        0.71872  -0.00096  -0.00332  -0.09039  -0.09380   0.62492
   D25        0.78593  -0.00022  -0.00273  -0.07467  -0.07739   0.70855
   D26       -1.26320   0.00045  -0.00124  -0.05728  -0.05844  -1.32164
   D27        2.88476  -0.00065  -0.00393  -0.08611  -0.09015   2.79461
   D28        2.79567  -0.00072  -0.00176  -0.07749  -0.07923   2.71644
   D29        0.74653  -0.00005  -0.00027  -0.06009  -0.06028   0.68625
   D30       -1.38869  -0.00115  -0.00296  -0.08892  -0.09199  -1.48068
   D31        3.10420   0.00064  -0.00014   0.03343   0.03328   3.13748
   D32       -1.09414   0.00016  -0.00029   0.02666   0.02647  -1.06767
   D33        0.97599   0.00049  -0.00026   0.03215   0.03182   1.00781
         Item               Value     Threshold  Converged?
 Maximum Force            0.006914     0.000450     NO 
 RMS     Force            0.001329     0.000300     NO 
 Maximum Displacement     0.229767     0.001800     NO 
 RMS     Displacement     0.078616     0.001200     NO 
 Predicted change in Energy=-1.197002D-03
 GradGradGradGradGradGradGradGradGradGradGradGradGradGradGradGradGradGrad

                          Input orientation:                          
 ---------------------------------------------------------------------
 Center     Atomic      Atomic             Coordinates (Angstroms)
 Number     Number       Type             X           Y           Z
 ---------------------------------------------------------------------
      1          6           0        1.625553    1.265707    1.996294
      2          6           0        1.120009    2.321007    1.004349
      3          8           0        1.454990    3.642658    1.412394
      4          6           0        3.122582    0.958254    1.900410
      5          6           0        4.038222    1.981638    2.572411
      6          8           0        4.232719    3.048671    1.614266
      7          1           0        1.061833    0.327270    1.808732
      8          1           0        1.364804    1.582867    3.027159
      9          1           0        0.012240    2.356105    0.982775
     10          1           0        1.507207    2.151121   -0.017921
     11          1           0        2.440716    3.770256    1.376893
     12          1           0        3.420602    0.843926    0.835240
     13          1           0        3.306671   -0.026325    2.384595
     14          1           0        5.035674    1.549015    2.784878
     15          1           0        3.604741    2.403907    3.498359
     16          1           0        4.811137    3.740525    1.990268
 ---------------------------------------------------------------------
                    Distance matrix (angstroms):
                    1          2          3          4          5
     1  C    0.000000
     2  C    1.534010   0.000000
     3  O    2.453554   1.423192   0.000000
     4  C    1.531280   2.582696   3.197663   0.000000
     5  C    2.581751   3.330158   3.282942   1.528822   0.000000
     6  O    3.181544   3.254298   2.847692   2.384141   1.447215
     7  H    1.110686   2.150675   3.362061   2.157136   3.489847
     8  H    1.109623   2.167150   2.618844   2.179332   2.740981
     9  H    2.195214   1.108535   1.980232   3.531327   4.344617
    10  H    2.203412   1.106264   2.067175   2.777114   3.625545
    11  H    2.705718   1.995840   0.994584   2.940470   2.679634
    12  H    2.179024   2.739177   3.468377   1.111968   2.166473
    13  H    2.155524   3.492354   4.223190   1.112528   2.145311
    14  H    3.511560   4.370204   4.369022   2.188881   1.107798
    15  H    2.732926   3.521485   3.241479   2.208128   1.106162
    16  H    4.033944   4.075720   3.406940   3.255813   2.007478
                    6          7          8          9         10
     6  O    0.000000
     7  H    4.183104   0.000000
     8  H    3.517070   1.775635   0.000000
     9  H    4.323294   2.428996   2.570377   0.000000
    10  H    3.301219   2.619437   3.100920   1.810618   0.000000
    11  H    1.946356   3.733893   2.943745   2.837719   2.332068
    12  H    2.475342   2.603539   3.094648   3.731673   2.469357
    13  H    3.302510   2.344343   2.602543   4.300506   3.708291
    14  H    2.064955   4.270472   3.679012   5.397579   4.546239
    15  H    2.088034   3.692377   2.431759   4.385945   4.102167
    16  H    0.977040   5.073514   4.196169   5.095201   4.180309
                   11         12         13         14         15
    11  H    0.000000
    12  H    3.133204   0.000000
    13  H    4.022358   1.780679   0.000000
    14  H    3.694609   2.628059   2.373051   0.000000
    15  H    2.778936   3.091868   2.689859   1.813136   0.000000
    16  H    2.448674   3.414376   4.075300   2.341909   2.348675
                   16
    16  H    0.000000
 Stoichiometry    C4H10O2
 Framework group  C1[X(C4H10O2)]
 Deg. of freedom    42
 Full point group                 C1      NOp   1
 Largest Abelian subgroup         C1      NOp   1
 Largest concise Abelian subgroup C1      NOp   1
                         Standard orientation:                         
 ---------------------------------------------------------------------
 Center     Atomic      Atomic             Coordinates (Angstroms)
 Number     Number       Type             X           Y           Z
 ---------------------------------------------------------------------
      1          6           0        0.801462    1.134217    0.253755
      2          6           0        1.660456   -0.005999   -0.307691
      3          8           0        1.353727   -1.255931    0.299814
      4          6           0       -0.632793    1.181684   -0.280547
      5          6           0       -1.596336    0.183190    0.361239
      6          8           0       -1.414911   -1.069734   -0.339972
      7          1           0        1.302544    2.092306   -0.000420
      8          1           0        0.795757    1.072067    1.361622
      9          1           0        2.728968    0.126744   -0.044044
     10          1           0        1.556976   -0.104205   -1.404718
     11          1           0        0.433279   -1.538633    0.050708
     12          1           0       -0.633811    1.034957   -1.382792
     13          1           0       -1.037097    2.202308   -0.100033
     14          1           0       -2.650270    0.490114    0.212117
     15          1           0       -1.397779    0.025149    1.437898
     16          1           0       -2.005819   -1.754033    0.030392
 ---------------------------------------------------------------------
 Rotational constants (GHZ):      4.6455439      2.8031905      1.9594859
 Standard basis: VSTO-6G (5D, 7F)
 There are    34 symmetry adapted cartesian basis functions of A   symmetry.
 There are    34 symmetry adapted basis functions of A   symmetry.
    34 basis functions,   204 primitive gaussians,    34 cartesian basis functions
    19 alpha electrons       19 beta electrons
       nuclear repulsion energy       177.9611179022 Hartrees.
 Integral buffers will be    131072 words long.
 Regular integral format.
 Two-electron integral symmetry is turned off.
 Do NDO integrals.
 One-electron integrals computed using PRISM.
 NBasis=    34 RedAO= F EigKep=  0.00D+00  NBF=    34
 NBsUse=    34 1.00D-04 EigRej=  0.00D+00 NBFU=    34
 Initial guess from the checkpoint file:  "1-4-butanediol-opt.chk"
 B after Tr=     0.000000   -0.000000    0.000000
         Rot=    0.999995    0.002070    0.000836    0.002139 Ang=   0.35 deg.
 Overlap will be assumed to be unity.
 Keep J ints in memory in canonical form, NReq=895124.
 Requested convergence on RMS density matrix=1.00D-08 within 128 cycles.
 Requested convergence on MAX density matrix=1.00D-06.
 Requested convergence on             energy=1.00D-06.
 No special actions if energy rises.
 SCF Done:  E(RPM6) = -0.170183358377     A.U. after   12 cycles
            NFock= 11  Conv=0.36D-08     -V/T= 0.9923
 Calling FoFJK, ICntrl=      2127 FMM=F ISym2X=0 I1Cent= 0 IOpClX= 0 NMat=1 NMatS=1 NMatT=0.
 ***** Axes restored to original set *****
 -------------------------------------------------------------------
 Center     Atomic                   Forces (Hartrees/Bohr)
 Number     Number              X              Y              Z
 -------------------------------------------------------------------
      1        6          -0.001138133   -0.000834030   -0.000245934
      2        6          -0.000097470   -0.002063401   -0.001727793
      3        8           0.001385538    0.004686371    0.001546280
      4        6           0.000405184   -0.000966477    0.000811719
      5        6           0.000627415   -0.000183102    0.000974157
      6        8          -0.001578015    0.001373361   -0.001634068
      7        1          -0.000023683    0.000259388    0.001452717
      8        1           0.000142139    0.000374220   -0.000917292
      9        1           0.000274696   -0.001068375   -0.000206347
     10        1          -0.000196844   -0.000576186    0.000738498
     11        1           0.001117172   -0.001427123    0.000684208
     12        1           0.000123719    0.001068163    0.000858509
     13        1           0.000406084    0.000161874   -0.001770052
     14        1          -0.001116849   -0.000064555    0.000691182
     15        1          -0.000029025   -0.000071691   -0.001509691
     16        1          -0.000301928   -0.000668438    0.000253905
 -------------------------------------------------------------------
 Cartesian Forces:  Max     0.004686371 RMS     0.001160990

 GradGradGradGradGradGradGradGradGradGradGradGradGradGradGradGradGradGrad
 Berny optimization.
 Using GEDIIS/GDIIS optimizer.
 FormGI is forming the generalized inverse of G from B-inverse, IUseBI=4.
 Internal  Forces:  Max     0.006831182 RMS     0.001682676
 Search for a local minimum.
 Step number   3 out of a maximum of   84
 All quantities printed in internal units (Hartrees-Bohrs-Radians)
 Mixed Optimization -- RFO/linear search
 Update second derivatives using D2CorX and points    2    3
 DE= -9.38D-04 DEPred=-1.20D-03 R= 7.83D-01
 TightC=F SS=  1.41D+00  RLast= 5.24D-01 DXNew= 8.4853D-01 1.5731D+00
 Trust test= 7.83D-01 RLast= 5.24D-01 DXMaxT set to 8.49D-01
 ITU=  1  1  0
 Use linear search instead of GDIIS.
     Eigenvalues ---    0.00241   0.00341   0.00393   0.01169   0.01552
     Eigenvalues ---    0.03251   0.03505   0.04116   0.04733   0.04771
     Eigenvalues ---    0.05047   0.05557   0.05863   0.08615   0.08783
     Eigenvalues ---    0.11241   0.11742   0.12442   0.12504   0.13475
     Eigenvalues ---    0.13935   0.15899   0.16972   0.21790   0.22009
     Eigenvalues ---    0.22039   0.24703   0.28411   0.29551   0.31374
     Eigenvalues ---    0.33251   0.33606   0.33735   0.33768   0.33802
     Eigenvalues ---    0.33840   0.34110   0.34310   0.39562   0.48449
     Eigenvalues ---    0.51261   0.53516
 RFO step:  Lambda=-1.46982925D-03 EMin= 2.40582267D-03
 Quartic linear search produced a step of  0.00033.
 Iteration  1 RMS(Cart)=  0.07000112 RMS(Int)=  0.00183985
 Iteration  2 RMS(Cart)=  0.00227869 RMS(Int)=  0.00019260
 Iteration  3 RMS(Cart)=  0.00000174 RMS(Int)=  0.00019260
 Iteration  4 RMS(Cart)=  0.00000000 RMS(Int)=  0.00019260
 Variable       Old X    -DE/DX   Delta X   Delta X   Delta X     New X
                                 (Linear)    (Quad)   (Total)
    R1        2.89886  -0.00180  -0.00000  -0.01644  -0.01645   2.88241
    R2        2.89370  -0.00148   0.00000  -0.00228  -0.00228   2.89142
    R3        2.09889  -0.00045   0.00000   0.00391   0.00391   2.10280
    R4        2.09688  -0.00078   0.00000   0.00190   0.00191   2.09879
    R5        2.68944   0.00426  -0.00000   0.00582   0.00582   2.69526
    R6        2.09483  -0.00030   0.00000   0.00345   0.00345   2.09828
    R7        2.09054  -0.00066  -0.00000  -0.00417  -0.00417   2.08636
    R8        1.87949   0.00090   0.00000   0.00813   0.00813   1.88762
    R9        2.88905  -0.00172  -0.00000  -0.01166  -0.01166   2.87740
   R10        2.10131  -0.00090   0.00000   0.00296   0.00296   2.10428
   R11        2.10237  -0.00085   0.00000   0.00358   0.00359   2.10596
   R12        2.73484   0.00118   0.00000   0.00841   0.00841   2.74325
   R13        2.09343  -0.00085   0.00000  -0.00016  -0.00016   2.09327
   R14        2.09034  -0.00128   0.00000  -0.00329  -0.00329   2.08705
   R15        1.84634  -0.00055   0.00000   0.00245   0.00245   1.84879
    A1        2.00404  -0.00683  -0.00000  -0.03826  -0.03840   1.96565
    A2        1.88051   0.00287  -0.00000   0.01891   0.01932   1.89983
    A3        1.90357   0.00140   0.00000  -0.00693  -0.00736   1.89621
    A4        1.89228   0.00235   0.00000   0.03064   0.03087   1.92315
    A5        1.92335   0.00188   0.00000   0.00164   0.00097   1.92432
    A6        1.85367  -0.00127  -0.00000  -0.00275  -0.00281   1.85086
    A7        1.95615  -0.00398  -0.00000  -0.02792  -0.02804   1.92811
    A8        1.94303   0.00070   0.00001   0.01963   0.01949   1.96252
    A9        1.95686  -0.00014   0.00000   0.00219   0.00169   1.95856
   A10        1.78379   0.00234  -0.00001  -0.00203  -0.00181   1.78198
   A11        1.90199   0.00156  -0.00000  -0.01247  -0.01274   1.88925
   A12        1.91414  -0.00023   0.00001   0.02049   0.02022   1.93437
   A13        1.92003  -0.00235  -0.00001  -0.03407  -0.03408   1.88595
   A14        2.00821  -0.00550  -0.00000  -0.03039  -0.03055   1.97765
   A15        1.92052   0.00169   0.00000  -0.00037  -0.00094   1.91959
   A16        1.88831   0.00211   0.00000   0.02509   0.02527   1.91358
   A17        1.90643   0.00072   0.00000  -0.00988  -0.01025   1.89618
   A18        1.87759   0.00234  -0.00000   0.01933   0.01961   1.89720
   A19        1.85621  -0.00104  -0.00000  -0.00074  -0.00072   1.85549
   A20        1.85774  -0.00238  -0.00001  -0.02395  -0.02401   1.83374
   A21        1.94137   0.00058   0.00000   0.01126   0.01119   1.95256
   A22        1.97010   0.00011   0.00000   0.00611   0.00580   1.97590
   A23        1.86911   0.00164  -0.00000   0.00570   0.00580   1.87491
   A24        1.90224   0.00024  -0.00000  -0.01384  -0.01392   1.88832
   A25        1.91918  -0.00016   0.00000   0.01284   0.01270   1.93188
   A26        1.92503  -0.00100  -0.00000  -0.00761  -0.00761   1.91742
    D1       -1.35084   0.00155  -0.00001   0.04911   0.04883  -1.30201
    D2        2.94647   0.00063  -0.00000   0.05644   0.05642   3.00289
    D3        0.79475   0.00053  -0.00002   0.01352   0.01329   0.80804
    D4        2.82223   0.00089  -0.00002   0.02096   0.02085   2.84308
    D5        0.83635  -0.00003  -0.00001   0.02829   0.02844   0.86480
    D6       -1.31537  -0.00013  -0.00002  -0.01463  -0.01469  -1.33006
    D7        0.81724   0.00014  -0.00001   0.01774   0.01777   0.83501
    D8       -1.16863  -0.00078  -0.00000   0.02507   0.02536  -1.14327
    D9        2.96283  -0.00088  -0.00002  -0.01786  -0.01776   2.94506
   D10        1.37900  -0.00187   0.00005   0.02858   0.02885   1.40784
   D11       -0.78326  -0.00006   0.00005   0.06499   0.06514  -0.71812
   D12       -2.80446  -0.00092   0.00005   0.05191   0.05202  -2.75243
   D13       -2.80054  -0.00097   0.00005   0.05011   0.05013  -2.75041
   D14        1.32039   0.00084   0.00005   0.08651   0.08642   1.40681
   D15       -0.70081  -0.00002   0.00005   0.07344   0.07330  -0.62750
   D16       -0.77859  -0.00012   0.00005   0.06519   0.06531  -0.71328
   D17       -2.94085   0.00169   0.00005   0.10159   0.10161  -2.83925
   D18        1.32114   0.00083   0.00005   0.08852   0.08849   1.40962
   D19        1.16477  -0.00140   0.00000  -0.03892  -0.03879   1.12597
   D20       -3.03636  -0.00110   0.00000  -0.03024  -0.03013  -3.06649
   D21       -1.01154   0.00042   0.00001  -0.01310  -0.01333  -1.02486
   D22       -1.46114   0.00140  -0.00003  -0.02082  -0.02102  -1.48216
   D23        2.79186   0.00052  -0.00002  -0.01961  -0.01971   2.77215
   D24        0.62492   0.00021  -0.00003  -0.04992  -0.05014   0.57478
   D25        0.70855   0.00015  -0.00003  -0.05179  -0.05171   0.65684
   D26       -1.32164  -0.00073  -0.00002  -0.05058  -0.05039  -1.37203
   D27        2.79461  -0.00104  -0.00003  -0.08089  -0.08082   2.71379
   D28        2.71644   0.00055  -0.00003  -0.04742  -0.04747   2.66896
   D29        0.68625  -0.00033  -0.00002  -0.04621  -0.04616   0.64010
   D30       -1.48068  -0.00065  -0.00003  -0.07652  -0.07659  -1.55727
   D31        3.13748  -0.00049   0.00001   0.01701   0.01718  -3.12853
   D32       -1.06767  -0.00020   0.00001   0.02066   0.02070  -1.04696
   D33        1.00781   0.00066   0.00001   0.03163   0.03144   1.03925
         Item               Value     Threshold  Converged?
 Maximum Force            0.006831     0.000450     NO 
 RMS     Force            0.001683     0.000300     NO 
 Maximum Displacement     0.268607     0.001800     NO 
 RMS     Displacement     0.069769     0.001200     NO 
 Predicted change in Energy=-7.929120D-04
 GradGradGradGradGradGradGradGradGradGradGradGradGradGradGradGradGradGrad

                          Input orientation:                          
 ---------------------------------------------------------------------
 Center     Atomic      Atomic             Coordinates (Angstroms)
 Number     Number       Type             X           Y           Z
 ---------------------------------------------------------------------
      1          6           0        1.621307    1.255731    2.009851
      2          6           0        1.141435    2.306356    1.013624
      3          8           0        1.570481    3.606280    1.414078
      4          6           0        3.117235    0.961580    1.880221
      5          6           0        3.996380    1.991245    2.576903
      6          8           0        4.159641    3.063017    1.611508
      7          1           0        1.032304    0.323467    1.860916
      8          1           0        1.386041    1.606715    3.036965
      9          1           0        0.036504    2.416028    1.012470
     10          1           0        1.518257    2.117032   -0.006718
     11          1           0        2.568430    3.628115    1.376755
     12          1           0        3.404598    0.917121    0.805322
     13          1           0        3.339421   -0.044272    2.305475
     14          1           0        5.004286    1.589739    2.800382
     15          1           0        3.534273    2.413982    3.486571
     16          1           0        4.729107    3.764463    1.986777
 ---------------------------------------------------------------------
                    Distance matrix (angstroms):
                    1          2          3          4          5
     1  C    0.000000
     2  C    1.525306   0.000000
     3  O    2.425409   1.426270   0.000000
     4  C    1.530075   2.542283   3.099061   0.000000
     5  C    2.550195   3.270145   3.137752   1.522652   0.000000
     6  O    3.141353   3.168528   2.652897   2.361113   1.451667
     7  H    1.112755   2.159088   3.356510   2.180481   3.475610
     8  H    1.110632   2.154818   2.581867   2.179745   2.678318
     9  H    2.202875   1.110361   1.982693   3.515582   4.278844
    10  H    2.195224   1.104054   2.058943   2.729898   3.582180
    11  H    2.631740   1.978693   0.998885   2.768587   2.481681
    12  H    2.178457   2.663695   3.311517   1.113536   2.154634
    13  H    2.174699   3.467777   4.153344   1.114426   2.156060
    14  H    3.490135   4.315977   4.216550   2.191401   1.107711
    15  H    2.679866   3.442778   3.094071   2.205391   1.104421
    16  H    3.994081   3.993055   3.214020   3.235063   2.007346
                    6          7          8          9         10
     6  O    0.000000
     7  H    4.165042   0.000000
     8  H    3.441744   1.776217   0.000000
     9  H    4.216361   2.467852   2.564141   0.000000
    10  H    3.238896   2.634594   3.088998   1.823111   0.000000
    11  H    1.704816   3.676247   2.870609   2.830637   2.302223
    12  H    2.413482   2.663547   3.087126   3.692383   2.378545
    13  H    3.287795   2.378162   2.660175   4.316735   3.651590
    14  H    2.073016   4.273485   3.626011   5.343991   4.506688
    15  H    2.080431   3.643193   2.338530   4.284339   4.044201
    16  H    0.978337   5.051993   4.115198   4.978762   4.122814
                   11         12         13         14         15
    11  H    0.000000
    12  H    2.893994   0.000000
    13  H    3.865666   1.782971   0.000000
    14  H    3.480673   2.644178   2.384680   0.000000
    15  H    2.618835   3.073517   2.734222   1.819662   0.000000
    16  H    2.249276   3.355221   4.066848   2.338183   2.345380
                   16
    16  H    0.000000
 Stoichiometry    C4H10O2
 Framework group  C1[X(C4H10O2)]
 Deg. of freedom    42
 Full point group                 C1      NOp   1
 Largest Abelian subgroup         C1      NOp   1
 Largest concise Abelian subgroup C1      NOp   1
                         Standard orientation:                         
 ---------------------------------------------------------------------
 Center     Atomic      Atomic             Coordinates (Angstroms)
 Number     Number       Type             X           Y           Z
 ---------------------------------------------------------------------
      1          6           0        0.842760    1.115012    0.267694
      2          6           0        1.641345   -0.058845   -0.289872
      3          8           0        1.193798   -1.284793    0.285455
      4          6           0       -0.572194    1.191379   -0.309543
      5          6           0       -1.549445    0.236449    0.362437
      6          8           0       -1.374751   -1.029083   -0.326945
      7          1           0        1.394858    2.057893    0.057010
      8          1           0        0.802369    1.023518    1.373814
      9          1           0        2.707236   -0.031745    0.020034
     10          1           0        1.553521   -0.139705   -1.387453
     11          1           0        0.248809   -1.434663   -0.001438
     12          1           0       -0.550655    0.969235   -1.400484
     13          1           0       -0.962021    2.230583   -0.209365
     14          1           0       -2.601210    0.551607    0.215837
     15          1           0       -1.335489    0.077664    1.434237
     16          1           0       -1.984583   -1.697355    0.045427
 ---------------------------------------------------------------------
 Rotational constants (GHZ):      4.6821959      2.9975926      2.0591627
 Standard basis: VSTO-6G (5D, 7F)
 There are    34 symmetry adapted cartesian basis functions of A   symmetry.
 There are    34 symmetry adapted basis functions of A   symmetry.
    34 basis functions,   204 primitive gaussians,    34 cartesian basis functions
    19 alpha electrons       19 beta electrons
       nuclear repulsion energy       179.6073676462 Hartrees.
 Integral buffers will be    131072 words long.
 Regular integral format.
 Two-electron integral symmetry is turned off.
 Do NDO integrals.
 One-electron integrals computed using PRISM.
 NBasis=    34 RedAO= F EigKep=  0.00D+00  NBF=    34
 NBsUse=    34 1.00D-04 EigRej=  0.00D+00 NBFU=    34
 Initial guess from the checkpoint file:  "1-4-butanediol-opt.chk"
 B after Tr=    -0.000000    0.000000    0.000000
         Rot=    0.999812    0.002273    0.003866    0.018846 Ang=   2.22 deg.
 Overlap will be assumed to be unity.
 Keep J ints in memory in canonical form, NReq=895124.
 Requested convergence on RMS density matrix=1.00D-08 within 128 cycles.
 Requested convergence on MAX density matrix=1.00D-06.
 Requested convergence on             energy=1.00D-06.
 No special actions if energy rises.
 SCF Done:  E(RPM6) = -0.169412267484     A.U. after   12 cycles
            NFock= 11  Conv=0.23D-08     -V/T= 0.9923
 Calling FoFJK, ICntrl=      2127 FMM=F ISym2X=0 I1Cent= 0 IOpClX= 0 NMat=1 NMatS=1 NMatT=0.
 ***** Axes restored to original set *****
 -------------------------------------------------------------------
 Center     Atomic                   Forces (Hartrees/Bohr)
 Number     Number              X              Y              Z
 -------------------------------------------------------------------
      1        6          -0.002685863   -0.006265651    0.002179878
      2        6          -0.005356144    0.004705655   -0.002384201
      3        8          -0.002636503    0.002891091   -0.000234099
      4        6          -0.000298231   -0.006126526    0.000995311
      5        6           0.003839828    0.000362378    0.001495988
      6        8           0.006651498   -0.000243463   -0.000140609
      7        1           0.002330263    0.001441159    0.001056855
      8        1          -0.000196218   -0.000882882   -0.000317132
      9        1           0.001500935   -0.002624196   -0.000988032
     10        1          -0.001908626   -0.001361767   -0.001079440
     11        1           0.001121247    0.005795013   -0.000058094
     12        1           0.000064455   -0.000584528    0.000691481
     13        1          -0.000852228    0.002235681   -0.001859683
     14        1          -0.001522456    0.000582649    0.000576561
     15        1           0.000378097   -0.000617683    0.000422387
     16        1          -0.000430055    0.000693068   -0.000357172
 -------------------------------------------------------------------
 Cartesian Forces:  Max     0.006651498 RMS     0.002495032

 GradGradGradGradGradGradGradGradGradGradGradGradGradGradGradGradGradGrad
 Berny optimization.
 Using GEDIIS/GDIIS optimizer.
 FormGI is forming the generalized inverse of G from B-inverse, IUseBI=4.
 Internal  Forces:  Max     0.019929286 RMS     0.004946112
 Search for a local minimum.
 Step number   4 out of a maximum of   84
 All quantities printed in internal units (Hartrees-Bohrs-Radians)
 Mixed Optimization -- RFO/linear search
 Update second derivatives using D2CorX and points    2    4    3
 DE=  7.71D-04 DEPred=-7.93D-04 R=-9.72D-01
 Trust test=-9.72D-01 RLast= 3.06D-01 DXMaxT set to 4.24D-01
 ITU= -1  1  1  0
 Use linear search instead of GDIIS.
 Energy rises -- skip Quadratic/GDIIS search.
 Quartic linear search produced a step of -0.62280.
 Iteration  1 RMS(Cart)=  0.04316530 RMS(Int)=  0.00071021
 Iteration  2 RMS(Cart)=  0.00091325 RMS(Int)=  0.00004523
 Iteration  3 RMS(Cart)=  0.00000018 RMS(Int)=  0.00004523
 Variable       Old X    -DE/DX   Delta X   Delta X   Delta X     New X
                                 (Linear)    (Quad)   (Total)
    R1        2.88241   0.01187   0.01024   0.00000   0.01024   2.89265
    R2        2.89142   0.00821   0.00142   0.00000   0.00142   2.89284
    R3        2.10280  -0.00258  -0.00243   0.00000  -0.00243   2.10037
    R4        2.09879  -0.00053  -0.00119   0.00000  -0.00119   2.09760
    R5        2.69526   0.00738  -0.00362   0.00000  -0.00362   2.69164
    R6        2.09828  -0.00175  -0.00215   0.00000  -0.00215   2.09613
    R7        2.08636   0.00058   0.00260   0.00000   0.00260   2.08896
    R8        1.88762   0.00125  -0.00506   0.00000  -0.00506   1.88256
    R9        2.87740   0.00659   0.00726   0.00000   0.00726   2.88466
   R10        2.10428  -0.00063  -0.00185   0.00000  -0.00185   2.10243
   R11        2.10596  -0.00290  -0.00223   0.00000  -0.00223   2.10373
   R12        2.74325   0.00136  -0.00524   0.00000  -0.00524   2.73801
   R13        2.09327  -0.00148   0.00010   0.00000   0.00010   2.09337
   R14        2.08705  -0.00005   0.00205   0.00000   0.00205   2.08910
   R15        1.84879   0.00011  -0.00153   0.00000  -0.00153   1.84726
    A1        1.96565   0.01993   0.02391   0.00000   0.02395   1.98959
    A2        1.89983  -0.00598  -0.01203   0.00000  -0.01213   1.88770
    A3        1.89621  -0.00528   0.00459   0.00000   0.00469   1.90090
    A4        1.92315  -0.00861  -0.01922   0.00000  -0.01928   1.90387
    A5        1.92432  -0.00389  -0.00061   0.00000  -0.00045   1.92387
    A6        1.85086   0.00280   0.00175   0.00000   0.00177   1.85262
    A7        1.92811   0.01312   0.01746   0.00000   0.01749   1.94560
    A8        1.96252  -0.00508  -0.01214   0.00000  -0.01211   1.95041
    A9        1.95856  -0.00171  -0.00106   0.00000  -0.00094   1.95762
   A10        1.78198  -0.00460   0.00113   0.00000   0.00108   1.78305
   A11        1.88925  -0.00203   0.00793   0.00000   0.00799   1.89725
   A12        1.93437   0.00048  -0.01260   0.00000  -0.01253   1.92184
   A13        1.88595   0.01035   0.02122   0.00000   0.02122   1.90718
   A14        1.97765   0.01445   0.01903   0.00000   0.01907   1.99672
   A15        1.91959  -0.00227   0.00058   0.00000   0.00072   1.92030
   A16        1.91358  -0.00636  -0.01574   0.00000  -0.01578   1.89780
   A17        1.89618  -0.00375   0.00638   0.00000   0.00647   1.90265
   A18        1.89720  -0.00466  -0.01221   0.00000  -0.01228   1.88492
   A19        1.85549   0.00183   0.00045   0.00000   0.00045   1.85594
   A20        1.83374   0.00591   0.01495   0.00000   0.01496   1.84870
   A21        1.95256  -0.00107  -0.00697   0.00000  -0.00695   1.94561
   A22        1.97590  -0.00128  -0.00362   0.00000  -0.00354   1.97236
   A23        1.87491  -0.00375  -0.00361   0.00000  -0.00364   1.87127
   A24        1.88832   0.00028   0.00867   0.00000   0.00869   1.89701
   A25        1.93188   0.00007  -0.00791   0.00000  -0.00787   1.92400
   A26        1.91742   0.00130   0.00474   0.00000   0.00474   1.92216
    D1       -1.30201  -0.00554  -0.03041   0.00000  -0.03035  -1.33236
    D2        3.00289  -0.00492  -0.03514   0.00000  -0.03514   2.96776
    D3        0.80804  -0.00012  -0.00828   0.00000  -0.00823   0.79981
    D4        2.84308  -0.00367  -0.01299   0.00000  -0.01296   2.83011
    D5        0.86480  -0.00305  -0.01771   0.00000  -0.01775   0.84705
    D6       -1.33006   0.00175   0.00915   0.00000   0.00915  -1.32090
    D7        0.83501  -0.00098  -0.01107   0.00000  -0.01108   0.82393
    D8       -1.14327  -0.00036  -0.01580   0.00000  -0.01587  -1.15914
    D9        2.94506   0.00444   0.01106   0.00000   0.01104   2.95610
   D10        1.40784   0.00350  -0.01797   0.00000  -0.01802   1.38983
   D11       -0.71812  -0.00003  -0.04057   0.00000  -0.04060  -0.75871
   D12       -2.75243   0.00279  -0.03240   0.00000  -0.03241  -2.78485
   D13       -2.75041   0.00339  -0.03122   0.00000  -0.03121  -2.78162
   D14        1.40681  -0.00014  -0.05382   0.00000  -0.05379   1.35302
   D15       -0.62750   0.00268  -0.04565   0.00000  -0.04561  -0.67311
   D16       -0.71328  -0.00066  -0.04068   0.00000  -0.04069  -0.75398
   D17       -2.83925  -0.00419  -0.06328   0.00000  -0.06327  -2.90252
   D18        1.40962  -0.00137  -0.05511   0.00000  -0.05509   1.35453
   D19        1.12597   0.00351   0.02416   0.00000   0.02413   1.15011
   D20       -3.06649   0.00110   0.01877   0.00000   0.01874  -3.04775
   D21       -1.02486  -0.00140   0.00830   0.00000   0.00835  -1.01651
   D22       -1.48216  -0.00509   0.01309   0.00000   0.01313  -1.46903
   D23        2.77215  -0.00353   0.01227   0.00000   0.01229   2.78444
   D24        0.57478  -0.00172   0.03123   0.00000   0.03127   0.60606
   D25        0.65684  -0.00097   0.03220   0.00000   0.03218   0.68902
   D26       -1.37203   0.00059   0.03138   0.00000   0.03134  -1.34070
   D27        2.71379   0.00240   0.05034   0.00000   0.05031   2.76410
   D28        2.66896  -0.00329   0.02957   0.00000   0.02957   2.69854
   D29        0.64010  -0.00174   0.02875   0.00000   0.02873   0.66882
   D30       -1.55727   0.00008   0.04770   0.00000   0.04771  -1.50956
[...]
   D24        0.48959   0.00000   0.00007  -0.00003   0.00005   0.48964
   D25        0.56519   0.00000   0.00002  -0.00003  -0.00000   0.56519
   D26       -1.47232  -0.00000  -0.00002  -0.00004  -0.00005  -1.47238
   D27        2.63164   0.00000   0.00007  -0.00004   0.00003   2.63167
   D28        2.56664  -0.00000   0.00001  -0.00004  -0.00003   2.56660
   D29        0.52913  -0.00000  -0.00003  -0.00006  -0.00008   0.52904
   D30       -1.65009  -0.00000   0.00006  -0.00006   0.00000  -1.65009
   D31        3.08757  -0.00000   0.00009  -0.00014  -0.00005   3.08752
   D32       -1.10862   0.00000   0.00010  -0.00012  -0.00002  -1.10864
   D33        0.97115  -0.00000   0.00008  -0.00014  -0.00006   0.97109
         Item               Value     Threshold  Converged?
 Maximum Force            0.000022     0.000450     YES
 RMS     Force            0.000005     0.000300     YES
 Maximum Displacement     0.000257     0.001800     YES
 RMS     Displacement     0.000074     0.001200     YES
 Predicted change in Energy=-3.952010D-09
 Optimization completed.
    -- Stationary point found.
                           ----------------------------
                           !   Optimized Parameters   !
                           ! (Angstroms and Degrees)  !
 --------------------------                            --------------------------
 ! Name  Definition              Value          Derivative Info.                !
 --------------------------------------------------------------------------------
 ! R1    R(1,2)                  1.5345         -DE/DX =    0.0                 !
 ! R2    R(1,4)                  1.5324         -DE/DX =    0.0                 !
 ! R3    R(1,7)                  1.1075         -DE/DX =    0.0                 !
 ! R4    R(1,8)                  1.1088         -DE/DX =    0.0                 !
 ! R5    R(2,3)                  1.4294         -DE/DX =    0.0                 !
 ! R6    R(2,9)                  1.1066         -DE/DX =    0.0                 !
 ! R7    R(2,10)                 1.1047         -DE/DX =    0.0                 !
 ! R8    R(3,11)                 0.999          -DE/DX =    0.0                 !
 ! R9    R(4,5)                  1.5289         -DE/DX =    0.0                 !
 ! R10   R(4,12)                 1.1128         -DE/DX =    0.0                 !
 ! R11   R(4,13)                 1.1077         -DE/DX =    0.0                 !
 ! R12   R(5,6)                  1.451          -DE/DX =    0.0                 !
 ! R13   R(5,14)                 1.1043         -DE/DX =    0.0                 !
 ! R14   R(5,15)                 1.104          -DE/DX =    0.0                 !
 ! R15   R(6,16)                 0.9769         -DE/DX =    0.0                 !
 ! A1    A(2,1,4)              113.3582         -DE/DX =    0.0                 !
 ! A2    A(2,1,7)              108.9576         -DE/DX =    0.0                 !
 ! A3    A(2,1,8)              108.7729         -DE/DX =    0.0                 !
 ! A4    A(4,1,7)              109.4219         -DE/DX =    0.0                 !
 ! A5    A(4,1,8)              110.306          -DE/DX =    0.0                 !
 ! A6    A(7,1,8)              105.7339         -DE/DX =    0.0                 !
 ! A7    A(1,2,3)              111.7405         -DE/DX =    0.0                 !
 ! A8    A(1,2,9)              111.4313         -DE/DX =    0.0                 !
 ! A9    A(1,2,10)             111.9257         -DE/DX =    0.0                 !
 ! A10   A(3,2,9)              102.854          -DE/DX =    0.0                 !
 ! A11   A(3,2,10)             108.9398         -DE/DX =    0.0                 !
 ! A12   A(9,2,10)             109.5523         -DE/DX =    0.0                 !
 ! A13   A(2,3,11)             109.5077         -DE/DX =    0.0                 !
 ! A14   A(1,4,5)              113.7126         -DE/DX =    0.0                 !
 ! A15   A(1,4,12)             110.0873         -DE/DX =    0.0                 !
 ! A16   A(1,4,13)             109.5304         -DE/DX =    0.0                 !
 ! A17   A(5,4,12)             108.3302         -DE/DX =    0.0                 !
 ! A18   A(5,4,13)             109.1175         -DE/DX =    0.0                 !
 ! A19   A(12,4,13)            105.7491         -DE/DX =    0.0                 !
 ! A20   A(4,5,6)              105.227          -DE/DX =    0.0                 !
 ! A21   A(4,5,14)             111.9392         -DE/DX =    0.0                 !
 ! A22   A(4,5,15)             112.9775         -DE/DX =    0.0                 !
 ! A23   A(6,5,14)             107.7333         -DE/DX =    0.0                 !
 ! A24   A(6,5,15)             108.6614         -DE/DX =    0.0                 !
 ! A25   A(14,5,15)            110.015          -DE/DX =    0.0                 !
 ! A26   A(5,6,16)             110.115          -DE/DX =    0.0                 !
 ! D1    D(4,1,2,3)            -73.0623         -DE/DX =    0.0                 !
 ! D2    D(4,1,2,9)            172.4927         -DE/DX =    0.0                 !
 ! D3    D(4,1,2,10)            49.43           -DE/DX =    0.0                 !
 ! D4    D(7,1,2,3)            164.8425         -DE/DX =    0.0                 !
 ! D5    D(7,1,2,9)             50.3975         -DE/DX =    0.0                 !
 ! D6    D(7,1,2,10)           -72.6653         -DE/DX =    0.0                 !
 ! D7    D(8,1,2,3)             50.034          -DE/DX =    0.0                 !
 ! D8    D(8,1,2,9)            -64.4111         -DE/DX =    0.0                 !
 ! D9    D(8,1,2,10)           172.5262         -DE/DX =    0.0                 !
 ! D10   D(2,1,4,5)             83.7308         -DE/DX =    0.0                 !
 ! D11   D(2,1,4,12)           -38.0294         -DE/DX =    0.0                 !
 ! D12   D(2,1,4,13)          -153.9017         -DE/DX =    0.0                 !
 ! D13   D(7,1,4,5)           -154.4329         -DE/DX =    0.0                 !
 ! D14   D(7,1,4,12)            83.8069         -DE/DX =    0.0                 !
 ! D15   D(7,1,4,13)           -32.0655         -DE/DX =    0.0                 !
 ! D16   D(8,1,4,5)            -38.517          -DE/DX =    0.0                 !
 ! D17   D(8,1,4,12)          -160.2772         -DE/DX =    0.0                 !
 ! D18   D(8,1,4,13)            83.8504         -DE/DX =    0.0                 !
 ! D19   D(1,2,3,11)            62.0333         -DE/DX =    0.0                 !
 ! D20   D(9,2,3,11)          -178.332          -DE/DX =    0.0                 !
 ! D21   D(10,2,3,11)          -62.1502         -DE/DX =    0.0                 !
 ! D22   D(1,4,5,6)            -90.3478         -DE/DX =    0.0                 !
 ! D23   D(1,4,5,14)           152.9115         -DE/DX =    0.0                 !
 ! D24   D(1,4,5,15)            28.0514         -DE/DX =    0.0                 !
 ! D25   D(12,4,5,6)            32.3829         -DE/DX =    0.0                 !
 ! D26   D(12,4,5,14)          -84.3578         -DE/DX =    0.0                 !
 ! D27   D(12,4,5,15)          150.7821         -DE/DX =    0.0                 !
 ! D28   D(13,4,5,6)           147.0574         -DE/DX =    0.0                 !
 ! D29   D(13,4,5,14)           30.3166         -DE/DX =    0.0                 !
 ! D30   D(13,4,5,15)          -94.5435         -DE/DX =    0.0                 !
 ! D31   D(4,5,6,16)           176.9048         -DE/DX =    0.0                 !
 ! D32   D(14,5,6,16)          -63.5193         -DE/DX =    0.0                 !
 ! D33   D(15,5,6,16)           55.6427         -DE/DX =    0.0                 !
 --------------------------------------------------------------------------------
 GradGradGradGradGradGradGradGradGradGradGradGradGradGradGradGradGradGrad

                          Input orientation:                          
 ---------------------------------------------------------------------
 Center     Atomic      Atomic             Coordinates (Angstroms)
 Number     Number       Type             X           Y           Z
 ---------------------------------------------------------------------
      1          6           0        1.627039    1.262905    2.012331
      2          6           0        1.100862    2.301419    1.012689
      3          8           0        1.530034    3.623225    1.347240
      4          6           0        3.126138    0.982020    1.864068
      5          6           0        4.015328    1.986103    2.597937
      6          8           0        4.281268    3.036374    1.632681
      7          1           0        1.061048    0.319762    1.882746
      8          1           0        1.400558    1.610624    3.040518
      9          1           0       -0.001911    2.382185    1.056393
     10          1           0        1.414184    2.073789   -0.021934
     11          1           0        2.527249    3.669521    1.310395
     12          1           0        3.410690    0.983448    0.788240
     13          1           0        3.349985   -0.038151    2.232905
     14          1           0        4.984291    1.543526    2.888970
     15          1           0        3.523939    2.432942    3.479765
     16          1           0        4.808999    3.746908    2.046156
 ---------------------------------------------------------------------
                    Distance matrix (angstroms):
                    1          2          3          4          5
     1  C    0.000000
     2  C    1.534488   0.000000
     3  O    2.454153   1.429435   0.000000
     4  C    1.532376   2.562694   3.128997   0.000000
     5  C    2.563177   3.332649   3.228173   1.528858   0.000000
     6  O    3.214694   3.322579   2.827572   2.368171   1.451038
     7  H    1.107546   2.164613   3.379288   2.168763   3.466405
     8  H    1.108770   2.163124   2.633347   2.181010   2.678411
     9  H    2.195469   1.106591   1.992894   3.521007   4.321048
    10  H    2.200244   1.104731   2.070945   2.771236   3.692880
    11  H    2.663624   1.998728   0.998969   2.808537   2.589602
    12  H    2.181262   2.668844   3.289038   1.112824   2.155437
    13  H    2.170241   3.467141   4.183575   1.107654   2.161836
    14  H    3.481147   4.379024   4.316708   2.195096   1.104293
    15  H    2.668441   3.460500   3.152791   2.207690   1.103970
    16  H    4.036866   4.111906   3.354906   3.241879   2.008683
                    6          7          8          9         10
     6  O    0.000000
     7  H    4.220466   0.000000
     8  H    3.509025   1.766926   0.000000
     9  H    4.371007   2.462992   2.549309   0.000000
    10  H    3.447389   2.613259   3.097309   1.806440   0.000000
    11  H    1.892439   3.701111   2.915787   2.849281   2.358046
    12  H    2.384427   2.675675   3.083299   3.697867   2.414800
    13  H    3.268067   2.343063   2.677866   4.298537   3.645808
    14  H    2.073908   4.231066   3.587563   5.378094   4.636831
    15  H    2.085520   3.616881   2.319028   4.278659   4.103895
    16  H    0.976893   5.081257   4.143662   5.097741   4.312899
                   11         12         13         14         15
    11  H    0.000000
    12  H    2.875431   0.000000
    13  H    3.908293   1.770426   0.000000
    14  H    3.612313   2.683836   2.367083   0.000000
    15  H    2.688621   3.059111   2.773305   1.809068   0.000000
    16  H    2.398690   3.342803   4.060821   2.365577   2.330905
                   16
    16  H    0.000000
 Stoichiometry    C4H10O2
 Framework group  C1[X(C4H10O2)]
 Deg. of freedom    42
 Full point group                 C1      NOp   1
 Largest Abelian subgroup         C1      NOp   1
 Largest concise Abelian subgroup C1      NOp   1
                         Standard orientation:                         
 ---------------------------------------------------------------------
 Center     Atomic      Atomic             Coordinates (Angstroms)
 Number     Number       Type             X           Y           Z
 ---------------------------------------------------------------------
      1          6           0        0.845252    1.113699    0.267542
      2          6           0        1.689310   -0.049713   -0.269761
      3          8           0        1.260110   -1.305130    0.262217
      4          6           0       -0.565666    1.166465   -0.328025
      5          6           0       -1.565842    0.251020    0.378385
      6          8           0       -1.489729   -1.013981   -0.328362
      7          1           0        1.369795    2.066128    0.056850
      8          1           0        0.793884    1.036780    1.372448
      9          1           0        2.738324    0.018422    0.075883
     10          1           0        1.666164   -0.101049   -1.373057
     11          1           0        0.317603   -1.481478   -0.018001
     12          1           0       -0.536550    0.888034   -1.405061
     13          1           0       -0.942102    2.207721   -0.296747
     14          1           0       -2.601266    0.624384    0.289167
     15          1           0       -1.316657    0.078155    1.439881
     16          1           0       -2.070564   -1.673034    0.098955
 ---------------------------------------------------------------------
 Rotational constants (GHZ):      4.6970368      2.8118876      1.9729491

 **********************************************************************

            Population analysis using the SCF density.

 **********************************************************************

 Orbital symmetries:
       Occupied  (A) (A) (A) (A) (A) (A) (A) (A) (A) (A) (A) (A)
                 (A) (A) (A) (A) (A) (A) (A)
       Virtual   (A) (A) (A) (A) (A) (A) (A) (A) (A) (A) (A) (A)
                 (A) (A) (A)
 The electronic state is 1-A.
 Alpha  occ. eigenvalues --   -1.11342  -1.07183  -1.01626  -0.92623  -0.82605
 Alpha  occ. eigenvalues --   -0.75132  -0.68122  -0.63650  -0.60181  -0.55667
 Alpha  occ. eigenvalues --   -0.55481  -0.52684  -0.49086  -0.48281  -0.45950
 Alpha  occ. eigenvalues --   -0.44407  -0.42100  -0.39679  -0.36859
 Alpha virt. eigenvalues --    0.08255   0.12068   0.13016   0.14115   0.15103
 Alpha virt. eigenvalues --    0.18738   0.19177   0.19316   0.20057   0.20348
 Alpha virt. eigenvalues --    0.20645   0.21601   0.22549   0.23026   0.24058
          Condensed to atoms (all electrons):
               1          2          3          4          5          6
     1  C    4.327197   0.000000   0.000000   0.000000   0.000000   0.000000
     2  C    0.000000   3.971459   0.000000   0.000000   0.000000   0.000000
     3  O    0.000000   0.000000   6.576286   0.000000   0.000000   0.000000
     4  C    0.000000   0.000000   0.000000   4.280235   0.000000   0.000000
     5  C    0.000000   0.000000   0.000000   0.000000   3.993253   0.000000
     6  O    0.000000   0.000000   0.000000   0.000000   0.000000   6.565643
     7  H    0.000000   0.000000   0.000000   0.000000   0.000000   0.000000
     8  H    0.000000   0.000000   0.000000   0.000000   0.000000   0.000000
     9  H    0.000000   0.000000   0.000000   0.000000   0.000000   0.000000
    10  H    0.000000   0.000000   0.000000   0.000000   0.000000   0.000000
    11  H    0.000000   0.000000   0.000000   0.000000   0.000000   0.000000
    12  H    0.000000   0.000000   0.000000   0.000000   0.000000   0.000000
    13  H    0.000000   0.000000   0.000000   0.000000   0.000000   0.000000
    14  H    0.000000   0.000000   0.000000   0.000000   0.000000   0.000000
    15  H    0.000000   0.000000   0.000000   0.000000   0.000000   0.000000
    16  H    0.000000   0.000000   0.000000   0.000000   0.000000   0.000000
               7          8          9         10         11         12
     1  C    0.000000   0.000000   0.000000   0.000000   0.000000   0.000000
     2  C    0.000000   0.000000   0.000000   0.000000   0.000000   0.000000
     3  O    0.000000   0.000000   0.000000   0.000000   0.000000   0.000000
     4  C    0.000000   0.000000   0.000000   0.000000   0.000000   0.000000
     5  C    0.000000   0.000000   0.000000   0.000000   0.000000   0.000000
     6  O    0.000000   0.000000   0.000000   0.000000   0.000000   0.000000
     7  H    0.859206   0.000000   0.000000   0.000000   0.000000   0.000000
     8  H    0.000000   0.845202   0.000000   0.000000   0.000000   0.000000
     9  H    0.000000   0.000000   0.869055   0.000000   0.000000   0.000000
    10  H    0.000000   0.000000   0.000000   0.890971   0.000000   0.000000
    11  H    0.000000   0.000000   0.000000   0.000000   0.667131   0.000000
    12  H    0.000000   0.000000   0.000000   0.000000   0.000000   0.835010
    13  H    0.000000   0.000000   0.000000   0.000000   0.000000   0.000000
    14  H    0.000000   0.000000   0.000000   0.000000   0.000000   0.000000
    15  H    0.000000   0.000000   0.000000   0.000000   0.000000   0.000000
    16  H    0.000000   0.000000   0.000000   0.000000   0.000000   0.000000
              13         14         15         16
     1  C    0.000000   0.000000   0.000000   0.000000
     2  C    0.000000   0.000000   0.000000   0.000000
     3  O    0.000000   0.000000   0.000000   0.000000
     4  C    0.000000   0.000000   0.000000   0.000000
     5  C    0.000000   0.000000   0.000000   0.000000
     6  O    0.000000   0.000000   0.000000   0.000000
     7  H    0.000000   0.000000   0.000000   0.000000
     8  H    0.000000   0.000000   0.000000   0.000000
     9  H    0.000000   0.000000   0.000000   0.000000
    10  H    0.000000   0.000000   0.000000   0.000000
    11  H    0.000000   0.000000   0.000000   0.000000
    12  H    0.000000   0.000000   0.000000   0.000000
    13  H    0.860067   0.000000   0.000000   0.000000
    14  H    0.000000   0.888727   0.000000   0.000000
    15  H    0.000000   0.000000   0.878921   0.000000
    16  H    0.000000   0.000000   0.000000   0.691638
 Mulliken charges:
               1
     1  C   -0.327197
     2  C    0.028541
     3  O   -0.576286
     4  C   -0.280235
     5  C    0.006747
     6  O   -0.565643
     7  H    0.140794
     8  H    0.154798
     9  H    0.130945
    10  H    0.109029
    11  H    0.332869
    12  H    0.164990
    13  H    0.139933
    14  H    0.111273
    15  H    0.121079
    16  H    0.308362
 Sum of Mulliken charges =   0.00000
 Mulliken charges with hydrogens summed into heavy atoms:
               1
     1  C   -0.031605
     2  C    0.268515
     3  O   -0.243417
     4  C    0.024688
     5  C    0.239099
     6  O   -0.257281
 Charge=              0.0000 electrons
 Dipole moment (field-independent basis, Debye):
    X=             -2.1307    Y=              2.3514    Z=              0.4225  Tot=              3.2012
 N-N= 1.783030311943D+02 E-N=-3.103142638653D+02  KE=-2.198023785421D+01
 1\1\GINC-GTX1080DELTA\FOpt\RPM6\ZDO\C4H10O2\MVEROT\17-Apr-2022\0\\#n P
 M6 Opt\\Optimisation de geometrie\\0,1\C,1.6270386903,1.262905273,2.01
 23305676\C,1.100862308,2.3014187323,1.0126890687\O,1.530033781,3.62322
 50237,1.3472400922\C,3.1261379442,0.9820203393,1.8640677484\C,4.015328
 2687,1.9861031354,2.5979372518\O,4.2812682529,3.0363735589,1.632681122
 2\H,1.0610479104,0.3197616612,1.8827457578\H,1.4005577913,1.6106238212
 ,3.0405179333\H,-0.0019114803,2.3821852046,1.0563934645\H,1.414184159,
 2.0737886328,-0.0219342856\H,2.5272492449,3.669521237,1.310395428\H,3.
 4106896419,0.9834482929,0.7882401594\H,3.3499849943,-0.0381510952,2.23
 29049498\H,4.984290887,1.5435261362,2.8889699516\H,3.5239385025,2.4329
 422023,3.4797647444\H,4.8089991039,3.7469078445,2.046156046\\Version=A
 M64L-G09RevD.01\State=1-A\HF=-0.1708245\RMSD=3.703e-09\RMSF=8.688e-06\
 Dipole=0.6458963,-0.9006815,0.5981502\PG=C01 [X(C4H10O2)]\\@


 GOD DOES NOT PLAY WITH DICE.
               -- A. EINSTEIN
 Job cpu time:       0 days  0 hours  0 minutes  8.5 seconds.
 File lengths (MBytes):  RWF=     72 Int=      0 D2E=      0 Chk=      3 Scr=      2
 Normal termination of Gaussian 09 at Sun Apr 17 23:24:30 2022.
