 Entering Gaussian System, Link 0=g09
 Input=/scratch/mverot/pbenzo-opt/pbenzo-opt.com
 Output=/scratch/mverot/pbenzo-opt/pbenzo-opt.log
 Initial command:
 /opt/g09/l1.exe "/scratch/mverot/pbenzo-opt/Gau-2695843.inp" -scrdir="/scratch/mverot/pbenzo-opt/"
 Entering Link 1 = /opt/g09/l1.exe PID=   2695845.
  
 Copyright (c) 1988,1990,1992,1993,1995,1998,2003,2009,2013,
            Gaussian, Inc.  All Rights Reserved.
  
 This is part of the Gaussian(R) 09 program.  It is based on
 the Gaussian(R) 03 system (copyright 2003, Gaussian, Inc.),
 the Gaussian(R) 98 system (copyright 1998, Gaussian, Inc.),
 the Gaussian(R) 94 system (copyright 1995, Gaussian, Inc.),
 the Gaussian 92(TM) system (copyright 1992, Gaussian, Inc.),
 the Gaussian 90(TM) system (copyright 1990, Gaussian, Inc.),
 the Gaussian 88(TM) system (copyright 1988, Gaussian, Inc.),
 the Gaussian 86(TM) system (copyright 1986, Carnegie Mellon
 University), and the Gaussian 82(TM) system (copyright 1983,
 Carnegie Mellon University). Gaussian is a federally registered
 trademark of Gaussian, Inc.
  
 This software contains proprietary and confidential information,
 including trade secrets, belonging to Gaussian, Inc.
  
 This software is provided under written license and may be
 used, copied, transmitted, or stored only in accord with that
 written license.
  
 The following legend is applicable only to US Government
 contracts under FAR:
  
                    RESTRICTED RIGHTS LEGEND
  
 Use, reproduction and disclosure by the US Government is
 subject to restrictions as set forth in subparagraphs (a)
 and (c) of the Commercial Computer Software - Restricted
 Rights clause in FAR 52.227-19.
  
 Gaussian, Inc.
 340 Quinnipiac St., Bldg. 40, Wallingford CT 06492
  
  
 ---------------------------------------------------------------
 Warning -- This program may not be used in any manner that
 competes with the business of Gaussian, Inc. or will provide
 assistance to any competitor of Gaussian, Inc.  The licensee
 of this program is prohibited from giving any competitor of
 Gaussian, Inc. access to this program.  By using this program,
 the user acknowledges that Gaussian, Inc. is engaged in the
 business of creating and licensing software in the field of
 computational chemistry and represents and warrants to the
 licensee that it is not a competitor of Gaussian, Inc. and that
 it will not use this program in any manner prohibited above.
 ---------------------------------------------------------------
  

 Cite this work as:
 Gaussian 09, Revision D.01,
 M. J. Frisch, G. W. Trucks, H. B. Schlegel, G. E. Scuseria, 
 M. A. Robb, J. R. Cheeseman, G. Scalmani, V. Barone, B. Mennucci, 
 G. A. Petersson, H. Nakatsuji, M. Caricato, X. Li, H. P. Hratchian, 
 A. F. Izmaylov, J. Bloino, G. Zheng, J. L. Sonnenberg, M. Hada, 
 M. Ehara, K. Toyota, R. Fukuda, J. Hasegawa, M. Ishida, T. Nakajima, 
 Y. Honda, O. Kitao, H. Nakai, T. Vreven, J. A. Montgomery, Jr., 
 J. E. Peralta, F. Ogliaro, M. Bearpark, J. J. Heyd, E. Brothers, 
 K. N. Kudin, V. N. Staroverov, T. Keith, R. Kobayashi, J. Normand, 
 K. Raghavachari, A. Rendell, J. C. Burant, S. S. Iyengar, J. Tomasi, 
 M. Cossi, N. Rega, J. M. Millam, M. Klene, J. E. Knox, J. B. Cross, 
 V. Bakken, C. Adamo, J. Jaramillo, R. Gomperts, R. E. Stratmann, 
 O. Yazyev, A. J. Austin, R. Cammi, C. Pomelli, J. W. Ochterski, 
 R. L. Martin, K. Morokuma, V. G. Zakrzewski, G. A. Voth, 
 P. Salvador, J. J. Dannenberg, S. Dapprich, A. D. Daniels, 
 O. Farkas, J. B. Foresman, J. V. Ortiz, J. Cioslowski, 
 and D. J. Fox, Gaussian, Inc., Wallingford CT, 2013.
 
 ******************************************
 Gaussian 09:  AM64L-G09RevD.01 24-Apr-2013
                11-Apr-2022 
 ******************************************
 %chk=pbenzo-opt
 ----------
 #n AM1 Opt
 ----------
 1/14=-1,18=20,19=15,26=1,38=1/1,3;
 2/9=110,12=2,17=6,18=5,40=1/2;
 3/5=2,16=1,25=1,41=700000,71=1/1,2,3;
 4/35=1/1;
 5/5=2,35=1,38=5/2;
 6/7=2,8=2,9=2,10=2,28=1/1;
 7//1,2,3,16;
 1/14=-1,18=20,19=15,26=1/3(2);
 2/9=110/2;
 99//99;
 2/9=110/2;
 3/5=2,16=1,25=1,41=700000,71=1,135=20/1,2,3;
 4/5=5,16=3,35=1/1;
 5/5=2,35=1,38=5/2;
 7//1,2,3,16;
 1/14=-1,18=20,19=15,26=1/3(-5);
 2/9=110/2;
 6/7=2,8=2,9=2,10=2,19=2,28=1/1;
 99/9=1/99;
 -------------------------------------------------------
 Optimisation of pbenzoquinone using the AM1 hamiltonian
 -------------------------------------------------------
 Symbolic Z-matrix:
 Charge =  0 Multiplicity = 1
 8                     2.68849   0.        0. 
 8                    -2.68849   0.        0. 
 6                     1.45291   0.        0. 
 6                    -1.45291   0.        0. 
 6                     0.66906   0.       -1.25478 
 6                     0.66906   0.        1.25478 
 6                    -0.66906   0.       -1.25478 
 6                    -0.66906   0.        1.25478 
 1                     1.25784   0.       -2.18723 
 1                     1.25784   0.        2.18723 
 1                    -1.25784   0.       -2.18723 
 1                    -1.25784   0.        2.18723 
 

 GradGradGradGradGradGradGradGradGradGradGradGradGradGradGradGradGradGrad
 Berny optimization.
 Initialization pass.
                           ----------------------------
                           !    Initial Parameters    !
                           ! (Angstroms and Degrees)  !
 --------------------------                            --------------------------
 ! Name  Definition              Value          Derivative Info.                !
 --------------------------------------------------------------------------------
 ! R1    R(1,3)                  1.2356         estimate D2E/DX2                !
 ! R2    R(2,4)                  1.2356         estimate D2E/DX2                !
 ! R3    R(3,5)                  1.4795         estimate D2E/DX2                !
 ! R4    R(3,6)                  1.4795         estimate D2E/DX2                !
 ! R5    R(4,7)                  1.4795         estimate D2E/DX2                !
 ! R6    R(4,8)                  1.4795         estimate D2E/DX2                !
 ! R7    R(5,7)                  1.3381         estimate D2E/DX2                !
 ! R8    R(5,9)                  1.1028         estimate D2E/DX2                !
 ! R9    R(6,8)                  1.3381         estimate D2E/DX2                !
 ! R10   R(6,10)                 1.1028         estimate D2E/DX2                !
 ! R11   R(7,11)                 1.1028         estimate D2E/DX2                !
 ! R12   R(8,12)                 1.1028         estimate D2E/DX2                !
 ! A1    A(1,3,5)              121.9927         estimate D2E/DX2                !
 ! A2    A(1,3,6)              121.9927         estimate D2E/DX2                !
 ! A3    A(5,3,6)              116.0146         estimate D2E/DX2                !
 ! A4    A(2,4,7)              121.9927         estimate D2E/DX2                !
 ! A5    A(2,4,8)              121.9927         estimate D2E/DX2                !
 ! A6    A(7,4,8)              116.0146         estimate D2E/DX2                !
 ! A7    A(3,5,7)              121.9927         estimate D2E/DX2                !
 ! A8    A(3,5,9)              115.7379         estimate D2E/DX2                !
 ! A9    A(7,5,9)              122.2694         estimate D2E/DX2                !
 ! A10   A(3,6,8)              121.9927         estimate D2E/DX2                !
 ! A11   A(3,6,10)             115.7379         estimate D2E/DX2                !
 ! A12   A(8,6,10)             122.2694         estimate D2E/DX2                !
 ! A13   A(4,7,5)              121.9927         estimate D2E/DX2                !
 ! A14   A(4,7,11)             115.7379         estimate D2E/DX2                !
 ! A15   A(5,7,11)             122.2694         estimate D2E/DX2                !
 ! A16   A(4,8,6)              121.9927         estimate D2E/DX2                !
 ! A17   A(4,8,12)             115.7379         estimate D2E/DX2                !
 ! A18   A(6,8,12)             122.2694         estimate D2E/DX2                !
 ! D1    D(1,3,5,7)            180.0            estimate D2E/DX2                !
 ! D2    D(1,3,5,9)              0.0            estimate D2E/DX2                !
 ! D3    D(6,3,5,7)              0.0            estimate D2E/DX2                !
 ! D4    D(6,3,5,9)            180.0            estimate D2E/DX2                !
 ! D5    D(1,3,6,8)            180.0            estimate D2E/DX2                !
 ! D6    D(1,3,6,10)             0.0            estimate D2E/DX2                !
 ! D7    D(5,3,6,8)              0.0            estimate D2E/DX2                !
 ! D8    D(5,3,6,10)           180.0            estimate D2E/DX2                !
 ! D9    D(2,4,7,5)            180.0            estimate D2E/DX2                !
 ! D10   D(2,4,7,11)             0.0            estimate D2E/DX2                !
 ! D11   D(8,4,7,5)              0.0            estimate D2E/DX2                !
 ! D12   D(8,4,7,11)           180.0            estimate D2E/DX2                !
 ! D13   D(2,4,8,6)            180.0            estimate D2E/DX2                !
 ! D14   D(2,4,8,12)             0.0            estimate D2E/DX2                !
 ! D15   D(7,4,8,6)              0.0            estimate D2E/DX2                !
 ! D16   D(7,4,8,12)           180.0            estimate D2E/DX2                !
 ! D17   D(3,5,7,4)              0.0            estimate D2E/DX2                !
 ! D18   D(3,5,7,11)           180.0            estimate D2E/DX2                !
 ! D19   D(9,5,7,4)            180.0            estimate D2E/DX2                !
 ! D20   D(9,5,7,11)             0.0            estimate D2E/DX2                !
 ! D21   D(3,6,8,4)              0.0            estimate D2E/DX2                !
 ! D22   D(3,6,8,12)           180.0            estimate D2E/DX2                !
 ! D23   D(10,6,8,4)           180.0            estimate D2E/DX2                !
 ! D24   D(10,6,8,12)            0.0            estimate D2E/DX2                !
 --------------------------------------------------------------------------------
 Trust Radius=3.00D-01 FncErr=1.00D-07 GrdErr=1.00D-07
 Number of steps in this run=     64 maximum allowed number of steps=    100.
 GradGradGradGradGradGradGradGradGradGradGradGradGradGradGradGradGradGrad

                          Input orientation:                          
 ---------------------------------------------------------------------
 Center     Atomic      Atomic             Coordinates (Angstroms)
 Number     Number       Type             X           Y           Z
 ---------------------------------------------------------------------
      1          8           0        2.688495    0.000000    0.000000
      2          8           0       -2.688495    0.000000    0.000000
      3          6           0        1.452908    0.000000    0.000000
      4          6           0       -1.452908    0.000000    0.000000
      5          6           0        0.669060    0.000000   -1.254776
      6          6           0        0.669060    0.000000    1.254776
      7          6           0       -0.669060    0.000000   -1.254776
      8          6           0       -0.669060    0.000000    1.254776
      9          1           0        1.257835    0.000000   -2.187230
     10          1           0        1.257835    0.000000    2.187230
     11          1           0       -1.257835    0.000000   -2.187230
     12          1           0       -1.257835    0.000000    2.187230
 ---------------------------------------------------------------------
                    Distance matrix (angstroms):
                    1          2          3          4          5
     1  O    0.000000
     2  O    5.376990   0.000000
     3  C    1.235587   4.141403   0.000000
     4  C    4.141403   1.235587   2.905817   0.000000
     5  C    2.377516   3.584360   1.479487   2.465200   0.000000
     6  C    2.377516   3.584360   1.479487   2.465200   2.509552
     7  C    3.584360   2.377516   2.465200   1.479487   1.338119
     8  C    3.584360   2.377516   2.465200   1.479487   2.844014
     9  H    2.613573   4.511928   2.195912   3.483117   1.102782
    10  H    2.613573   4.511928   2.195912   3.483117   3.492000
    11  H    4.511928   2.613573   3.483117   2.195912   2.140653
    12  H    4.511928   2.613573   3.483117   2.195912   3.944658
                    6          7          8          9         10
     6  C    0.000000
     7  C    2.844014   0.000000
     8  C    1.338119   2.509552   0.000000
     9  H    3.492000   2.140653   3.944658   0.000000
    10  H    1.102782   3.944658   2.140653   4.374460   0.000000
    11  H    3.944658   1.102782   3.492000   2.515670   5.046236
    12  H    2.140653   3.492000   1.102782   5.046236   2.515670
                   11         12
    11  H    0.000000
    12  H    4.374460   0.000000
 Stoichiometry    C6H4O2
 Framework group  D2H[C2"(OC.CO),SG(C4H4)]
 Deg. of freedom     6
 Full point group                 D2H     NOp   8
 Largest Abelian subgroup         D2H     NOp   8
 Largest concise Abelian subgroup D2      NOp   4
                         Standard orientation:                         
 ---------------------------------------------------------------------
 Center     Atomic      Atomic             Coordinates (Angstroms)
 Number     Number       Type             X           Y           Z
 ---------------------------------------------------------------------
      1          8           0        0.000000    0.000000    2.688495
      2          8           0        0.000000    0.000000   -2.688495
      3          6           0        0.000000    0.000000    1.452908
      4          6           0        0.000000    0.000000   -1.452908
      5          6           0        0.000000    1.254776    0.669060
      6          6           0       -0.000000   -1.254776    0.669060
      7          6           0        0.000000    1.254776   -0.669060
      8          6           0       -0.000000   -1.254776   -0.669060
      9          1           0        0.000000    2.187230    1.257835
     10          1           0       -0.000000   -2.187230    1.257835
     11          1           0        0.000000    2.187230   -1.257835
     12          1           0       -0.000000   -2.187230   -1.257835
 ---------------------------------------------------------------------
 Rotational constants (GHZ):      5.3276384      1.6315700      1.2490522
 Standard basis: VSTO-6G (5D, 7F)
 There are     8 symmetry adapted cartesian basis functions of AG  symmetry.
 There are     1 symmetry adapted cartesian basis functions of B1G symmetry.
 There are     3 symmetry adapted cartesian basis functions of B2G symmetry.
 There are     6 symmetry adapted cartesian basis functions of B3G symmetry.
 There are     1 symmetry adapted cartesian basis functions of AU  symmetry.
 There are     8 symmetry adapted cartesian basis functions of B1U symmetry.
 There are     6 symmetry adapted cartesian basis functions of B2U symmetry.
 There are     3 symmetry adapted cartesian basis functions of B3U symmetry.
 There are     8 symmetry adapted basis functions of AG  symmetry.
 There are     1 symmetry adapted basis functions of B1G symmetry.
 There are     3 symmetry adapted basis functions of B2G symmetry.
 There are     6 symmetry adapted basis functions of B3G symmetry.
 There are     1 symmetry adapted basis functions of AU  symmetry.
 There are     8 symmetry adapted basis functions of B1U symmetry.
 There are     6 symmetry adapted basis functions of B2U symmetry.
 There are     3 symmetry adapted basis functions of B3U symmetry.
    36 basis functions,   216 primitive gaussians,    36 cartesian basis functions
    20 alpha electrons       20 beta electrons
       nuclear repulsion energy       196.0249026273 Hartrees.
 Integral buffers will be    131072 words long.
 Regular integral format.
 Two-electron integral symmetry is turned off.
 Do NDO integrals.
 One-electron integrals computed using PRISM.
 NBasis=    36 RedAO= T EigKep=  7.07D-01  NBF=     8     1     3     6     1     8     6     3
 NBsUse=    36 1.00D-06 EigRej= -1.00D+00 NBFU=     8     1     3     6     1     8     6     3
 Simple Huckel Guess.
 Initial guess orbital symmetries:
       Occupied  (AG) (B1U) (B2U) (AG) (B3G) (B1U) (AG) (B2U) (B1U)
                 (B3U) (AG) (B2U) (B2G) (B3G) (B1U) (AG) (B3U)
                 (B1G) (B2U) (B3G)
       Virtual   (B2G) (AU) (B3U) (B2G) (B2U) (AG) (B1U) (B3G)
                 (B3G) (B1U) (B2U) (AG) (B1U) (AG) (B3G) (B1U)
 The electronic state of the initial guess is 1-AG.
 Overlap will be assumed to be unity.
 Keep J ints in memory in canonical form, NReq=894563.
 Requested convergence on RMS density matrix=1.00D-08 within 128 cycles.
 Requested convergence on MAX density matrix=1.00D-06.
 Requested convergence on             energy=1.00D-06.
 No special actions if energy rises.
 Fock symm off for IB=2 I1=    1 I=    9 J=    4 Cut=1.00D-07 Err=2.67D-04
 Fock matrix is not symmetric: symmetry in diagonalization turned off.
 SCF Done:  E(RAM1) = -0.401910247774E-01 A.U. after   12 cycles
            NFock= 11  Conv=0.48D-08     -V/T= 0.9985

 **********************************************************************

            Population analysis using the SCF density.

 **********************************************************************

 Orbital symmetries:
       Occupied  (AG) (B1U) (AG) (B2U) (B1U) (B3G) (AG) (AG) (B2U)
                 (B1U) (B3U) (B2U) (B1U) (B2G) (AG) (B3G) (B2U)
                 (B1G) (B3U) (B3G)
       Virtual   (B2G) (AU) (B3U) (B2G) (AG) (B1U) (B2U) (B3G)
                 (AG) (B1U) (B3G) (B2U) (B1U) (B3G) (AG) (B1U)
 The electronic state is 1-AG.
 Alpha  occ. eigenvalues --   -1.50484  -1.45239  -1.33299  -1.21161  -1.03233
 Alpha  occ. eigenvalues --   -0.88271  -0.85059  -0.67494  -0.65986  -0.65946
 Alpha  occ. eigenvalues --   -0.58859  -0.56431  -0.56326  -0.55102  -0.53250
 Alpha  occ. eigenvalues --   -0.52998  -0.42943  -0.41945  -0.41433  -0.39962
 Alpha virt. eigenvalues --   -0.06371   0.00492   0.03182   0.07782   0.08637
 Alpha virt. eigenvalues --    0.09187   0.10471   0.12992   0.13262   0.15173
 Alpha virt. eigenvalues --    0.15402   0.16210   0.16497   0.16973   0.21194
 Alpha virt. eigenvalues --    0.22058
          Condensed to atoms (all electrons):
               1          2          3          4          5          6
     1  O    6.251007   0.000000   0.000000   0.000000   0.000000   0.000000
     2  O    0.000000   6.251007   0.000000   0.000000   0.000000   0.000000
     3  C    0.000000   0.000000   3.739683   0.000000   0.000000   0.000000
     4  C    0.000000   0.000000   0.000000   3.739683   0.000000   0.000000
     5  C    0.000000   0.000000   0.000000   0.000000   4.165002   0.000000
     6  C    0.000000   0.000000   0.000000   0.000000   0.000000   4.165002
     7  C    0.000000   0.000000   0.000000   0.000000   0.000000   0.000000
     8  C    0.000000   0.000000   0.000000   0.000000   0.000000   0.000000
     9  H    0.000000   0.000000   0.000000   0.000000   0.000000   0.000000
    10  H    0.000000   0.000000   0.000000   0.000000   0.000000   0.000000
    11  H    0.000000   0.000000   0.000000   0.000000   0.000000   0.000000
    12  H    0.000000   0.000000   0.000000   0.000000   0.000000   0.000000
               7          8          9         10         11         12
     1  O    0.000000   0.000000   0.000000   0.000000   0.000000   0.000000
     2  O    0.000000   0.000000   0.000000   0.000000   0.000000   0.000000
     3  C    0.000000   0.000000   0.000000   0.000000   0.000000   0.000000
     4  C    0.000000   0.000000   0.000000   0.000000   0.000000   0.000000
     5  C    0.000000   0.000000   0.000000   0.000000   0.000000   0.000000
     6  C    0.000000   0.000000   0.000000   0.000000   0.000000   0.000000
     7  C    4.165002   0.000000   0.000000   0.000000   0.000000   0.000000
     8  C    0.000000   4.165002   0.000000   0.000000   0.000000   0.000000
     9  H    0.000000   0.000000   0.839653   0.000000   0.000000   0.000000
    10  H    0.000000   0.000000   0.000000   0.839653   0.000000   0.000000
    11  H    0.000000   0.000000   0.000000   0.000000   0.839653   0.000000
    12  H    0.000000   0.000000   0.000000   0.000000   0.000000   0.839653
 Mulliken charges:
               1
     1  O   -0.251007
     2  O   -0.251007
     3  C    0.260317
     4  C    0.260317
     5  C   -0.165002
     6  C   -0.165002
     7  C   -0.165002
     8  C   -0.165002
     9  H    0.160347
    10  H    0.160347
    11  H    0.160347
    12  H    0.160347
 Sum of Mulliken charges =  -0.00000
 Mulliken charges with hydrogens summed into heavy atoms:
               1
     1  O   -0.251007
     2  O   -0.251007
     3  C    0.260317
     4  C    0.260317
     5  C   -0.004655
     6  C   -0.004655
     7  C   -0.004655
     8  C   -0.004655
 Charge=              0.0000 electrons
 Dipole moment (field-independent basis, Debye):
    X=              0.0000    Y=             -0.0000    Z=              0.0000  Tot=              0.0000
 N-N= 1.960249026273D+02 E-N=-3.355836797675D+02  KE=-2.603811793466D+01
 Symmetry AG   KE=-8.297478419563D+00
 Symmetry B1G  KE=-7.384435468036D-01
 Symmetry B2G  KE=-9.502388206869D-01
 Symmetry B3G  KE=-3.144288378567D+00
 Symmetry AU   KE=-6.489717702154D-18
 Symmetry B1U  KE=-6.314198634610D+00
 Symmetry B2U  KE=-4.834680659602D+00
 Symmetry B3U  KE=-1.758789474831D+00
 Calling FoFJK, ICntrl=      2127 FMM=F ISym2X=1 I1Cent= 0 IOpClX= 0 NMat=1 NMatS=1 NMatT=0.
 ***** Axes restored to original set *****
 -------------------------------------------------------------------
 Center     Atomic                   Forces (Hartrees/Bohr)
 Number     Number              X              Y              Z
 -------------------------------------------------------------------
      1        8           0.000228165   -0.000000000    0.000000000
      2        8          -0.000228165    0.000000000   -0.000000000
      3        6          -0.000413198   -0.000000000    0.000000000
      4        6           0.000413198   -0.000000000    0.000000000
      5        6           0.000227494    0.000000000    0.000084369
      6        6           0.000227494    0.000000000   -0.000084369
      7        6          -0.000227494    0.000000000    0.000084369
      8        6          -0.000227494   -0.000000000   -0.000084369
      9        1           0.000065155    0.000000000   -0.000002324
     10        1           0.000065155    0.000000000    0.000002324
     11        1          -0.000065155   -0.000000000   -0.000002324
     12        1          -0.000065155    0.000000000    0.000002324
 -------------------------------------------------------------------
 Cartesian Forces:  Max     0.000413198 RMS     0.000139251

 GradGradGradGradGradGradGradGradGradGradGradGradGradGradGradGradGradGrad
 Berny optimization.
 FormGI is forming the generalized inverse of G from B-inverse, IUseBI=4.
 Internal  Forces:  Max     0.000228165 RMS     0.000073554
 Search for a local minimum.
 Step number   1 out of a maximum of   64
 All quantities printed in internal units (Hartrees-Bohrs-Radians)
 Mixed Optimization -- En-DIIS/RFO-DIIS
 Second derivative matrix not updated -- first step.
 ITU=  0
     Eigenvalues ---    0.01037   0.01037   0.01037   0.01710   0.01714
     Eigenvalues ---    0.02024   0.02031   0.02276   0.02335   0.16000
     Eigenvalues ---    0.16000   0.16000   0.16000   0.22000   0.22862
     Eigenvalues ---    0.24000   0.25000   0.25000   0.32899   0.33376
     Eigenvalues ---    0.33376   0.33376   0.33376   0.33692   0.34628
     Eigenvalues ---    0.34628   0.53849   0.57629   0.88798   0.88798
 RFO step:  Lambda=-6.80133886D-07 EMin= 1.03729525D-02
 Linear search not attempted -- first point.
 Iteration  1 RMS(Cart)=  0.00030555 RMS(Int)=  0.00000005
 Iteration  2 RMS(Cart)=  0.00000007 RMS(Int)=  0.00000000
 ClnCor:  largest displacement from symmetrization is 3.36D-14 for atom    10.
 Variable       Old X    -DE/DX   Delta X   Delta X   Delta X     New X
                                 (Linear)    (Quad)   (Total)
    R1        2.33492   0.00023   0.00000   0.00026   0.00026   2.33518
    R2        2.33492   0.00023   0.00000   0.00026   0.00026   2.33518
    R3        2.79583  -0.00012   0.00000  -0.00034  -0.00034   2.79548
    R4        2.79583  -0.00012   0.00000  -0.00034  -0.00034   2.79548
    R5        2.79583  -0.00012   0.00000  -0.00034  -0.00034   2.79548
    R6        2.79583  -0.00012   0.00000  -0.00034  -0.00034   2.79548
    R7        2.52868   0.00020   0.00000   0.00035   0.00035   2.52903
    R8        2.08396   0.00004   0.00000   0.00011   0.00011   2.08407
    R9        2.52868   0.00020   0.00000   0.00035   0.00035   2.52903
   R10        2.08396   0.00004   0.00000   0.00011   0.00011   2.08407
   R11        2.08396   0.00004   0.00000   0.00011   0.00011   2.08407
   R12        2.08396   0.00004   0.00000   0.00011   0.00011   2.08407
    A1        2.12917  -0.00003   0.00000  -0.00014  -0.00014   2.12903
    A2        2.12917  -0.00003   0.00000  -0.00014  -0.00014   2.12903
    A3        2.02484   0.00007   0.00000   0.00029   0.00029   2.02512
    A4        2.12917  -0.00003   0.00000  -0.00014  -0.00014   2.12903
    A5        2.12917  -0.00003   0.00000  -0.00014  -0.00014   2.12903
    A6        2.02484   0.00007   0.00000   0.00029   0.00029   2.02512
    A7        2.12917  -0.00003   0.00000  -0.00014  -0.00014   2.12903
    A8        2.02001  -0.00004   0.00000  -0.00028  -0.00028   2.01973
    A9        2.13400   0.00007   0.00000   0.00042   0.00042   2.13443
   A10        2.12917  -0.00003   0.00000  -0.00014  -0.00014   2.12903
   A11        2.02001  -0.00004   0.00000  -0.00028  -0.00028   2.01973
   A12        2.13400   0.00007   0.00000   0.00042   0.00042   2.13443
   A13        2.12917  -0.00003   0.00000  -0.00014  -0.00014   2.12903
   A14        2.02001  -0.00004   0.00000  -0.00028  -0.00028   2.01973
   A15        2.13400   0.00007   0.00000   0.00042   0.00042   2.13443
   A16        2.12917  -0.00003   0.00000  -0.00014  -0.00014   2.12903
   A17        2.02001  -0.00004   0.00000  -0.00028  -0.00028   2.01973
   A18        2.13400   0.00007   0.00000   0.00042   0.00042   2.13443
    D1        3.14159   0.00000   0.00000  -0.00000   0.00000   3.14159
    D2        0.00000   0.00000   0.00000  -0.00000  -0.00000   0.00000
    D3       -0.00000  -0.00000   0.00000  -0.00000   0.00000   0.00000
    D4        3.14159  -0.00000   0.00000  -0.00000   0.00000   3.14159
    D5        3.14159   0.00000   0.00000   0.00000   0.00000   3.14159
    D6       -0.00000   0.00000   0.00000   0.00000   0.00000   0.00000
    D7        0.00000   0.00000   0.00000   0.00000   0.00000   0.00000
    D8        3.14159   0.00000   0.00000   0.00000   0.00000   3.14159
    D9        3.14159  -0.00000   0.00000  -0.00000   0.00000   3.14159
   D10        0.00000  -0.00000   0.00000  -0.00000  -0.00000   0.00000
   D11        0.00000   0.00000   0.00000   0.00000   0.00000   0.00000
   D12        3.14159   0.00000   0.00000   0.00000   0.00000   3.14159
   D13        3.14159   0.00000   0.00000   0.00000   0.00000   3.14159
   D14       -0.00000   0.00000   0.00000   0.00000   0.00000   0.00000
   D15       -0.00000   0.00000   0.00000  -0.00000   0.00000   0.00000
   D16        3.14159  -0.00000   0.00000  -0.00000   0.00000   3.14159
   D17        0.00000  -0.00000   0.00000  -0.00000   0.00000   0.00000
   D18        3.14159   0.00000   0.00000   0.00000   0.00000   3.14159
   D19        3.14159  -0.00000   0.00000  -0.00000   0.00000   3.14159
   D20       -0.00000   0.00000   0.00000   0.00000   0.00000   0.00000
   D21        0.00000  -0.00000   0.00000  -0.00000   0.00000   0.00000
   D22        3.14159  -0.00000   0.00000  -0.00000   0.00000   3.14159
   D23        3.14159  -0.00000   0.00000  -0.00000   0.00000   3.14159
   D24        0.00000   0.00000   0.00000   0.00000  -0.00000   0.00000
         Item               Value     Threshold  Converged?
 Maximum Force            0.000228     0.000450     YES
 RMS     Force            0.000074     0.000300     YES
 Maximum Displacement     0.000976     0.001800     YES
 RMS     Displacement     0.000306     0.001200     YES
 Predicted change in Energy=-3.400669D-07
 Optimization completed.
    -- Stationary point found.
                           ----------------------------
                           !   Optimized Parameters   !
                           ! (Angstroms and Degrees)  !
 --------------------------                            --------------------------
 ! Name  Definition              Value          Derivative Info.                !
 --------------------------------------------------------------------------------
 ! R1    R(1,3)                  1.2356         -DE/DX =    0.0002              !
 ! R2    R(2,4)                  1.2356         -DE/DX =    0.0002              !
 ! R3    R(3,5)                  1.4795         -DE/DX =   -0.0001              !
 ! R4    R(3,6)                  1.4795         -DE/DX =   -0.0001              !
 ! R5    R(4,7)                  1.4795         -DE/DX =   -0.0001              !
 ! R6    R(4,8)                  1.4795         -DE/DX =   -0.0001              !
 ! R7    R(5,7)                  1.3381         -DE/DX =    0.0002              !
 ! R8    R(5,9)                  1.1028         -DE/DX =    0.0                 !
 ! R9    R(6,8)                  1.3381         -DE/DX =    0.0002              !
 ! R10   R(6,10)                 1.1028         -DE/DX =    0.0                 !
 ! R11   R(7,11)                 1.1028         -DE/DX =    0.0                 !
 ! R12   R(8,12)                 1.1028         -DE/DX =    0.0                 !
 ! A1    A(1,3,5)              121.9927         -DE/DX =    0.0                 !
 ! A2    A(1,3,6)              121.9927         -DE/DX =    0.0                 !
 ! A3    A(5,3,6)              116.0146         -DE/DX =    0.0001              !
 ! A4    A(2,4,7)              121.9927         -DE/DX =    0.0                 !
 ! A5    A(2,4,8)              121.9927         -DE/DX =    0.0                 !
 ! A6    A(7,4,8)              116.0146         -DE/DX =    0.0001              !
 ! A7    A(3,5,7)              121.9927         -DE/DX =    0.0                 !
 ! A8    A(3,5,9)              115.7379         -DE/DX =    0.0                 !
 ! A9    A(7,5,9)              122.2694         -DE/DX =    0.0001              !
 ! A10   A(3,6,8)              121.9927         -DE/DX =    0.0                 !
 ! A11   A(3,6,10)             115.7379         -DE/DX =    0.0                 !
 ! A12   A(8,6,10)             122.2694         -DE/DX =    0.0001              !
 ! A13   A(4,7,5)              121.9927         -DE/DX =    0.0                 !
 ! A14   A(4,7,11)             115.7379         -DE/DX =    0.0                 !
 ! A15   A(5,7,11)             122.2694         -DE/DX =    0.0001              !
 ! A16   A(4,8,6)              121.9927         -DE/DX =    0.0                 !
 ! A17   A(4,8,12)             115.7379         -DE/DX =    0.0                 !
 ! A18   A(6,8,12)             122.2694         -DE/DX =    0.0001              !
 ! D1    D(1,3,5,7)            180.0            -DE/DX =    0.0                 !
 ! D2    D(1,3,5,9)              0.0            -DE/DX =    0.0                 !
 ! D3    D(6,3,5,7)              0.0            -DE/DX =    0.0                 !
 ! D4    D(6,3,5,9)            180.0            -DE/DX =    0.0                 !
 ! D5    D(1,3,6,8)            180.0            -DE/DX =    0.0                 !
 ! D6    D(1,3,6,10)             0.0            -DE/DX =    0.0                 !
 ! D7    D(5,3,6,8)              0.0            -DE/DX =    0.0                 !
 ! D8    D(5,3,6,10)           180.0            -DE/DX =    0.0                 !
 ! D9    D(2,4,7,5)            180.0            -DE/DX =    0.0                 !
 ! D10   D(2,4,7,11)             0.0            -DE/DX =    0.0                 !
 ! D11   D(8,4,7,5)              0.0            -DE/DX =    0.0                 !
 ! D12   D(8,4,7,11)           180.0            -DE/DX =    0.0                 !
 ! D13   D(2,4,8,6)            180.0            -DE/DX =    0.0                 !
 ! D14   D(2,4,8,12)             0.0            -DE/DX =    0.0                 !
 ! D15   D(7,4,8,6)              0.0            -DE/DX =    0.0                 !
 ! D16   D(7,4,8,12)           180.0            -DE/DX =    0.0                 !
 ! D17   D(3,5,7,4)              0.0            -DE/DX =    0.0                 !
 ! D18   D(3,5,7,11)           180.0            -DE/DX =    0.0                 !
 ! D19   D(9,5,7,4)            180.0            -DE/DX =    0.0                 !
 ! D20   D(9,5,7,11)             0.0            -DE/DX =    0.0                 !
 ! D21   D(3,6,8,4)              0.0            -DE/DX =    0.0                 !
 ! D22   D(3,6,8,12)           180.0            -DE/DX =    0.0                 !
 ! D23   D(10,6,8,4)           180.0            -DE/DX =    0.0                 !
 ! D24   D(10,6,8,12)            0.0            -DE/DX =    0.0                 !
 --------------------------------------------------------------------------------
 GradGradGradGradGradGradGradGradGradGradGradGradGradGradGradGradGradGrad

                          Input orientation:                          
 ---------------------------------------------------------------------
 Center     Atomic      Atomic             Coordinates (Angstroms)
 Number     Number       Type             X           Y           Z
 ---------------------------------------------------------------------
      1          8           0        2.688495    0.000000    0.000000
      2          8           0       -2.688495   -0.000000    0.000000
      3          6           0        1.452908    0.000000    0.000000
      4          6           0       -1.452908   -0.000000    0.000000
      5          6           0        0.669060    0.000000   -1.254776
      6          6           0        0.669060    0.000000    1.254776
      7          6           0       -0.669060   -0.000000   -1.254776
      8          6           0       -0.669060    0.000000    1.254776
      9          1           0        1.257835    0.000000   -2.187230
     10          1           0        1.257835    0.000000    2.187230
     11          1           0       -1.257835   -0.000000   -2.187230
     12          1           0       -1.257835    0.000000    2.187230
 ---------------------------------------------------------------------
                    Distance matrix (angstroms):
                    1          2          3          4          5
     1  O    0.000000
     2  O    5.376990   0.000000
     3  C    1.235587   4.141403   0.000000
     4  C    4.141403   1.235587   2.905817   0.000000
     5  C    2.377516   3.584360   1.479487   2.465200   0.000000
     6  C    2.377516   3.584360   1.479487   2.465200   2.509552
     7  C    3.584360   2.377516   2.465200   1.479487   1.338119
     8  C    3.584360   2.377516   2.465200   1.479487   2.844014
     9  H    2.613573   4.511928   2.195912   3.483117   1.102782
    10  H    2.613573   4.511928   2.195912   3.483117   3.492000
    11  H    4.511928   2.613573   3.483117   2.195912   2.140653
    12  H    4.511928   2.613573   3.483117   2.195912   3.944658
                    6          7          8          9         10
     6  C    0.000000
     7  C    2.844014   0.000000
     8  C    1.338119   2.509552   0.000000
     9  H    3.492000   2.140653   3.944658   0.000000
    10  H    1.102782   3.944658   2.140653   4.374460   0.000000
    11  H    3.944658   1.102782   3.492000   2.515670   5.046236
    12  H    2.140653   3.492000   1.102782   5.046236   2.515670
                   11         12
    11  H    0.000000
    12  H    4.374460   0.000000
 Stoichiometry    C6H4O2
 Framework group  D2H[C2"(OC.CO),SG(C4H4)]
 Deg. of freedom     6
 Full point group                 D2H     NOp   8
 Largest Abelian subgroup         D2H     NOp   8
 Largest concise Abelian subgroup D2      NOp   4
                         Standard orientation:                         
 ---------------------------------------------------------------------
 Center     Atomic      Atomic             Coordinates (Angstroms)
 Number     Number       Type             X           Y           Z
 ---------------------------------------------------------------------
      1          8           0        0.000000   -0.000000    2.688495
      2          8           0        0.000000   -0.000000   -2.688495
      3          6           0        0.000000   -0.000000    1.452908
      4          6           0        0.000000   -0.000000   -1.452908
      5          6           0        0.000000    1.254776    0.669060
      6          6           0       -0.000000   -1.254776    0.669060
      7          6           0        0.000000    1.254776   -0.669060
      8          6           0       -0.000000   -1.254776   -0.669060
      9          1           0        0.000000    2.187230    1.257835
     10          1           0       -0.000000   -2.187230    1.257835
     11          1           0        0.000000    2.187230   -1.257835
     12          1           0       -0.000000   -2.187230   -1.257835
 ---------------------------------------------------------------------
 Rotational constants (GHZ):      5.3276384      1.6315700      1.2490522
 1\1\GINC-GTX1080DELTA\FOpt\RAM1\ZDO\C6H4O2\MVEROT\11-Apr-2022\0\\#n AM
 1 Opt\\Optimisation of pbenzoquinone using the AM1 hamiltonian\\0,1\O,
 2.6884949,0.,0.\O,-2.6884949,0.,0.\C,1.4529083,0.,0.\C,-1.4529083,0.,0
 .\C,0.6690595,0.,-1.254776\C,0.6690595,0.,1.254776\C,-0.6690595,0.,-1.
 254776\C,-0.6690595,0.,1.254776\H,1.2578352,0.,-2.18723\H,1.2578352,0.
 ,2.18723\H,-1.2578352,0.,-2.18723\H,-1.2578352,0.,2.18723\\Version=AM6
 4L-G09RevD.01\State=1-AG\HF=-0.040191\RMSD=4.763e-09\RMSF=1.393e-04\Di
 pole=0.,0.,0.\PG=D02H [C2"(O1C1.C1O1),SG(C4H4)]\\@


 OUR LITTLE SYSTEMS HAVE THEIR DAY,    
   THEY HAVE THEIR DAY AND CEASE TO BE.
   THEY ARE BUT BROKEN LIGHTS OF THEE, 
 AND THOU, OH LORD, ART MORE THAN THEY.
          -------------------          
 LET KNOWLEDGE GROW FROM MORE TO MORE, 
   BUT MORE OF REVERENCE IN US DWELL.  
   THAT MIND AND SOUL, ACCORDING WELL, 
 MAY MAKE ONE MUSIC AS BEFORE.....     
          -------------------          
                    LORD TENNYSON      
 Job cpu time:       0 days  0 hours  0 minutes  1.3 seconds.
 File lengths (MBytes):  RWF=     72 Int=      0 D2E=      0 Chk=      3 Scr=      2
 Normal termination of Gaussian 09 at Mon Apr 11 18:22:11 2022.
