 Entering Gaussian System, Link 0=g09
 Input=/scratch/mverot/1-3-propanediol-open-opt/1-3-propanediol-open-opt.com
 Output=/scratch/mverot/1-3-propanediol-open-opt/1-3-propanediol-open-opt.log
 Initial command:
 /opt/g09/l1.exe "/scratch/mverot/1-3-propanediol-open-opt/Gau-1477260.inp" -scrdir="/scratch/mverot/1-3-propanediol-open-opt/"
 Entering Link 1 = /opt/g09/l1.exe PID=   1477262.
  
 Copyright (c) 1988,1990,1992,1993,1995,1998,2003,2009,2013,
            Gaussian, Inc.  All Rights Reserved.
  
 This is part of the Gaussian(R) 09 program.  It is based on
 the Gaussian(R) 03 system (copyright 2003, Gaussian, Inc.),
 the Gaussian(R) 98 system (copyright 1998, Gaussian, Inc.),
 the Gaussian(R) 94 system (copyright 1995, Gaussian, Inc.),
 the Gaussian 92(TM) system (copyright 1992, Gaussian, Inc.),
 the Gaussian 90(TM) system (copyright 1990, Gaussian, Inc.),
 the Gaussian 88(TM) system (copyright 1988, Gaussian, Inc.),
 the Gaussian 86(TM) system (copyright 1986, Carnegie Mellon
 University), and the Gaussian 82(TM) system (copyright 1983,
 Carnegie Mellon University). Gaussian is a federally registered
 trademark of Gaussian, Inc.
  
 This software contains proprietary and confidential information,
 including trade secrets, belonging to Gaussian, Inc.
  
 This software is provided under written license and may be
 used, copied, transmitted, or stored only in accord with that
 written license.
  
 The following legend is applicable only to US Government
 contracts under FAR:
  
                    RESTRICTED RIGHTS LEGEND
  
 Use, reproduction and disclosure by the US Government is
 subject to restrictions as set forth in subparagraphs (a)
 and (c) of the Commercial Computer Software - Restricted
 Rights clause in FAR 52.227-19.
  
 Gaussian, Inc.
 340 Quinnipiac St., Bldg. 40, Wallingford CT 06492
  
  
 ---------------------------------------------------------------
 Warning -- This program may not be used in any manner that
 competes with the business of Gaussian, Inc. or will provide
 assistance to any competitor of Gaussian, Inc.  The licensee
 of this program is prohibited from giving any competitor of
 Gaussian, Inc. access to this program.  By using this program,
 the user acknowledges that Gaussian, Inc. is engaged in the
 business of creating and licensing software in the field of
 computational chemistry and represents and warrants to the
 licensee that it is not a competitor of Gaussian, Inc. and that
 it will not use this program in any manner prohibited above.
 ---------------------------------------------------------------
  

 Cite this work as:
 Gaussian 09, Revision D.01,
 M. J. Frisch, G. W. Trucks, H. B. Schlegel, G. E. Scuseria, 
 M. A. Robb, J. R. Cheeseman, G. Scalmani, V. Barone, B. Mennucci, 
 G. A. Petersson, H. Nakatsuji, M. Caricato, X. Li, H. P. Hratchian, 
 A. F. Izmaylov, J. Bloino, G. Zheng, J. L. Sonnenberg, M. Hada, 
 M. Ehara, K. Toyota, R. Fukuda, J. Hasegawa, M. Ishida, T. Nakajima, 
 Y. Honda, O. Kitao, H. Nakai, T. Vreven, J. A. Montgomery, Jr., 
 J. E. Peralta, F. Ogliaro, M. Bearpark, J. J. Heyd, E. Brothers, 
 K. N. Kudin, V. N. Staroverov, T. Keith, R. Kobayashi, J. Normand, 
 K. Raghavachari, A. Rendell, J. C. Burant, S. S. Iyengar, J. Tomasi, 
 M. Cossi, N. Rega, J. M. Millam, M. Klene, J. E. Knox, J. B. Cross, 
 V. Bakken, C. Adamo, J. Jaramillo, R. Gomperts, R. E. Stratmann, 
 O. Yazyev, A. J. Austin, R. Cammi, C. Pomelli, J. W. Ochterski, 
 R. L. Martin, K. Morokuma, V. G. Zakrzewski, G. A. Voth, 
 P. Salvador, J. J. Dannenberg, S. Dapprich, A. D. Daniels, 
 O. Farkas, J. B. Foresman, J. V. Ortiz, J. Cioslowski, 
 and D. J. Fox, Gaussian, Inc., Wallingford CT, 2013.
 
 ******************************************
 Gaussian 09:  AM64L-G09RevD.01 24-Apr-2013
                17-Apr-2022 
 ******************************************
 %chk=1-3-propanediol-open-opt
 ----------
 #n PM6 Opt
 ----------
 1/14=-1,18=20,19=15,26=1,38=1/1,3;
 2/9=110,12=2,17=6,18=5,40=1/2;
 3/5=2,16=1,25=1,41=3900000,71=1/1,2,3;
 4/35=1/1;
 5/5=2,35=1,38=5/2;
 6/7=2,8=2,9=2,10=2,28=1/1;
 7//1,2,3,16;
 1/14=-1,18=20,19=15,26=1/3(2);
 2/9=110/2;
 99//99;
 2/9=110/2;
 3/5=2,16=1,25=1,41=3900000,71=1,135=20/1,2,3;
 4/5=5,16=3,35=1/1;
 5/5=2,35=1,38=5/2;
 7//1,2,3,16;
 1/14=-1,18=20,19=15,26=1/3(-5);
 2/9=110/2;
 6/7=2,8=2,9=2,10=2,19=2,28=1/1;
 99/9=1/99;
 -------------------------
 Optimisation de geometrie
 -------------------------
 Symbolic Z-matrix:
 Charge =  0 Multiplicity = 1
 C                     1.35234   2.2671    1.22173 
 O                     0.00813   2.03948   0.8116 
 C                     2.07311   0.92948   1.30359 
 C                     3.47119   1.06237   1.88454 
 O                     4.25953   1.9209    1.07292 
 H                     1.3328    2.76292   2.19737 
 H                     1.82988   2.93046   0.49372 
 H                    -0.4074    2.91344   0.714 
 H                     2.12648   0.50186   0.29456 
 H                     1.48589   0.22668   1.90634 
 H                     3.95461   0.08103   1.92404 
 H                     3.43572   1.47544   2.89774 
 H                     5.165     1.89747   1.42856 
 

 GradGradGradGradGradGradGradGradGradGradGradGradGradGradGradGradGradGrad
 Berny optimization.
 Initialization pass.
                           ----------------------------
                           !    Initial Parameters    !
                           ! (Angstroms and Degrees)  !
 --------------------------                            --------------------------
 ! Name  Definition              Value          Derivative Info.                !
 --------------------------------------------------------------------------------
 ! R1    R(1,2)                  1.4237         estimate D2E/DX2                !
 ! R2    R(1,3)                  1.5217         estimate D2E/DX2                !
 ! R3    R(1,6)                  1.0946         estimate D2E/DX2                !
 ! R4    R(1,7)                  1.0946         estimate D2E/DX2                !
 ! R5    R(2,8)                  0.9726         estimate D2E/DX2                !
 ! R6    R(3,4)                  1.5198         estimate D2E/DX2                !
 ! R7    R(3,9)                  1.0972         estimate D2E/DX2                !
 ! R8    R(3,10)                 1.0964         estimate D2E/DX2                !
 ! R9    R(4,5)                  1.4203         estimate D2E/DX2                !
 ! R10   R(4,11)                 1.0947         estimate D2E/DX2                !
 ! R11   R(4,12)                 1.0947         estimate D2E/DX2                !
 ! R12   R(5,13)                 0.9731         estimate D2E/DX2                !
 ! A1    A(2,1,3)              108.795          estimate D2E/DX2                !
 ! A2    A(2,1,6)              108.2003         estimate D2E/DX2                !
 ! A3    A(2,1,7)              108.4946         estimate D2E/DX2                !
 ! A4    A(3,1,6)              111.0203         estimate D2E/DX2                !
 ! A5    A(3,1,7)              111.2153         estimate D2E/DX2                !
 ! A6    A(6,1,7)              109.0323         estimate D2E/DX2                !
 ! A7    A(1,2,8)              106.7753         estimate D2E/DX2                !
 ! A8    A(1,3,4)              112.2989         estimate D2E/DX2                !
 ! A9    A(1,3,9)              108.4313         estimate D2E/DX2                !
 ! A10   A(1,3,10)             109.8382         estimate D2E/DX2                !
 ! A11   A(4,3,9)              109.9298         estimate D2E/DX2                !
 ! A12   A(4,3,10)             109.7917         estimate D2E/DX2                !
 ! A13   A(9,3,10)             106.3681         estimate D2E/DX2                !
 ! A14   A(3,4,5)              110.1826         estimate D2E/DX2                !
 ! A15   A(3,4,11)             109.9776         estimate D2E/DX2                !
 ! A16   A(3,4,12)             110.9142         estimate D2E/DX2                !
 ! A17   A(5,4,11)             108.5053         estimate D2E/DX2                !
 ! A18   A(5,4,12)             108.5892         estimate D2E/DX2                !
 ! A19   A(11,4,12)            108.6129         estimate D2E/DX2                !
 ! A20   A(4,5,13)             107.0422         estimate D2E/DX2                !
 ! D1    D(3,1,2,8)           -176.4582         estimate D2E/DX2                !
 ! D2    D(6,1,2,8)             62.8277         estimate D2E/DX2                !
 ! D3    D(7,1,2,8)            -55.333          estimate D2E/DX2                !
 ! D4    D(2,1,3,4)           -173.5853         estimate D2E/DX2                !
 ! D5    D(2,1,3,9)             64.7455         estimate D2E/DX2                !
 ! D6    D(2,1,3,10)           -51.1046         estimate D2E/DX2                !
 ! D7    D(6,1,3,4)            -54.6231         estimate D2E/DX2                !
 ! D8    D(6,1,3,9)           -176.2924         estimate D2E/DX2                !
 ! D9    D(6,1,3,10)            67.8576         estimate D2E/DX2                !
 ! D10   D(7,1,3,4)             66.972          estimate D2E/DX2                !
 ! D11   D(7,1,3,9)            -54.6972         estimate D2E/DX2                !
 ! D12   D(7,1,3,10)          -170.5473         estimate D2E/DX2                !
 ! D13   D(1,3,4,5)            -60.3121         estimate D2E/DX2                !
 ! D14   D(1,3,4,11)          -179.8787         estimate D2E/DX2                !
 ! D15   D(1,3,4,12)            59.9569         estimate D2E/DX2                !
 ! D16   D(9,3,4,5)             60.4977         estimate D2E/DX2                !
 ! D17   D(9,3,4,11)           -59.0689         estimate D2E/DX2                !
 ! D18   D(9,3,4,12)          -179.2332         estimate D2E/DX2                !
 ! D19   D(10,3,4,5)           177.1809         estimate D2E/DX2                !
 ! D20   D(10,3,4,11)           57.6143         estimate D2E/DX2                !
 ! D21   D(10,3,4,12)          -62.5501         estimate D2E/DX2                !
 ! D22   D(3,4,5,13)          -174.0016         estimate D2E/DX2                !
 ! D23   D(11,4,5,13)          -53.5453         estimate D2E/DX2                !
 ! D24   D(12,4,5,13)           64.3379         estimate D2E/DX2                !
 --------------------------------------------------------------------------------
 Trust Radius=3.00D-01 FncErr=1.00D-07 GrdErr=1.00D-07
 Number of steps in this run=     66 maximum allowed number of steps=    100.
 GradGradGradGradGradGradGradGradGradGradGradGradGradGradGradGradGradGrad

                          Input orientation:                          
 ---------------------------------------------------------------------
 Center     Atomic      Atomic             Coordinates (Angstroms)
 Number     Number       Type             X           Y           Z
 ---------------------------------------------------------------------
      1          6           0        1.352340    2.267100    1.221730
      2          8           0        0.008130    2.039480    0.811600
      3          6           0        2.073110    0.929480    1.303590
      4          6           0        3.471190    1.062370    1.884540
      5          8           0        4.259530    1.920900    1.072920
      6          1           0        1.332800    2.762920    2.197370
      7          1           0        1.829880    2.930460    0.493720
      8          1           0       -0.407400    2.913440    0.714000
      9          1           0        2.126480    0.501860    0.294560
     10          1           0        1.485890    0.226680    1.906340
     11          1           0        3.954610    0.081030    1.924040
     12          1           0        3.435720    1.475440    2.897740
     13          1           0        5.165000    1.897470    1.428560
 ---------------------------------------------------------------------
                    Distance matrix (angstroms):
                    1          2          3          4          5
     1  C    0.000000
     2  O    1.423699   0.000000
     3  C    1.521656   2.395474   0.000000
     4  C    2.525909   3.754827   1.519799   0.000000
     5  O    2.931510   4.261074   2.411753   1.420310   0.000000
     6  H    1.094574   2.049018   2.169886   2.749990   3.246403
     7  H    1.094573   2.052722   2.172319   2.849217   2.694046
     8  H    1.942223   0.972624   3.230579   4.454221   4.784788
     9  H    2.138927   2.668148   1.097200   2.156491   2.677577
    10  H    2.156349   2.582339   1.096386   2.154128   3.355302
    11  H    3.470440   4.543980   2.155196   1.094661   2.050001
    12  H    2.788585   4.051974   2.167047   1.094742   2.051113
    13  H    3.836115   5.195586   3.242284   1.942756   0.973090
                    6          7          8          9         10
     6  H    0.000000
     7  H    1.782577   0.000000
     8  H    2.291580   2.248163   0.000000
     9  H    3.059903   2.454737   3.523095   0.000000
    10  H    2.557469   3.069894   3.496413   1.756108   0.000000
    11  H    3.760470   3.831389   5.339838   2.484826   2.473076
    12  H    2.563278   3.236529   4.648240   3.072216   2.518752
    13  H    4.003227   3.614418   5.709153   3.530763   4.068865
                   11         12         13
    11  H    0.000000
    12  H    1.778122   0.000000
    13  H    2.238303   2.308031   0.000000
 Stoichiometry    C3H8O2
 Framework group  C1[X(C3H8O2)]
 Deg. of freedom    33
 Full point group                 C1      NOp   1
 Largest Abelian subgroup         C1      NOp   1
 Largest concise Abelian subgroup C1      NOp   1
                         Standard orientation:                         
 ---------------------------------------------------------------------
 Center     Atomic      Atomic             Coordinates (Angstroms)
 Number     Number       Type             X           Y           Z
 ---------------------------------------------------------------------
      1          6           0        0.983047   -0.379238    0.235436
      2          8           0        2.313491   -0.027686   -0.129593
      3          6           0        0.041097    0.724557   -0.222610
      4          6           0       -1.382330    0.506446    0.263262
      5          8           0       -1.889341   -0.721005   -0.240311
      6          1           0        0.947370   -0.499722    1.322774
      7          1           0        0.733981   -1.334242   -0.237874
      8          1           0        2.881201   -0.775410    0.124596
      9          1           0        0.060144    0.764089   -1.318933
     10          1           0        0.408254    1.696314    0.128026
     11          1           0       -2.026219    1.318786   -0.088582
     12          1           0       -1.421900    0.477923    1.356916
     13          1           0       -2.826911   -0.768796    0.015782
 ---------------------------------------------------------------------
 Rotational constants (GHZ):     13.7431319      2.4037000      2.2010294
 Standard basis: VSTO-6G (5D, 7F)
 There are    28 symmetry adapted cartesian basis functions of A   symmetry.
 There are    28 symmetry adapted basis functions of A   symmetry.
    28 basis functions,   168 primitive gaussians,    28 cartesian basis functions
    16 alpha electrons       16 beta electrons
       nuclear repulsion energy       134.0526738518 Hartrees.
 Integral buffers will be    131072 words long.
 Regular integral format.
 Two-electron integral symmetry is turned off.
 Do NDO integrals.
 One-electron integrals computed using PRISM.
 NBasis=    28 RedAO= F EigKep=  0.00D+00  NBF=    28
 NBsUse=    28 1.00D-04 EigRej=  0.00D+00 NBFU=    28
 Simple Huckel Guess.
 Overlap will be assumed to be unity.
 Keep J ints in memory in canonical form, NReq=891302.
 Requested convergence on RMS density matrix=1.00D-08 within 128 cycles.
 Requested convergence on MAX density matrix=1.00D-06.
 Requested convergence on             energy=1.00D-06.
 No special actions if energy rises.
 SCF Done:  E(RPM6) = -0.152915209297     A.U. after   13 cycles
            NFock= 12  Conv=0.41D-08     -V/T= 0.9915

 **********************************************************************

            Population analysis using the SCF density.

 **********************************************************************

 Orbital symmetries:
       Occupied  (A) (A) (A) (A) (A) (A) (A) (A) (A) (A) (A) (A)
                 (A) (A) (A) (A)
       Virtual   (A) (A) (A) (A) (A) (A) (A) (A) (A) (A) (A) (A)
 The electronic state is 1-A.
 Alpha  occ. eigenvalues --   -1.12034  -1.10300  -1.01511  -0.87781  -0.76661
 Alpha  occ. eigenvalues --   -0.68410  -0.65620  -0.60865  -0.57088  -0.52877
 Alpha  occ. eigenvalues --   -0.51728  -0.47161  -0.45572  -0.44525  -0.38931
 Alpha  occ. eigenvalues --   -0.37997
 Alpha virt. eigenvalues --    0.09467   0.10041   0.13492   0.14470   0.18659
 Alpha virt. eigenvalues --    0.19436   0.19795   0.20223   0.20772   0.20970
 Alpha virt. eigenvalues --    0.21698   0.23463
          Condensed to atoms (all electrons):
               1          2          3          4          5          6
     1  C    3.982004   0.000000   0.000000   0.000000   0.000000   0.000000
     2  O    0.000000   6.551178   0.000000   0.000000   0.000000   0.000000
     3  C    0.000000   0.000000   4.321492   0.000000   0.000000   0.000000
     4  C    0.000000   0.000000   0.000000   3.994122   0.000000   0.000000
     5  O    0.000000   0.000000   0.000000   0.000000   6.543227   0.000000
     6  H    0.000000   0.000000   0.000000   0.000000   0.000000   0.894702
     7  H    0.000000   0.000000   0.000000   0.000000   0.000000   0.000000
     8  H    0.000000   0.000000   0.000000   0.000000   0.000000   0.000000
     9  H    0.000000   0.000000   0.000000   0.000000   0.000000   0.000000
    10  H    0.000000   0.000000   0.000000   0.000000   0.000000   0.000000
    11  H    0.000000   0.000000   0.000000   0.000000   0.000000   0.000000
    12  H    0.000000   0.000000   0.000000   0.000000   0.000000   0.000000
    13  H    0.000000   0.000000   0.000000   0.000000   0.000000   0.000000
               7          8          9         10         11         12
     1  C    0.000000   0.000000   0.000000   0.000000   0.000000   0.000000
     2  O    0.000000   0.000000   0.000000   0.000000   0.000000   0.000000
     3  C    0.000000   0.000000   0.000000   0.000000   0.000000   0.000000
     4  C    0.000000   0.000000   0.000000   0.000000   0.000000   0.000000
     5  O    0.000000   0.000000   0.000000   0.000000   0.000000   0.000000
     6  H    0.000000   0.000000   0.000000   0.000000   0.000000   0.000000
     7  H    0.876681   0.000000   0.000000   0.000000   0.000000   0.000000
     8  H    0.000000   0.693534   0.000000   0.000000   0.000000   0.000000
     9  H    0.000000   0.000000   0.829462   0.000000   0.000000   0.000000
    10  H    0.000000   0.000000   0.000000   0.837740   0.000000   0.000000
    11  H    0.000000   0.000000   0.000000   0.000000   0.890819   0.000000
    12  H    0.000000   0.000000   0.000000   0.000000   0.000000   0.891113
    13  H    0.000000   0.000000   0.000000   0.000000   0.000000   0.000000
              13
     1  C    0.000000
     2  O    0.000000
     3  C    0.000000
     4  C    0.000000
     5  O    0.000000
     6  H    0.000000
     7  H    0.000000
     8  H    0.000000
     9  H    0.000000
    10  H    0.000000
    11  H    0.000000
    12  H    0.000000
    13  H    0.693926
 Mulliken charges:
               1
     1  C    0.017996
     2  O   -0.551178
     3  C   -0.321492
     4  C    0.005878
     5  O   -0.543227
     6  H    0.105298
     7  H    0.123319
     8  H    0.306466
     9  H    0.170538
    10  H    0.162260
    11  H    0.109181
    12  H    0.108887
    13  H    0.306074
 Sum of Mulliken charges =   0.00000
 Mulliken charges with hydrogens summed into heavy atoms:
               1
     1  C    0.246613
     2  O   -0.244712
     3  C    0.011306
     4  C    0.223946
     5  O   -0.237153
 Charge=              0.0000 electrons
 Dipole moment (field-independent basis, Debye):
    X=             -1.6814    Y=              0.0502    Z=              1.8123  Tot=              2.4727
 N-N= 1.340526738518D+02 E-N=-2.292891273676D+02  KE=-1.794086331733D+01
 Calling FoFJK, ICntrl=      2127 FMM=F ISym2X=0 I1Cent= 0 IOpClX= 0 NMat=1 NMatS=1 NMatT=0.
 ***** Axes restored to original set *****
 -------------------------------------------------------------------
 Center     Atomic                   Forces (Hartrees/Bohr)
 Number     Number              X              Y              Z
 -------------------------------------------------------------------
      1        6           0.014374136    0.005821783    0.006718005
      2        8          -0.009539181   -0.005776932   -0.002692174
      3        6          -0.001970711    0.002520792   -0.006402488
      4        6          -0.009096675   -0.009897543    0.011561881
      5        8           0.003473585    0.008034339   -0.008833613
      6        1           0.000111291    0.003732634    0.006683460
      7        1           0.004965629    0.004094686   -0.004887138
      8        1          -0.007352035    0.000614191   -0.002536149
      9        1          -0.000090864   -0.004354584   -0.007200446
     10        1          -0.004213075   -0.004964324    0.003120873
     11        1           0.003386581   -0.007469223    0.000523498
     12        1           0.000239112    0.003602430    0.007211708
     13        1           0.005712207    0.004041749   -0.003267419
 -------------------------------------------------------------------
 Cartesian Forces:  Max     0.014374136 RMS     0.006071108

 GradGradGradGradGradGradGradGradGradGradGradGradGradGradGradGradGradGrad
 Berny optimization.
 FormGI is forming the generalized inverse of G from B-inverse, IUseBI=4.
 GSVD:  received Info=                   1 from GESDD.
 Internal  Forces:  Max     0.019313143 RMS     0.005891579
 Search for a local minimum.
 Step number   1 out of a maximum of   66
 All quantities printed in internal units (Hartrees-Bohrs-Radians)
 Mixed Optimization -- RFO/linear search
 Second derivative matrix not updated -- first step.
 ITU=  0
     Eigenvalues ---    0.00479   0.00504   0.01378   0.01423   0.03653
     Eigenvalues ---    0.04928   0.05169   0.05298   0.05714   0.05826
     Eigenvalues ---    0.08351   0.11407   0.11492   0.12201   0.13697
     Eigenvalues ---    0.13805   0.16000   0.16000   0.21891   0.22017
     Eigenvalues ---    0.22036   0.30208   0.30386   0.33994   0.34085
     Eigenvalues ---    0.34270   0.34279   0.34289   0.34289   0.41908
     Eigenvalues ---    0.42414   0.52750   0.52844
 RFO step:  Lambda=-6.99353258D-03 EMin= 4.79476882D-03
 Linear search not attempted -- first point.
 Iteration  1 RMS(Cart)=  0.04821279 RMS(Int)=  0.00193069
 Iteration  2 RMS(Cart)=  0.00265474 RMS(Int)=  0.00012855
 Iteration  3 RMS(Cart)=  0.00000390 RMS(Int)=  0.00012851
 Iteration  4 RMS(Cart)=  0.00000000 RMS(Int)=  0.00012851
 Variable       Old X    -DE/DX   Delta X   Delta X   Delta X     New X
                                 (Linear)    (Quad)   (Total)
    R1        2.69040   0.01828   0.00000   0.04290   0.04290   2.73330
    R2        2.87551   0.00607   0.00000   0.01964   0.01964   2.89516
    R3        2.06845   0.00765   0.00000   0.02185   0.02185   2.09030
    R4        2.06844   0.00790   0.00000   0.02257   0.02257   2.09102
    R5        1.83799   0.00395   0.00000   0.00737   0.00737   1.84536
    R6        2.87200   0.00602   0.00000   0.01937   0.01937   2.89137
    R7        2.07341   0.00831   0.00000   0.02397   0.02397   2.09737
    R8        2.07187   0.00715   0.00000   0.02057   0.02057   2.09244
    R9        2.68400   0.01931   0.00000   0.04480   0.04480   2.72879
   R10        2.06861   0.00821   0.00000   0.02347   0.02347   2.09208
   R11        2.06876   0.00803   0.00000   0.02295   0.02295   2.09171
   R12        1.83887   0.00402   0.00000   0.00753   0.00753   1.84640
    A1        1.89883  -0.01250   0.00000  -0.05822  -0.05830   1.84053
    A2        1.88845   0.00402   0.00000   0.01559   0.01558   1.90403
    A3        1.89359   0.00536   0.00000   0.02285   0.02235   1.91594
    A4        1.93767   0.00333   0.00000   0.01549   0.01556   1.95323
    A5        1.94107   0.00102   0.00000  -0.00195  -0.00198   1.93909
    A6        1.90297  -0.00107   0.00000   0.00691   0.00666   1.90963
    A7        1.86358   0.01235   0.00000   0.07397   0.07397   1.93755
    A8        1.95999  -0.00316   0.00000  -0.01308  -0.01306   1.94692
    A9        1.89248   0.00142   0.00000   0.00917   0.00919   1.90168
   A10        1.91704   0.00071   0.00000   0.00075   0.00076   1.91780
   A11        1.91864   0.00093   0.00000   0.00579   0.00581   1.92445
   A12        1.91623   0.00130   0.00000   0.00556   0.00554   1.92177
   A13        1.85647  -0.00108   0.00000  -0.00785  -0.00786   1.84861
   A14        1.92305  -0.01235   0.00000  -0.05859  -0.05864   1.86441
   A15        1.91947   0.00259   0.00000   0.01246   0.01237   1.93184
   A16        1.93582   0.00341   0.00000   0.01512   0.01482   1.95064
   A17        1.89378   0.00434   0.00000   0.01702   0.01700   1.91078
   A18        1.89524   0.00338   0.00000   0.00589   0.00579   1.90103
   A19        1.89565  -0.00117   0.00000   0.00904   0.00871   1.90436
   A20        1.86824   0.01212   0.00000   0.07258   0.07258   1.94082
    D1       -3.07978   0.00089   0.00000   0.01523   0.01536  -3.06442
    D2        1.09655   0.00181   0.00000   0.02134   0.02156   1.11811
    D3       -0.96574  -0.00211   0.00000  -0.00815  -0.00850  -0.97424
    D4       -3.02964   0.00009   0.00000   0.00184   0.00198  -3.02766
    D5        1.13002  -0.00001   0.00000  -0.00332  -0.00315   1.12687
    D6       -0.89194   0.00009   0.00000   0.00050   0.00066  -0.89129
    D7       -0.95335  -0.00081   0.00000  -0.00622  -0.00627  -0.95962
    D8       -3.07688  -0.00091   0.00000  -0.01138  -0.01140  -3.08828
    D9        1.18434  -0.00081   0.00000  -0.00757  -0.00759   1.17675
   D10        1.16888   0.00083   0.00000   0.01197   0.01183   1.18071
   D11       -0.95465   0.00073   0.00000   0.00681   0.00670  -0.94795
   D12       -2.97661   0.00083   0.00000   0.01062   0.01051  -2.96611
   D13       -1.05264   0.00007   0.00000  -0.00059  -0.00059  -1.05323
   D14       -3.13948   0.00082   0.00000   0.00725   0.00731  -3.13217
   D15        1.04645  -0.00160   0.00000  -0.02190  -0.02198   1.02447
   D16        1.05588   0.00040   0.00000   0.00635   0.00635   1.06223
   D17       -1.03095   0.00115   0.00000   0.01418   0.01424  -1.01670
   D18       -3.12821  -0.00127   0.00000  -0.01497  -0.01504   3.13993
   D19        3.09239   0.00040   0.00000   0.00346   0.00348   3.09587
   D20        1.00556   0.00115   0.00000   0.01130   0.01137   1.01693
   D21       -1.09170  -0.00127   0.00000  -0.01785  -0.01791  -1.10962
   D22       -3.03690   0.00015   0.00000   0.00127   0.00145  -3.03545
   D23       -0.93454  -0.00144   0.00000  -0.00827  -0.00837  -0.94291
   D24        1.12291   0.00146   0.00000   0.01529   0.01521   1.13812
         Item               Value     Threshold  Converged?
 Maximum Force            0.019313     0.000450     NO 
 RMS     Force            0.005892     0.000300     NO 
 Maximum Displacement     0.161399     0.001800     NO 
 RMS     Displacement     0.049266     0.001200     NO 
 Predicted change in Energy=-3.604973D-03
 GradGradGradGradGradGradGradGradGradGradGradGradGradGradGradGradGradGrad

                          Input orientation:                          
 ---------------------------------------------------------------------
 Center     Atomic      Atomic             Coordinates (Angstroms)
 Number     Number       Type             X           Y           Z
 ---------------------------------------------------------------------
      1          6           0        1.381805    2.299106    1.242078
      2          8           0        0.030804    2.031798    0.800014
      3          6           0        2.068333    0.931027    1.307009
      4          6           0        3.468038    1.032976    1.916501
      5          8           0        4.230980    1.915858    1.065843
      6          1           0        1.347838    2.791306    2.232092
      7          1           0        1.887972    2.964845    0.517530
      8          1           0       -0.463645    2.862665    0.662970
      9          1           0        2.124993    0.507062    0.282859
     10          1           0        1.448087    0.225927    1.893675
     11          1           0        3.954366    0.038921    1.947660
     12          1           0        3.440525    1.455195    2.939327
     13          1           0        5.167181    1.951944    1.343151
 ---------------------------------------------------------------------
                    Distance matrix (angstroms):
                    1          2          3          4          5
     1  C    0.000000
     2  O    1.446402   0.000000
     3  C    1.532050   2.370710   0.000000
     4  C    2.531857   3.749502   1.530048   0.000000
     5  O    2.880232   4.210176   2.388534   1.444015   0.000000
     6  H    1.106138   2.088607   2.198984   2.772466   3.230952
     7  H    1.106518   2.097486   2.189115   2.861092   2.625016
     8  H    2.014609   0.976525   3.249143   4.514115   4.806064
     9  H    2.164221   2.641571   1.109883   2.179253   2.651971
    10  H    2.174176   2.542825   1.107270   2.175327   3.359414
    11  H    3.496334   4.547856   2.182523   1.107082   2.092130
    12  H    2.798422   4.066366   2.195934   1.106887   2.084939
    13  H    3.802605   5.165631   3.262888   2.015024   0.977074
                    6          7          8          9         10
     6  H    0.000000
     7  H    1.805985   0.000000
     8  H    2.397647   2.358325   0.000000
     9  H    3.101814   2.480312   3.520568   0.000000
    10  H    2.589545   3.096602   3.481629   1.769737   0.000000
    11  H    3.801383   3.856979   5.398406   2.517405   2.513826
    12  H    2.581610   3.248779   4.733426   3.112299   2.564039
    13  H    4.010252   3.529990   5.744411   3.530837   4.136891
                   11         12         13
    11  H    0.000000
    12  H    1.803682   0.000000
    13  H    2.344357   2.403305   0.000000
 Stoichiometry    C3H8O2
 Framework group  C1[X(C3H8O2)]
 Deg. of freedom    33
 Full point group                 C1      NOp   1
 Largest Abelian subgroup         C1      NOp   1
 Largest concise Abelian subgroup C1      NOp   1
                         Standard orientation:                         
 ---------------------------------------------------------------------
 Center     Atomic      Atomic             Coordinates (Angstroms)
 Number     Number       Type             X           Y           Z
 ---------------------------------------------------------------------
      1          6           0        0.960626   -0.402022    0.268511
      2          8           0        2.294609   -0.020815   -0.140451
      3          6           0        0.044580    0.720650   -0.229126
      4          6           0       -1.390218    0.538097    0.269949
      5          8           0       -1.854390   -0.728043   -0.246398
      6          1           0        0.933736   -0.498992    1.370062
      7          1           0        0.690153   -1.370792   -0.192697
      8          1           0        2.940767   -0.719920    0.077110
      9          1           0        0.066266    0.738591   -1.338652
     10          1           0        0.439562    1.701912    0.098231
     11          1           0       -2.041289    1.350957   -0.105548
     12          1           0       -1.440394    0.515003    1.375457
     13          1           0       -2.800477   -0.866248   -0.045175
 ---------------------------------------------------------------------
 Rotational constants (GHZ):     13.1805703      2.4375765      2.2253347
 Standard basis: VSTO-6G (5D, 7F)
 There are    28 symmetry adapted cartesian basis functions of A   symmetry.
 There are    28 symmetry adapted basis functions of A   symmetry.
    28 basis functions,   168 primitive gaussians,    28 cartesian basis functions
    16 alpha electrons       16 beta electrons
       nuclear repulsion energy       133.6875366647 Hartrees.
 Integral buffers will be    131072 words long.
 Regular integral format.
 Two-electron integral symmetry is turned off.
 Do NDO integrals.
 One-electron integrals computed using PRISM.
 NBasis=    28 RedAO= F EigKep=  0.00D+00  NBF=    28
 NBsUse=    28 1.00D-04 EigRej=  0.00D+00 NBFU=    28
 Initial guess from the checkpoint file:  "1-3-propanediol-open-opt.chk"
 B after Tr=     0.000000   -0.000000    0.000000
         Rot=    0.999987    0.004849    0.001096   -0.000977 Ang=   0.58 deg.
 Overlap will be assumed to be unity.
 Keep J ints in memory in canonical form, NReq=891302.
 Requested convergence on RMS density matrix=1.00D-08 within 128 cycles.
 Requested convergence on MAX density matrix=1.00D-06.
 Requested convergence on             energy=1.00D-06.
 No special actions if energy rises.
 SCF Done:  E(RPM6) = -0.156106194984     A.U. after   11 cycles
            NFock= 10  Conv=0.68D-08     -V/T= 0.9913
 Calling FoFJK, ICntrl=      2127 FMM=F ISym2X=0 I1Cent= 0 IOpClX= 0 NMat=1 NMatS=1 NMatT=0.
 ***** Axes restored to original set *****
 -------------------------------------------------------------------
 Center     Atomic                   Forces (Hartrees/Bohr)
 Number     Number              X              Y              Z
 -------------------------------------------------------------------
      1        6           0.001293458    0.001741769    0.000912650
      2        8           0.002013120   -0.001654905    0.001192561
      3        6           0.000916912    0.003415646   -0.001411325
      4        6          -0.000901828   -0.001844324    0.001981031
      5        8          -0.002342514   -0.000145732   -0.000544766
      6        1          -0.001431014   -0.000626516   -0.001131684
      7        1          -0.001080567   -0.000431328   -0.000243398
      8        1           0.003014477   -0.000686099    0.000596102
      9        1           0.000019861   -0.000066000   -0.000259775
     10        1          -0.000627310   -0.000327752   -0.000052067
     11        1           0.000641417    0.001400099   -0.000795579
     12        1           0.000903151    0.000909164   -0.001307648
     13        1          -0.002419164   -0.001684022    0.001063898
 -------------------------------------------------------------------
 Cartesian Forces:  Max     0.003415646 RMS     0.001377448

 GradGradGradGradGradGradGradGradGradGradGradGradGradGradGradGradGradGrad
 Berny optimization.
 Using GEDIIS/GDIIS optimizer.
 FormGI is forming the generalized inverse of G from B-inverse, IUseBI=4.
 GSVD:  received Info=                   1 from GESDD.
 Internal  Forces:  Max     0.004810022 RMS     0.001743259
 Search for a local minimum.
 Step number   2 out of a maximum of   66
 All quantities printed in internal units (Hartrees-Bohrs-Radians)
 Mixed Optimization -- RFO/linear search
 Update second derivatives using D2CorX and points    1    2
 DE= -3.19D-03 DEPred=-3.60D-03 R= 8.85D-01
 TightC=F SS=  1.41D+00  RLast= 1.75D-01 DXNew= 5.0454D-01 5.2500D-01
 Trust test= 8.85D-01 RLast= 1.75D-01 DXMaxT set to 5.05D-01
 ITU=  1  0
 Use linear search instead of GDIIS.
     Eigenvalues ---    0.00479   0.00504   0.01377   0.01423   0.03703
     Eigenvalues ---    0.04927   0.05425   0.05554   0.05651   0.05738
     Eigenvalues ---    0.08249   0.11091   0.11219   0.12118   0.13391
     Eigenvalues ---    0.13551   0.15998   0.18266   0.18601   0.21859
     Eigenvalues ---    0.21975   0.30281   0.31033   0.33903   0.34048
     Eigenvalues ---    0.34273   0.34283   0.34284   0.35018   0.42160
     Eigenvalues ---    0.47390   0.52794   0.54150
 RFO step:  Lambda=-7.19699977D-04 EMin= 4.79467287D-03
 Quartic linear search produced a step of -0.06709.
 Iteration  1 RMS(Cart)=  0.01843793 RMS(Int)=  0.00015199
 Iteration  2 RMS(Cart)=  0.00015990 RMS(Int)=  0.00008411
 Iteration  3 RMS(Cart)=  0.00000002 RMS(Int)=  0.00008411
 Variable       Old X    -DE/DX   Delta X   Delta X   Delta X     New X
                                 (Linear)    (Quad)   (Total)
    R1        2.73330  -0.00481  -0.00288  -0.00352  -0.00640   2.72690
    R2        2.89516  -0.00324  -0.00132  -0.00672  -0.00803   2.88712
    R3        2.09030  -0.00125  -0.00147   0.00026  -0.00121   2.08909
    R4        2.09102  -0.00059  -0.00151   0.00215   0.00064   2.09165
    R5        1.84536  -0.00219  -0.00049  -0.00263  -0.00313   1.84224
    R6        2.89137  -0.00370  -0.00130  -0.00811  -0.00940   2.88197
    R7        2.09737   0.00027  -0.00161   0.00472   0.00311   2.10049
    R8        2.09244   0.00053  -0.00138   0.00488   0.00350   2.09594
    R9        2.72879  -0.00394  -0.00301  -0.00117  -0.00418   2.72462
   R10        2.09208  -0.00100  -0.00157   0.00120  -0.00037   2.09171
   R11        2.09171  -0.00088  -0.00154   0.00143  -0.00011   2.09160
   R12        1.84640  -0.00208  -0.00051  -0.00241  -0.00292   1.84349
    A1        1.84053  -0.00404   0.00391  -0.03051  -0.02660   1.81393
    A2        1.90403   0.00037  -0.00104  -0.00437  -0.00534   1.89868
    A3        1.91594   0.00086  -0.00150   0.00119  -0.00026   1.91568
    A4        1.95323   0.00175  -0.00104   0.01391   0.01269   1.96592
    A5        1.93909   0.00114   0.00013   0.00740   0.00738   1.94647
    A6        1.90963  -0.00018  -0.00045   0.01068   0.01007   1.91970
    A7        1.93755  -0.00412  -0.00496  -0.01169  -0.01666   1.92090
    A8        1.94692  -0.00092   0.00088  -0.00620  -0.00532   1.94160
    A9        1.90168   0.00029  -0.00062   0.00142   0.00080   1.90248
   A10        1.91780   0.00008  -0.00005   0.00003  -0.00001   1.91779
   A11        1.92445   0.00020  -0.00039   0.00102   0.00062   1.92508
   A12        1.92177   0.00061  -0.00037   0.00574   0.00537   1.92714
   A13        1.84861  -0.00022   0.00053  -0.00180  -0.00128   1.84733
   A14        1.86441  -0.00413   0.00393  -0.03114  -0.02720   1.83721
   A15        1.93184   0.00169  -0.00083   0.01378   0.01274   1.94458
   A16        1.95064   0.00176  -0.00099   0.01412   0.01290   1.96354
   A17        1.91078   0.00049  -0.00114  -0.00303  -0.00409   1.90669
   A18        1.90103   0.00040  -0.00039  -0.00627  -0.00658   1.89445
   A19        1.90436  -0.00028  -0.00058   0.01116   0.01033   1.91469
   A20        1.94082  -0.00432  -0.00487  -0.01310  -0.01797   1.92285
    D1       -3.06442   0.00036  -0.00103   0.01547   0.01447  -3.04995
    D2        1.11811   0.00037  -0.00145   0.01851   0.01694   1.13505
    D3       -0.97424  -0.00015   0.00057   0.00741   0.00807  -0.96617
    D4       -3.02766   0.00001  -0.00013   0.00345   0.00333  -3.02432
    D5        1.12687   0.00016   0.00021   0.00524   0.00546   1.13233
    D6       -0.89129   0.00021  -0.00004   0.00658   0.00654  -0.88474
    D7       -0.95962  -0.00107   0.00042  -0.01293  -0.01258  -0.97220
    D8       -3.08828  -0.00092   0.00076  -0.01114  -0.01045  -3.09874
    D9        1.17675  -0.00086   0.00051  -0.00981  -0.00937   1.16737
   D10        1.18071   0.00077  -0.00079   0.01621   0.01548   1.19620
   D11       -0.94795   0.00093  -0.00045   0.01800   0.01761  -0.93034
   D12       -2.96611   0.00098  -0.00070   0.01933   0.01870  -2.94741
   D13       -1.05323   0.00003   0.00004  -0.00181  -0.00177  -1.05500
   D14       -3.13217   0.00098  -0.00049   0.01288   0.01249  -3.11968
   D15        1.02447  -0.00107   0.00147  -0.02088  -0.01951   1.00496
   D16        1.06223  -0.00008  -0.00043  -0.00346  -0.00389   1.05835
   D17       -1.01670   0.00087  -0.00096   0.01123   0.01037  -1.00633
   D18        3.13993  -0.00118   0.00101  -0.02254  -0.02163   3.11830
   D19        3.09587   0.00013  -0.00023  -0.00163  -0.00186   3.09401
   D20        1.01693   0.00109  -0.00076   0.01305   0.01240   1.02933
   D21       -1.10962  -0.00097   0.00120  -0.02071  -0.01960  -1.12922
   D22       -3.03545   0.00009  -0.00010   0.00484   0.00475  -3.03070
   D23       -0.94291  -0.00002   0.00056   0.00152   0.00219  -0.94072
   D24        1.13812   0.00017  -0.00102   0.00953   0.00839   1.14651
         Item               Value     Threshold  Converged?
 Maximum Force            0.004810     0.000450     NO 
 RMS     Force            0.001743     0.000300     NO 
 Maximum Displacement     0.059636     0.001800     NO 
 RMS     Displacement     0.018513     0.001200     NO 
 Predicted change in Energy=-3.842833D-04
 GradGradGradGradGradGradGradGradGradGradGradGradGradGradGradGradGradGrad

                          Input orientation:                          
 ---------------------------------------------------------------------
 Center     Atomic      Atomic             Coordinates (Angstroms)
 Number     Number       Type             X           Y           Z
 ---------------------------------------------------------------------
      1          6           0        1.395613    2.305589    1.250591
      2          8           0        0.054257    2.015733    0.804452
      3          6           0        2.068175    0.935019    1.308615
      4          6           0        3.460453    1.028255    1.924011
      5          8           0        4.199422    1.913692    1.058718
      6          1           0        1.343549    2.796267    2.239858
      7          1           0        1.895953    2.973002    0.523029
      8          1           0       -0.435292    2.845541    0.655688
      9          1           0        2.128303    0.517513    0.280230
     10          1           0        1.436600    0.229071    1.885593
     11          1           0        3.959184    0.040360    1.946963
     12          1           0        3.445429    1.462442    2.942009
     13          1           0        5.135636    1.946146    1.330954
 ---------------------------------------------------------------------
                    Distance matrix (angstroms):
                    1          2          3          4          5
     1  C    0.000000
     2  O    1.443015   0.000000
     3  C    1.527799   2.340510   0.000000
     4  C    2.519651   3.718964   1.525071   0.000000
     5  O    2.837560   4.154210   2.358487   1.441806   0.000000
     6  H    1.105498   2.081321   2.203756   2.776132   3.214039
     7  H    1.106855   2.094614   2.190931   2.862246   2.591346
     8  H    1.999417   0.974870   3.216171   4.481964   4.744613
     9  H    2.162325   2.611730   1.111531   2.176579   2.616274
    10  H    2.171828   2.504376   1.109124   2.176271   3.339889
    11  H    3.491146   4.522818   2.187194   1.106886   2.087119
    12  H    2.788107   4.046645   2.200678   1.106826   2.078201
    13  H    3.758115   5.109056   3.229890   2.000119   0.975531
                    6          7          8          9         10
     6  H    0.000000
     7  H    1.812151   0.000000
     8  H    2.382498   2.338492   0.000000
     9  H    3.106236   2.478379   3.483203   0.000000
    10  H    2.593195   3.097862   3.444207   1.771677   0.000000
    11  H    3.810822   3.858096   5.371020   2.521468   2.530377
    12  H    2.586505   3.245634   4.711712   3.116533   2.583141
    13  H    3.991082   3.493240   5.683320   3.491283   4.115682
                   11         12         13
    11  H    0.000000
    12  H    1.810077   0.000000
    13  H    2.322827   2.384589   0.000000
 Stoichiometry    C3H8O2
 Framework group  C1[X(C3H8O2)]
 Deg. of freedom    33
 Full point group                 C1      NOp   1
 Largest Abelian subgroup         C1      NOp   1
 Largest concise Abelian subgroup C1      NOp   1
                         Standard orientation:                         
 ---------------------------------------------------------------------
 Center     Atomic      Atomic             Coordinates (Angstroms)
 Number     Number       Type             X           Y           Z
 ---------------------------------------------------------------------
      1          6           0        0.947449   -0.409098    0.278402
      2          8           0        2.268433   -0.010340   -0.143837
      3          6           0        0.044522    0.714258   -0.228513
      4          6           0       -1.385429    0.542898    0.273203
      5          8           0       -1.822046   -0.727224   -0.251163
      6          1           0        0.937707   -0.498457    1.380240
      7          1           0        0.684641   -1.380568   -0.182363
      8          1           0        2.912063   -0.712412    0.064020
      9          1           0        0.064992    0.721493   -1.339832
     10          1           0        0.450599    1.696564    0.088238
     11          1           0       -2.047044    1.342970   -0.110657
     12          1           0       -1.445352    0.507045    1.377824
     13          1           0       -2.767954   -0.864479   -0.056021
 ---------------------------------------------------------------------
 Rotational constants (GHZ):     13.1443554      2.4905416      2.2717498
 Standard basis: VSTO-6G (5D, 7F)
 There are    28 symmetry adapted cartesian basis functions of A   symmetry.
 There are    28 symmetry adapted basis functions of A   symmetry.
    28 basis functions,   168 primitive gaussians,    28 cartesian basis functions
    16 alpha electrons       16 beta electrons
       nuclear repulsion energy       134.1069351049 Hartrees.
 Integral buffers will be    131072 words long.
 Regular integral format.
 Two-electron integral symmetry is turned off.
 Do NDO integrals.
 One-electron integrals computed using PRISM.
 NBasis=    28 RedAO= F EigKep=  0.00D+00  NBF=    28
 NBsUse=    28 1.00D-04 EigRej=  0.00D+00 NBFU=    28
 Initial guess from the checkpoint file:  "1-3-propanediol-open-opt.chk"
 B after Tr=    -0.000000    0.000000   -0.000000
         Rot=    0.999999    0.000256    0.000417   -0.001026 Ang=   0.13 deg.
 Overlap will be assumed to be unity.
 Keep J ints in memory in canonical form, NReq=891302.
 Requested convergence on RMS density matrix=1.00D-08 within 128 cycles.
 Requested convergence on MAX density matrix=1.00D-06.
 Requested convergence on             energy=1.00D-06.
 No special actions if energy rises.
 SCF Done:  E(RPM6) = -0.156441575742     A.U. after   11 cycles
            NFock= 10  Conv=0.23D-08     -V/T= 0.9912
 Calling FoFJK, ICntrl=      2127 FMM=F ISym2X=0 I1Cent= 0 IOpClX= 0 NMat=1 NMatS=1 NMatT=0.
 ***** Axes restored to original set *****
 -------------------------------------------------------------------
 Center     Atomic                   Forces (Hartrees/Bohr)
 Number     Number              X              Y              Z
 -------------------------------------------------------------------
      1        6           0.000753457    0.000910705    0.000416479
      2        8          -0.001499603    0.000993128    0.000073918
      3        6           0.000657886   -0.000601092    0.000610555
      4        6          -0.000430579   -0.001769597    0.001361258
      5        8           0.001738845    0.000856258   -0.000404449
      6        1          -0.000132427   -0.000494560   -0.000923143
      7        1          -0.000551841   -0.000385017    0.000506721
      8        1           0.000116600   -0.000476571   -0.000307389
      9        1          -0.000014079    0.000073219    0.000293665
     10        1          -0.000301275    0.000042885   -0.000454450
     11        1          -0.000193598    0.001076262    0.000017462
     12        1           0.000137434   -0.000247796   -0.000911822
     13        1          -0.000280818    0.000022176   -0.000278806
 -------------------------------------------------------------------
 Cartesian Forces:  Max     0.001769597 RMS     0.000714020

 GradGradGradGradGradGradGradGradGradGradGradGradGradGradGradGradGradGrad
 Berny optimization.
 Using GEDIIS/GDIIS optimizer.
 FormGI is forming the generalized inverse of G from B-inverse, IUseBI=4.
 GSVD:  received Info=                   1 from GESDD.
 Internal  Forces:  Max     0.001696796 RMS     0.000523922
 Search for a local minimum.
 Step number   3 out of a maximum of   66
 All quantities printed in internal units (Hartrees-Bohrs-Radians)
 Mixed Optimization -- En-DIIS/RFO-DIIS
 Update second derivatives using D2CorX and points    1    2    3
 DE= -3.35D-04 DEPred=-3.84D-04 R= 8.73D-01
 TightC=F SS=  1.41D+00  RLast= 8.29D-02 DXNew= 8.4853D-01 2.4869D-01
 Trust test= 8.73D-01 RLast= 8.29D-02 DXMaxT set to 5.05D-01
 ITU=  1  1  0
 Use linear search instead of GDIIS.
     Eigenvalues ---    0.00479   0.00502   0.01347   0.01421   0.03716
     Eigenvalues ---    0.04860   0.05319   0.05612   0.05700   0.05822
     Eigenvalues ---    0.08187   0.11033   0.11070   0.12031   0.13269
     Eigenvalues ---    0.13443   0.15993   0.18151   0.20769   0.21949
     Eigenvalues ---    0.22189   0.30294   0.31934   0.33851   0.34044
     Eigenvalues ---    0.34273   0.34283   0.34284   0.35610   0.42124
     Eigenvalues ---    0.49911   0.52796   0.54220
 RFO step:  Lambda=-4.71324046D-05 EMin= 4.78626636D-03
 Quartic linear search produced a step of -0.10597.
 Iteration  1 RMS(Cart)=  0.00632853 RMS(Int)=  0.00001999
 Iteration  2 RMS(Cart)=  0.00002004 RMS(Int)=  0.00000990
 Iteration  3 RMS(Cart)=  0.00000000 RMS(Int)=  0.00000990
 Variable       Old X    -DE/DX   Delta X   Delta X   Delta X     New X
                                 (Linear)    (Quad)   (Total)
    R1        2.72690   0.00125   0.00068   0.00142   0.00209   2.72900
    R2        2.88712   0.00108   0.00085   0.00176   0.00261   2.88973
    R3        2.08909  -0.00104   0.00013  -0.00296  -0.00283   2.08626
    R4        2.09165  -0.00081  -0.00007  -0.00209  -0.00215   2.08950
    R5        1.84224  -0.00042   0.00033  -0.00123  -0.00090   1.84133
    R6        2.88197   0.00080   0.00100   0.00070   0.00170   2.88367
    R7        2.10049  -0.00030  -0.00033  -0.00038  -0.00071   2.09978
    R8        2.09594  -0.00009  -0.00037   0.00024  -0.00013   2.09581
    R9        2.72462   0.00170   0.00044   0.00266   0.00310   2.72772
   R10        2.09171  -0.00105   0.00004  -0.00285  -0.00281   2.08890
   R11        2.09160  -0.00094   0.00001  -0.00253  -0.00252   2.08908
   R12        1.84349  -0.00035   0.00031  -0.00108  -0.00077   1.84271
    A1        1.81393   0.00111   0.00282   0.00049   0.00331   1.81725
    A2        1.89868  -0.00051   0.00057  -0.00360  -0.00304   1.89564
    A3        1.91568  -0.00044   0.00003  -0.00205  -0.00203   1.91365
    A4        1.96592  -0.00010  -0.00135   0.00222   0.00089   1.96681
    A5        1.94647  -0.00014  -0.00078   0.00131   0.00055   1.94702
    A6        1.91970   0.00009  -0.00107   0.00127   0.00021   1.91991
    A7        1.92090   0.00044   0.00177  -0.00056   0.00120   1.92210
    A8        1.94160   0.00077   0.00056   0.00305   0.00361   1.94521
    A9        1.90248  -0.00016  -0.00008  -0.00097  -0.00105   1.90143
   A10        1.91779  -0.00048   0.00000  -0.00213  -0.00214   1.91564
   A11        1.92508  -0.00033  -0.00007  -0.00161  -0.00167   1.92340
   A12        1.92714   0.00014  -0.00057   0.00395   0.00339   1.93053
   A13        1.84733   0.00001   0.00014  -0.00265  -0.00252   1.84481
   A14        1.83721   0.00094   0.00288  -0.00032   0.00256   1.83977
   A15        1.94458   0.00007  -0.00135   0.00332   0.00199   1.94657
   A16        1.96354  -0.00011  -0.00137   0.00233   0.00099   1.96453
   A17        1.90669  -0.00053   0.00043  -0.00386  -0.00343   1.90325
   A18        1.89445  -0.00038   0.00070  -0.00289  -0.00220   1.89225
   A19        1.91469   0.00000  -0.00109   0.00095  -0.00013   1.91456
   A20        1.92285   0.00031   0.00190  -0.00151   0.00039   1.92324
    D1       -3.04995   0.00018  -0.00153   0.01440   0.01286  -3.03709
    D2        1.13505  -0.00005  -0.00180   0.01330   0.01152   1.14657
    D3       -0.96617   0.00042  -0.00085   0.01521   0.01434  -0.95183
    D4       -3.02432  -0.00009  -0.00035   0.00274   0.00238  -3.02194
    D5        1.13233  -0.00007  -0.00058   0.00343   0.00285   1.13518
    D6       -0.88474   0.00027  -0.00069   0.00834   0.00764  -0.87710
    D7       -0.97220  -0.00009   0.00133  -0.00015   0.00119  -0.97101
    D8       -3.09874  -0.00006   0.00111   0.00055   0.00166  -3.09707
    D9        1.16737   0.00028   0.00099   0.00546   0.00646   1.17383
   D10        1.19620  -0.00015  -0.00164   0.00423   0.00258   1.19878
   D11       -0.93034  -0.00013  -0.00187   0.00492   0.00305  -0.92728
   D12       -2.94741   0.00021  -0.00198   0.00984   0.00784  -2.93957
   D13       -1.05500  -0.00010   0.00019  -0.00753  -0.00734  -1.06234
   D14       -3.11968  -0.00006  -0.00132  -0.00447  -0.00580  -3.12547
   D15        1.00496  -0.00004   0.00207  -0.00998  -0.00789   0.99706
   D16        1.05835  -0.00001   0.00041  -0.00781  -0.00740   1.05095
   D17       -1.00633   0.00003  -0.00110  -0.00475  -0.00586  -1.01219
   D18        3.11830   0.00005   0.00229  -0.01026  -0.00795   3.11035
   D19        3.09401  -0.00011   0.00020  -0.00966  -0.00946   3.08454
   D20        1.02933  -0.00008  -0.00131  -0.00659  -0.00792   1.02141
   D21       -1.12922  -0.00005   0.00208  -0.01210  -0.01002  -1.13924
   D22       -3.03070   0.00001  -0.00050   0.00414   0.00363  -3.02707
   D23       -0.94072   0.00034  -0.00023   0.00589   0.00564  -0.93508
   D24        1.14651  -0.00019  -0.00089   0.00307   0.00220   1.14871
         Item               Value     Threshold  Converged?
 Maximum Force            0.001697     0.000450     NO 
 RMS     Force            0.000524     0.000300     NO 
 Maximum Displacement     0.018221     0.001800     NO 
 RMS     Displacement     0.006329     0.001200     NO 
 Predicted change in Energy=-2.807316D-05
 GradGradGradGradGradGradGradGradGradGradGradGradGradGradGradGradGradGrad

                          Input orientation:                          
 ---------------------------------------------------------------------
 Center     Atomic      Atomic             Coordinates (Angstroms)
 Number     Number       Type             X           Y           Z
 ---------------------------------------------------------------------
      1          6           0        1.391443    2.306183    1.252648
      2          8           0        0.048307    2.016333    0.808279
      3          6           0        2.069460    0.936688    1.308973
      4          6           0        3.462514    1.028539    1.925047
      5          8           0        4.208078    1.909380    1.057989
      6          1           0        1.337751    2.795760    2.240700
      7          1           0        1.887304    2.975382    0.525393
      8          1           0       -0.438820    2.845292    0.650247
      9          1           0        2.131569    0.522325    0.279839
     10          1           0        1.435929    0.227892    1.880156
     11          1           0        3.960305    0.041921    1.951375
     12          1           0        3.449349    1.466431    2.940033
     13          1           0        5.144090    1.936504    1.330032
 ---------------------------------------------------------------------
                    Distance matrix (angstroms):
                    1          2          3          4          5
     1  C    0.000000
     2  O    1.444123   0.000000
     3  C    1.529181   2.345503   0.000000
     4  C    2.524645   3.725549   1.525970   0.000000
     5  O    2.851101   4.168631   2.362797   1.443446   0.000000
     6  H    1.104000   2.078943   2.204463   2.781604   3.228506
     7  H    1.105715   2.093253   2.191678   2.868888   2.608833
     8  H    2.000847   0.974392   3.219962   4.488443   4.757714
     9  H    2.162474   2.617496   1.111158   2.175862   2.615593
    10  H    2.171414   2.504583   1.109055   2.179472   3.344871
    11  H    3.494876   4.528653   2.188284   1.105398   2.084929
    12  H    2.790597   4.051401   2.201154   1.105495   2.077009
    13  H    3.771606   5.123046   3.233176   2.001534   0.975122
                    6          7          8          9         10
     6  H    0.000000
     7  H    1.810125   0.000000
     8  H    2.384995   2.333102   0.000000
     9  H    3.105419   2.477388   3.484290   0.000000
    10  H    2.594914   3.096421   3.446468   1.769638   0.000000
    11  H    3.813807   3.864706   5.376256   2.523707   2.532219
    12  H    2.591337   3.247677   4.718288   3.115207   2.590594
    13  H    4.006975   3.511889   5.697095   3.489712   4.119763
                   11         12         13
    11  H    0.000000
    12  H    1.807692   0.000000
    13  H    2.318805   2.384370   0.000000
 Stoichiometry    C3H8O2
 Framework group  C1[X(C3H8O2)]
 Deg. of freedom    33
 Full point group                 C1      NOp   1
 Largest Abelian subgroup         C1      NOp   1
 Largest concise Abelian subgroup C1      NOp   1
                         Standard orientation:                         
 ---------------------------------------------------------------------
 Center     Atomic      Atomic             Coordinates (Angstroms)
 Number     Number       Type             X           Y           Z
 ---------------------------------------------------------------------
      1          6           0        0.952103   -0.408438    0.279400
      2          8           0        2.274100   -0.009714   -0.143487
      3          6           0        0.043953    0.711698   -0.229475
      4          6           0       -1.386453    0.542858    0.274525
      5          8           0       -1.831161   -0.725760   -0.251192
      6          1           0        0.945429   -0.495246    1.379961
      7          1           0        0.692981   -1.381050   -0.178298
      8          1           0        2.916649   -0.714693    0.055448
      9          1           0        0.061615    0.713739   -1.340490
     10          1           0        0.453028    1.695320    0.078986
     11          1           0       -2.047705    1.342799   -0.105927
     12          1           0       -1.445576    0.503811    1.377748
     13          1           0       -2.777549   -0.857600   -0.056696
 ---------------------------------------------------------------------
 Rotational constants (GHZ):     13.1786189      2.4757536      2.2607584
 Standard basis: VSTO-6G (5D, 7F)
 There are    28 symmetry adapted cartesian basis functions of A   symmetry.
 There are    28 symmetry adapted basis functions of A   symmetry.
    28 basis functions,   168 primitive gaussians,    28 cartesian basis functions
    16 alpha electrons       16 beta electrons
       nuclear repulsion energy       134.0161161962 Hartrees.
 Integral buffers will be    131072 words long.
 Regular integral format.
 Two-electron integral symmetry is turned off.
 Do NDO integrals.
 One-electron integrals computed using PRISM.
 NBasis=    28 RedAO= F EigKep=  0.00D+00  NBF=    28
 NBsUse=    28 1.00D-04 EigRej=  0.00D+00 NBFU=    28
 Initial guess from the checkpoint file:  "1-3-propanediol-open-opt.chk"
 B after Tr=     0.000000    0.000000    0.000000
         Rot=    1.000000    0.000406   -0.000285    0.000201 Ang=   0.06 deg.
 Overlap will be assumed to be unity.
 Keep J ints in memory in canonical form, NReq=891302.
 Requested convergence on RMS density matrix=1.00D-08 within 128 cycles.
 Requested convergence on MAX density matrix=1.00D-06.
 Requested convergence on             energy=1.00D-06.
 No special actions if energy rises.
 SCF Done:  E(RPM6) = -0.156479056679     A.U. after   10 cycles
            NFock=  9  Conv=0.56D-08     -V/T= 0.9912
 Calling FoFJK, ICntrl=      2127 FMM=F ISym2X=0 I1Cent= 0 IOpClX= 0 NMat=1 NMatS=1 NMatT=0.
 ***** Axes restored to original set *****
 -------------------------------------------------------------------
 Center     Atomic                   Forces (Hartrees/Bohr)
 Number     Number              X              Y              Z
 -------------------------------------------------------------------
      1        6           0.000547045    0.000185239    0.000083359
      2        8          -0.000754391    0.000281003    0.000252234
      3        6           0.000514390    0.000218540    0.000346111
      4        6          -0.000637367   -0.000738085    0.000434708
      5        8           0.000674466    0.000501851   -0.000272162
      6        1           0.000022871   -0.000303808   -0.000214043
      7        1          -0.000144783   -0.000177509    0.000210286
      8        1           0.000253742   -0.000294718   -0.000253256
      9        1           0.000047395    0.000044168    0.000045317
     10        1           0.000001498    0.000064543   -0.000168565
     11        1          -0.000210524    0.000309562    0.000018096
     12        1          -0.000063159   -0.000019752   -0.000347410
     13        1          -0.000251182   -0.000071035   -0.000134675
 -------------------------------------------------------------------
 Cartesian Forces:  Max     0.000754391 RMS     0.000329978

 GradGradGradGradGradGradGradGradGradGradGradGradGradGradGradGradGradGrad
 Berny optimization.
 Using GEDIIS/GDIIS optimizer.
 FormGI is forming the generalized inverse of G from B-inverse, IUseBI=4.
 GSVD:  received Info=                   1 from GESDD.
 Internal  Forces:  Max     0.000725913 RMS     0.000191371
 Search for a local minimum.
 Step number   4 out of a maximum of   66
 All quantities printed in internal units (Hartrees-Bohrs-Radians)
 Mixed Optimization -- En-DIIS/RFO-DIIS
 Swapping is turned off.
 Update second derivatives using D2CorX and points    1    2    3    4
 DE= -3.75D-05 DEPred=-2.81D-05 R= 1.34D+00
 TightC=F SS=  1.41D+00  RLast= 3.81D-02 DXNew= 8.4853D-01 1.1428D-01
 Trust test= 1.34D+00 RLast= 3.81D-02 DXMaxT set to 5.05D-01
 ITU=  1  1  1  0
     Eigenvalues ---    0.00390   0.00486   0.00998   0.01420   0.03723
     Eigenvalues ---    0.04896   0.05336   0.05597   0.05690   0.05800
     Eigenvalues ---    0.08229   0.11076   0.11743   0.11943   0.13287
     Eigenvalues ---    0.13480   0.15993   0.18150   0.20719   0.21930
     Eigenvalues ---    0.22036   0.29607   0.31048   0.33839   0.34011
     Eigenvalues ---    0.34273   0.34281   0.34284   0.38864   0.41992
     Eigenvalues ---    0.47737   0.52793   0.54928
 En-DIIS/RFO-DIIS IScMMF=        0 using points:     4    3
 RFO step:  Lambda=-5.65043147D-06.
 DidBck=F Rises=F RFO-DIIS coefs:    1.49472   -0.49472
 Iteration  1 RMS(Cart)=  0.00916221 RMS(Int)=  0.00006565
 Iteration  2 RMS(Cart)=  0.00008572 RMS(Int)=  0.00000253
 Iteration  3 RMS(Cart)=  0.00000001 RMS(Int)=  0.00000253
 Variable       Old X    -DE/DX   Delta X   Delta X   Delta X     New X
                                 (Linear)    (Quad)   (Total)
    R1        2.72900   0.00047   0.00104   0.00160   0.00264   2.73163
    R2        2.88973  -0.00025   0.00129  -0.00168  -0.00038   2.88935
    R3        2.08626  -0.00033  -0.00140  -0.00139  -0.00279   2.08347
    R4        2.08950  -0.00031  -0.00107  -0.00121  -0.00227   2.08722
    R5        1.84133  -0.00034  -0.00045  -0.00112  -0.00157   1.83977
    R6        2.88367  -0.00057   0.00084  -0.00339  -0.00255   2.88112
    R7        2.09978  -0.00006  -0.00035   0.00008  -0.00026   2.09952
    R8        2.09581  -0.00013  -0.00006  -0.00026  -0.00032   2.09549
    R9        2.72772   0.00073   0.00153   0.00266   0.00419   2.73191
   R10        2.08890  -0.00037  -0.00139  -0.00153  -0.00292   2.08598
   R11        2.08908  -0.00033  -0.00124  -0.00132  -0.00256   2.08652
   R12        1.84271  -0.00028  -0.00038  -0.00095  -0.00133   1.84138
    A1        1.81725   0.00019   0.00164  -0.00070   0.00093   1.81818
    A2        1.89564  -0.00007  -0.00150  -0.00092  -0.00242   1.89322
    A3        1.91365  -0.00001  -0.00100   0.00074  -0.00027   1.91339
    A4        1.96681  -0.00010   0.00044  -0.00046  -0.00002   1.96680
    A5        1.94702  -0.00009   0.00027  -0.00028  -0.00001   1.94700
    A6        1.91991   0.00009   0.00011   0.00151   0.00161   1.92152
    A7        1.92210   0.00003   0.00060  -0.00023   0.00037   1.92247
    A8        1.94521   0.00009   0.00179   0.00032   0.00210   1.94731
    A9        1.90143   0.00002  -0.00052   0.00056   0.00004   1.90146
   A10        1.91564  -0.00010  -0.00106  -0.00112  -0.00219   1.91345
   A11        1.92340  -0.00006  -0.00083  -0.00042  -0.00125   1.92215
   A12        1.93053   0.00005   0.00167   0.00122   0.00290   1.93342
   A13        1.84481  -0.00000  -0.00125  -0.00061  -0.00186   1.84295
   A14        1.83977   0.00013   0.00127  -0.00118   0.00008   1.83986
   A15        1.94657  -0.00006   0.00099   0.00020   0.00118   1.94776
   A16        1.96453  -0.00007   0.00049   0.00002   0.00051   1.96505
   A17        1.90325  -0.00002  -0.00170   0.00001  -0.00169   1.90157
   A18        1.89225  -0.00004  -0.00109  -0.00063  -0.00172   1.89053
   A19        1.91456   0.00007  -0.00006   0.00144   0.00137   1.91593
   A20        1.92324   0.00001   0.00019  -0.00054  -0.00034   1.92290
    D1       -3.03709   0.00017   0.00636   0.02130   0.02766  -3.00942
    D2        1.14657   0.00022   0.00570   0.02266   0.02836   1.17493
    D3       -0.95183   0.00016   0.00710   0.02094   0.02803  -0.92380
    D4       -3.02194   0.00002   0.00118   0.00706   0.00824  -3.01371
    D5        1.13518   0.00003   0.00141   0.00700   0.00841   1.14359
    D6       -0.87710   0.00007   0.00378   0.00804   0.01182  -0.86528
    D7       -0.97101   0.00000   0.00059   0.00531   0.00590  -0.96511
    D8       -3.09707   0.00001   0.00082   0.00525   0.00608  -3.09100
    D9        1.17383   0.00005   0.00319   0.00629   0.00948   1.18331
   D10        1.19878  -0.00003   0.00128   0.00673   0.00801   1.20679
   D11       -0.92728  -0.00002   0.00151   0.00668   0.00819  -0.91910
   D12       -2.93957   0.00003   0.00388   0.00772   0.01159  -2.92797
   D13       -1.06234  -0.00005  -0.00363  -0.01173  -0.01536  -1.07770
   D14       -3.12547  -0.00007  -0.00287  -0.01115  -0.01401  -3.13948
   D15        0.99706  -0.00006  -0.00390  -0.01321  -0.01711   0.97996
   D16        1.05095  -0.00001  -0.00366  -0.01110  -0.01476   1.03619
   D17       -1.01219  -0.00003  -0.00290  -0.01051  -0.01341  -1.02560
   D18        3.11035  -0.00002  -0.00393  -0.01257  -0.01651   3.09384
   D19        3.08454  -0.00002  -0.00468  -0.01137  -0.01606   3.06848
   D20        1.02141  -0.00004  -0.00392  -0.01079  -0.01471   1.00670
   D21       -1.13924  -0.00003  -0.00496  -0.01285  -0.01781  -1.15705
   D22       -3.02707   0.00004   0.00180   0.00561   0.00741  -3.01966
   D23       -0.93508   0.00003   0.00279   0.00519   0.00798  -0.92710
   D24        1.14871   0.00008   0.00109   0.00656   0.00765   1.15636
         Item               Value     Threshold  Converged?
 Maximum Force            0.000726     0.000450     NO 
 RMS     Force            0.000191     0.000300     YES
 Maximum Displacement     0.026196     0.001800     NO 
 RMS     Displacement     0.009179     0.001200     NO 
 Predicted change in Energy=-1.757201D-05
 GradGradGradGradGradGradGradGradGradGradGradGradGradGradGradGradGradGrad

                          Input orientation:                          
 ---------------------------------------------------------------------
 Center     Atomic      Atomic             Coordinates (Angstroms)
 Number     Number       Type             X           Y           Z
 ---------------------------------------------------------------------
      1          6           0        1.388765    2.306925    1.257367
      2          8           0        0.042971    2.014198    0.818423
      3          6           0        2.071876    0.939950    1.307541
      4          6           0        3.462119    1.030405    1.926822
      5          8           0        4.215407    1.902965    1.054391
      6          1           0        1.336004    2.792517    2.245788
      7          1           0        1.878354    2.978775    0.530137
      8          1           0       -0.439160    2.841126    0.640762
      9          1           0        2.138440    0.531894    0.276318
     10          1           0        1.436359    0.226288    1.870061
     11          1           0        3.956536    0.044070    1.961292
     12          1           0        3.448388    1.476877    2.936574
     13          1           0        5.151220    1.922641    1.325235
 ---------------------------------------------------------------------
                    Distance matrix (angstroms):
                    1          2          3          4          5
     1  C    0.000000
     2  O    1.445518   0.000000
     3  C    1.528979   2.347275   0.000000
     4  C    2.525167   3.726523   1.524620   0.000000
     5  O    2.862567   4.180583   2.363516   1.445662   0.000000
     6  H    1.102524   2.077279   2.203138   2.779774   3.240631
     7  H    1.104511   2.093359   2.190574   2.873185   2.625648
     8  H    2.001720   0.973562   3.219373   4.489170   4.766155
     9  H    2.162222   2.623374   1.111018   2.173661   2.607494
    10  H    2.169495   2.498819   1.108885   2.180259   3.346591
    11  H    3.494205   4.528084   2.186764   1.103853   2.084460
    12  H    2.784019   4.046251   2.199279   1.104141   2.076652
    13  H    3.782638   5.134146   3.232392   2.002762   0.974418
                    6          7          8          9         10
     6  H    0.000000
     7  H    1.808949   0.000000
     8  H    2.393675   2.324233   0.000000
     9  H    3.103729   2.473721   3.479856   0.000000
    10  H    2.595529   3.093048   3.444725   1.768143   0.000000
    11  H    3.808161   3.870341   5.374893   2.526378   2.528402
    12  H    2.582685   3.242167   4.716457   3.112222   2.598016
    13  H    4.019947   3.529767   5.706529   3.480122   4.120030
                   11         12         13
    11  H    0.000000
    12  H    1.806191   0.000000
    13  H    2.315355   2.386369   0.000000
 Stoichiometry    C3H8O2
 Framework group  C1[X(C3H8O2)]
 Deg. of freedom    33
 Full point group                 C1      NOp   1
 Largest Abelian subgroup         C1      NOp   1
 Largest concise Abelian subgroup C1      NOp   1
                         Standard orientation:                         
 ---------------------------------------------------------------------
 Center     Atomic      Atomic             Coordinates (Angstroms)
 Number     Number       Type             X           Y           Z
 ---------------------------------------------------------------------
      1          6           0        0.955000   -0.408462    0.281625
      2          8           0        2.277683   -0.007554   -0.141816
      3          6           0        0.043287    0.705762   -0.233214
      4          6           0       -1.383957    0.543240    0.277694
      5          8           0       -1.839867   -0.722381   -0.251728
      6          1           0        0.949477   -0.488479    1.381228
      7          1           0        0.700002   -1.383132   -0.171078
      8          1           0        2.917458   -0.718954    0.038243
      9          1           0        0.055071    0.697083   -1.344136
     10          1           0        0.456753    1.691546    0.061575
     11          1           0       -2.043032    1.346262   -0.095491
     12          1           0       -1.437402    0.497963    1.379611
     13          1           0       -2.786840   -0.846049   -0.058237
 ---------------------------------------------------------------------
 Rotational constants (GHZ):     13.2335493      2.4654336      2.2550381
 Standard basis: VSTO-6G (5D, 7F)
 There are    28 symmetry adapted cartesian basis functions of A   symmetry.
 There are    28 symmetry adapted basis functions of A   symmetry.
    28 basis functions,   168 primitive gaussians,    28 cartesian basis functions
    16 alpha electrons       16 beta electrons
       nuclear repulsion energy       133.9818751852 Hartrees.
 Integral buffers will be    131072 words long.
 Regular integral format.
 Two-electron integral symmetry is turned off.
 Do NDO integrals.
 One-electron integrals computed using PRISM.
 NBasis=    28 RedAO= F EigKep=  0.00D+00  NBF=    28
 NBsUse=    28 1.00D-04 EigRej=  0.00D+00 NBFU=    28
 Initial guess from the checkpoint file:  "1-3-propanediol-open-opt.chk"
 B after Tr=    -0.000000   -0.000000    0.000000
         Rot=    0.999999    0.000838   -0.000411    0.000437 Ang=   0.12 deg.
 Overlap will be assumed to be unity.
 Keep J ints in memory in canonical form, NReq=891302.
 Requested convergence on RMS density matrix=1.00D-08 within 128 cycles.
 Requested convergence on MAX density matrix=1.00D-06.
 Requested convergence on             energy=1.00D-06.
 No special actions if energy rises.
 SCF Done:  E(RPM6) = -0.156503053489     A.U. after   11 cycles
            NFock= 10  Conv=0.19D-08     -V/T= 0.9912
 Calling FoFJK, ICntrl=      2127 FMM=F ISym2X=0 I1Cent= 0 IOpClX= 0 NMat=1 NMatS=1 NMatT=0.
 ***** Axes restored to original set *****
 -------------------------------------------------------------------
 Center     Atomic                   Forces (Hartrees/Bohr)
 Number     Number              X              Y              Z
 -------------------------------------------------------------------
      1        6          -0.000267616   -0.000207157   -0.000487706
      2        8           0.000099227   -0.000044662    0.000515891
      3        6          -0.000189030    0.000088107   -0.000190892
      4        6           0.000221884    0.000387923   -0.000396639
      5        8          -0.000268072   -0.000105201    0.000213494
      6        1           0.000002348    0.000074058    0.000420853
      7        1           0.000103749    0.000194420   -0.000070922
      8        1           0.000168734   -0.000008738   -0.000265623
      9        1           0.000040144   -0.000017121   -0.000176781
     10        1           0.000079003   -0.000112071    0.000085253
     11        1           0.000060718   -0.000358172    0.000081391
     12        1          -0.000011638    0.000198544    0.000285087
     13        1          -0.000039452   -0.000089929   -0.000013405
 -------------------------------------------------------------------
 Cartesian Forces:  Max     0.000515891 RMS     0.000218364

 GradGradGradGradGradGradGradGradGradGradGradGradGradGradGradGradGradGrad
 Berny optimization.
 Using GEDIIS/GDIIS optimizer.
 FormGI is forming the generalized inverse of G from B-inverse, IUseBI=4.
 GSVD:  received Info=                   1 from GESDD.
 Internal  Forces:  Max     0.000409803 RMS     0.000134601
 Search for a local minimum.
 Step number   5 out of a maximum of   66
 All quantities printed in internal units (Hartrees-Bohrs-Radians)
 Mixed Optimization -- En-DIIS/RFO-DIIS
 Swapping is turned off.
 Update second derivatives using D2CorX and points    1    2    3    4    5
 DE= -2.40D-05 DEPred=-1.76D-05 R= 1.37D+00
 TightC=F SS=  1.41D+00  RLast= 7.44D-02 DXNew= 8.4853D-01 2.2308D-01
 Trust test= 1.37D+00 RLast= 7.44D-02 DXMaxT set to 5.05D-01
 ITU=  1  1  1  1  0
     Eigenvalues ---    0.00201   0.00485   0.00796   0.01421   0.03741
     Eigenvalues ---    0.05002   0.05521   0.05592   0.05710   0.05826
     Eigenvalues ---    0.08388   0.11092   0.11898   0.12480   0.13299
     Eigenvalues ---    0.13585   0.16002   0.18195   0.20654   0.21953
     Eigenvalues ---    0.22291   0.30298   0.33568   0.33997   0.34252
     Eigenvalues ---    0.34273   0.34284   0.37275   0.40608   0.42430
     Eigenvalues ---    0.52066   0.52796   0.56721
 En-DIIS/RFO-DIIS IScMMF=        0 using points:     5    4    3
 RFO step:  Lambda=-2.66390795D-06.
 DidBck=F Rises=F RFO-DIIS coefs:    1.51420   -0.43612   -0.07808
 Iteration  1 RMS(Cart)=  0.01203067 RMS(Int)=  0.00013464
 Iteration  2 RMS(Cart)=  0.00017301 RMS(Int)=  0.00000205
 Iteration  3 RMS(Cart)=  0.00000005 RMS(Int)=  0.00000205
 Variable       Old X    -DE/DX   Delta X   Delta X   Delta X     New X
                                 (Linear)    (Quad)   (Total)
    R1        2.73163  -0.00031   0.00152  -0.00004   0.00148   2.73311
    R2        2.88935  -0.00004   0.00001   0.00069   0.00069   2.89004
    R3        2.08347   0.00041  -0.00165   0.00053  -0.00112   2.08235
    R4        2.08722   0.00021  -0.00134   0.00010  -0.00124   2.08599
    R5        1.83977  -0.00004  -0.00088  -0.00064  -0.00151   1.83825
    R6        2.88112   0.00004  -0.00118   0.00055  -0.00063   2.88048
    R7        2.09952   0.00017  -0.00019   0.00076   0.00057   2.10009
    R8        2.09549   0.00007  -0.00018   0.00056   0.00039   2.09588
    R9        2.73191  -0.00040   0.00240   0.00029   0.00268   2.73459
   R10        2.08598   0.00035  -0.00172   0.00034  -0.00138   2.08460
   R11        2.08652   0.00034  -0.00151   0.00045  -0.00106   2.08546
   R12        1.84138  -0.00004  -0.00074  -0.00056  -0.00131   1.84007
    A1        1.81818  -0.00011   0.00074  -0.00100  -0.00026   1.81792
    A2        1.89322   0.00002  -0.00148  -0.00182  -0.00330   1.88992
    A3        1.91339   0.00010  -0.00029   0.00072   0.00042   1.91381
    A4        1.96680  -0.00002   0.00006   0.00042   0.00048   1.96727
    A5        1.94700   0.00001   0.00004   0.00075   0.00079   1.94779
    A6        1.92152   0.00000   0.00084   0.00077   0.00162   1.92314
    A7        1.92247  -0.00012   0.00028  -0.00070  -0.00042   1.92204
    A8        1.94731  -0.00012   0.00136   0.00026   0.00162   1.94894
    A9        1.90146   0.00003  -0.00006   0.00044   0.00037   1.90184
   A10        1.91345   0.00012  -0.00130  -0.00009  -0.00139   1.91206
   A11        1.92215   0.00006  -0.00077   0.00004  -0.00073   1.92143
   A12        1.93342  -0.00009   0.00175  -0.00012   0.00163   1.93506
   A13        1.84295   0.00000  -0.00115  -0.00057  -0.00172   1.84123
   A14        1.83986  -0.00011   0.00024  -0.00137  -0.00113   1.83872
   A15        1.94776  -0.00007   0.00076   0.00072   0.00148   1.94924
   A16        1.96505   0.00004   0.00034   0.00128   0.00162   1.96666
   A17        1.90157   0.00012  -0.00114  -0.00020  -0.00134   1.90023
   A18        1.89053   0.00001  -0.00106  -0.00132  -0.00238   1.88815
   A19        1.91593   0.00001   0.00069   0.00070   0.00138   1.91731
   A20        1.92290  -0.00010  -0.00015  -0.00100  -0.00115   1.92175
    D1       -3.00942   0.00015   0.01523   0.02476   0.03999  -2.96944
    D2        1.17493   0.00022   0.01548   0.02570   0.04118   1.21611
    D3       -0.92380   0.00015   0.01553   0.02543   0.04097  -0.88283
    D4       -3.01371   0.00010   0.00442   0.00843   0.01286  -3.00085
    D5        1.14359   0.00007   0.00455   0.00791   0.01246   1.15606
    D6       -0.86528  -0.00001   0.00667   0.00840   0.01507  -0.85021
    D7       -0.96511   0.00005   0.00313   0.00587   0.00899  -0.95612
    D8       -3.09100   0.00002   0.00325   0.00534   0.00860  -3.08240
    D9        1.18331  -0.00006   0.00538   0.00583   0.01121   1.19452
   D10        1.20679   0.00004   0.00432   0.00780   0.01212   1.21891
   D11       -0.91910   0.00002   0.00445   0.00727   0.01172  -0.90737
   D12       -2.92797  -0.00007   0.00657   0.00776   0.01433  -2.91364
   D13       -1.07770  -0.00000  -0.00847  -0.01158  -0.02004  -1.09774
   D14       -3.13948  -0.00004  -0.00766  -0.01089  -0.01854   3.12516
[...]
     Eigenvalues ---    0.34197   0.34309   0.34745   0.35862   0.38875
     Eigenvalues ---    0.45624   0.50281   0.53807
 En-DIIS/RFO-DIIS IScMMF=        0 using points:    26   25   24   23   22
 RFO step:  Lambda=-5.84893666D-09.
 DidBck=F Rises=F RFO-DIIS coefs:    1.07490    0.04518   -0.27886    0.29509   -0.13630
 Iteration  1 RMS(Cart)=  0.00022960 RMS(Int)=  0.00000007
 Iteration  2 RMS(Cart)=  0.00000003 RMS(Int)=  0.00000006
 Variable       Old X    -DE/DX   Delta X   Delta X   Delta X     New X
                                 (Linear)    (Quad)   (Total)
    R1        2.71018  -0.00001   0.00001  -0.00001  -0.00000   2.71018
    R2        2.89549  -0.00001   0.00002  -0.00008  -0.00006   2.89543
    R3        2.08924  -0.00001  -0.00003   0.00000  -0.00003   2.08921
    R4        2.08919   0.00001   0.00004   0.00000   0.00004   2.08923
    R5        1.84547  -0.00003  -0.00010  -0.00002  -0.00012   1.84535
    R6        2.88226   0.00003   0.00003   0.00009   0.00012   2.88238
    R7        2.09826  -0.00000  -0.00000  -0.00000  -0.00001   2.09826
    R8        2.09305  -0.00001  -0.00002  -0.00003  -0.00006   2.09300
    R9        2.73057  -0.00001  -0.00001  -0.00003  -0.00004   2.73053
   R10        2.08800  -0.00000   0.00000  -0.00001  -0.00001   2.08798
   R11        2.08688  -0.00000  -0.00000  -0.00001  -0.00001   2.08687
   R12        1.84186  -0.00000  -0.00002  -0.00001  -0.00003   1.84183
    A1        1.92377   0.00000   0.00003  -0.00000   0.00003   1.92379
    A2        1.79224  -0.00001   0.00000  -0.00001  -0.00001   1.79222
    A3        1.91524  -0.00000  -0.00009   0.00004  -0.00005   1.91519
    A4        1.96340   0.00001   0.00006   0.00002   0.00008   1.96348
    A5        1.94542  -0.00000  -0.00000  -0.00004  -0.00004   1.94538
    A6        1.91784  -0.00000  -0.00001   0.00000  -0.00001   1.91783
    A7        1.92991  -0.00001   0.00001   0.00000   0.00001   1.92992
    A8        1.94602  -0.00001  -0.00005  -0.00003  -0.00007   1.94595
    A9        1.91377   0.00000   0.00003  -0.00001   0.00002   1.91379
   A10        1.91926   0.00001   0.00008   0.00002   0.00010   1.91935
   A11        1.90404   0.00000  -0.00003  -0.00000  -0.00003   1.90401
   A12        1.92875   0.00000  -0.00005   0.00002  -0.00003   1.92872
   A13        1.84945  -0.00000   0.00001   0.00001   0.00002   1.84947
   A14        1.83239  -0.00000   0.00000  -0.00002  -0.00002   1.83237
   A15        1.94993  -0.00000  -0.00003  -0.00001  -0.00004   1.94988
   A16        1.96725  -0.00000  -0.00003  -0.00001  -0.00004   1.96722
   A17        1.89645   0.00000   0.00004   0.00003   0.00007   1.89652
   A18        1.89892   0.00000   0.00001   0.00001   0.00001   1.89893
   A19        1.91546   0.00000   0.00001   0.00001   0.00002   1.91548
   A20        1.92394   0.00002   0.00005   0.00004   0.00009   1.92403
    D1       -1.14943   0.00000   0.00004   0.00021   0.00025  -1.14917
    D2        3.03836  -0.00000  -0.00005   0.00020   0.00015   3.03851
    D3        0.99950   0.00000   0.00000   0.00019   0.00019   0.99969
    D4       -3.12982  -0.00000   0.00016   0.00005   0.00021  -3.12961
    D5        1.04277   0.00000   0.00021   0.00008   0.00029   1.04306
    D6       -0.98415  -0.00000   0.00013   0.00006   0.00019  -0.98395
    D7       -1.14107  -0.00000   0.00022   0.00004   0.00026  -1.14081
    D8        3.03152   0.00000   0.00027   0.00007   0.00033   3.03186
    D9        1.00460  -0.00000   0.00019   0.00005   0.00024   1.00485
   D10        1.02217   0.00000   0.00025   0.00003   0.00028   1.02245
   D11       -1.08843   0.00000   0.00030   0.00006   0.00035  -1.08808
   D12       -3.11535  -0.00000   0.00022   0.00004   0.00026  -3.11509
   D13       -1.24035   0.00000  -0.00002  -0.00024  -0.00025  -1.24060
   D14        2.99047  -0.00000  -0.00005  -0.00025  -0.00031   2.99016
   D15        0.82399   0.00000  -0.00002  -0.00024  -0.00027   0.82372
   D16        0.87592  -0.00000  -0.00003  -0.00027  -0.00030   0.87562
   D17       -1.17645  -0.00000  -0.00007  -0.00029  -0.00035  -1.17680
   D18        2.94026   0.00000  -0.00004  -0.00028  -0.00031   2.93995
   D19        2.90260  -0.00000  -0.00006  -0.00025  -0.00031   2.90229
   D20        0.85023  -0.00000  -0.00010  -0.00027  -0.00036   0.84987
   D21       -1.31624  -0.00000  -0.00007  -0.00026  -0.00032  -1.31657
   D22       -3.14069   0.00000   0.00036   0.00025   0.00062  -3.14007
   D23       -1.05228  -0.00000   0.00035   0.00024   0.00060  -1.05168
   D24        1.03253   0.00000   0.00039   0.00027   0.00066   1.03320
         Item               Value     Threshold  Converged?
 Maximum Force            0.000029     0.000450     YES
 RMS     Force            0.000007     0.000300     YES
 Maximum Displacement     0.000773     0.001800     YES
 RMS     Displacement     0.000230     0.001200     YES
 Predicted change in Energy=-8.054551D-09
 Optimization completed.
    -- Stationary point found.
                           ----------------------------
                           !   Optimized Parameters   !
                           ! (Angstroms and Degrees)  !
 --------------------------                            --------------------------
 ! Name  Definition              Value          Derivative Info.                !
 --------------------------------------------------------------------------------
 ! R1    R(1,2)                  1.4342         -DE/DX =    0.0                 !
 ! R2    R(1,3)                  1.5322         -DE/DX =    0.0                 !
 ! R3    R(1,6)                  1.1056         -DE/DX =    0.0                 !
 ! R4    R(1,7)                  1.1056         -DE/DX =    0.0                 !
 ! R5    R(2,8)                  0.9766         -DE/DX =    0.0                 !
 ! R6    R(3,4)                  1.5252         -DE/DX =    0.0                 !
 ! R7    R(3,9)                  1.1104         -DE/DX =    0.0                 !
 ! R8    R(3,10)                 1.1076         -DE/DX =    0.0                 !
 ! R9    R(4,5)                  1.445          -DE/DX =    0.0                 !
 ! R10   R(4,11)                 1.1049         -DE/DX =    0.0                 !
 ! R11   R(4,12)                 1.1043         -DE/DX =    0.0                 !
 ! R12   R(5,13)                 0.9747         -DE/DX =    0.0                 !
 ! A1    A(2,1,3)              110.2236         -DE/DX =    0.0                 !
 ! A2    A(2,1,6)              102.6875         -DE/DX =    0.0                 !
 ! A3    A(2,1,7)              109.7353         -DE/DX =    0.0                 !
 ! A4    A(3,1,6)              112.4944         -DE/DX =    0.0                 !
 ! A5    A(3,1,7)              111.4644         -DE/DX =    0.0                 !
 ! A6    A(6,1,7)              109.8843         -DE/DX =    0.0                 !
 ! A7    A(1,2,8)              110.5755         -DE/DX =    0.0                 !
 ! A8    A(1,3,4)              111.499          -DE/DX =    0.0                 !
 ! A9    A(1,3,9)              109.6509         -DE/DX =    0.0                 !
 ! A10   A(1,3,10)             109.9653         -DE/DX =    0.0                 !
 ! A11   A(4,3,9)              109.0935         -DE/DX =    0.0                 !
 ! A12   A(4,3,10)             110.5092         -DE/DX =    0.0                 !
 ! A13   A(9,3,10)             105.9656         -DE/DX =    0.0                 !
 ! A14   A(3,4,5)              104.9881         -DE/DX =    0.0                 !
 ! A15   A(3,4,11)             111.7226         -DE/DX =    0.0                 !
 ! A16   A(3,4,12)             112.7154         -DE/DX =    0.0                 !
 ! A17   A(5,4,11)             108.6585         -DE/DX =    0.0                 !
 ! A18   A(5,4,12)             108.8001         -DE/DX =    0.0                 !
 ! A19   A(11,4,12)            109.7478         -DE/DX =    0.0                 !
 ! A20   A(4,5,13)             110.2334         -DE/DX =    0.0                 !
 ! D1    D(3,1,2,8)            -65.8573         -DE/DX =    0.0                 !
 ! D2    D(6,1,2,8)            174.0851         -DE/DX =    0.0                 !
 ! D3    D(7,1,2,8)             57.2672         -DE/DX =    0.0                 !
 ! D4    D(2,1,3,4)           -179.3253         -DE/DX =    0.0                 !
 ! D5    D(2,1,3,9)             59.7464         -DE/DX =    0.0                 !
 ! D6    D(2,1,3,10)           -56.3874         -DE/DX =    0.0                 !
 ! D7    D(6,1,3,4)            -65.3783         -DE/DX =    0.0                 !
 ! D8    D(6,1,3,9)            173.6934         -DE/DX =    0.0                 !
 ! D9    D(6,1,3,10)            57.5595         -DE/DX =    0.0                 !
 ! D10   D(7,1,3,4)             58.5659         -DE/DX =    0.0                 !
 ! D11   D(7,1,3,9)            -62.3624         -DE/DX =    0.0                 !
 ! D12   D(7,1,3,10)          -178.4963         -DE/DX =    0.0                 !
 ! D13   D(1,3,4,5)            -71.0666         -DE/DX =    0.0                 !
 ! D14   D(1,3,4,11)           171.3412         -DE/DX =    0.0                 !
 ! D15   D(1,3,4,12)            47.2112         -DE/DX =    0.0                 !
 ! D16   D(9,3,4,5)             50.1868         -DE/DX =    0.0                 !
 ! D17   D(9,3,4,11)           -67.4054         -DE/DX =    0.0                 !
 ! D18   D(9,3,4,12)           168.4646         -DE/DX =    0.0                 !
 ! D19   D(10,3,4,5)           166.3069         -DE/DX =    0.0                 !
 ! D20   D(10,3,4,11)           48.7148         -DE/DX =    0.0                 !
 ! D21   D(10,3,4,12)          -75.4153         -DE/DX =    0.0                 !
 ! D22   D(3,4,5,13)          -179.948          -DE/DX =    0.0                 !
 ! D23   D(11,4,5,13)          -60.291          -DE/DX =    0.0                 !
 ! D24   D(12,4,5,13)           59.1597         -DE/DX =    0.0                 !
 --------------------------------------------------------------------------------
 GradGradGradGradGradGradGradGradGradGradGradGradGradGradGradGradGradGrad

                          Input orientation:                          
 ---------------------------------------------------------------------
 Center     Atomic      Atomic             Coordinates (Angstroms)
 Number     Number       Type             X           Y           Z
 ---------------------------------------------------------------------
      1          6           0        1.352353    2.398451    1.452764
      2          8           0        0.003987    2.337364    0.967988
      3          6           0        2.011217    1.018156    1.361094
      4          6           0        3.443179    1.046356    1.885503
      5          8           0        4.190136    1.784556    0.893025
      6          1           0        1.219793    2.735344    2.497385
      7          1           0        1.920147    3.156435    0.882400
      8          1           0       -0.008372    2.137118    0.012236
      9          1           0        2.018033    0.677085    0.304445
     10          1           0        1.408739    0.273796    1.917616
     11          1           0        3.869577    0.030148    1.965222
     12          1           0        3.531666    1.565342    2.856259
     13          1           0        5.126824    1.848479    1.154773
 ---------------------------------------------------------------------
                    Distance matrix (angstroms):
                    1          2          3          4          5
     1  C    0.000000
     2  O    1.434166   0.000000
     3  C    1.532227   2.433888   0.000000
     4  C    2.527247   3.786367   1.525226   0.000000
     5  O    2.956888   4.223158   2.356724   1.444956   0.000000
     6  H    1.105578   1.993898   2.205956   2.858413   3.507265
     7  H    1.105551   2.085635   2.193098   2.788956   2.652360
     8  H    1.998747   0.976582   2.673992   4.075794   4.304365
     9  H    2.173676   2.693176   1.110353   2.160358   2.508176
    10  H    2.175644   2.670849   1.107596   2.176425   3.326913
    11  H    3.493979   4.610912   2.189666   1.104921   2.080940
    12  H    2.722733   4.075059   2.201522   1.104329   2.082289
    13  H    3.825951   5.149501   3.230946   2.003005   0.974671
                    6          7          8          9         10
     6  H    0.000000
     7  H    1.809969   0.000000
     8  H    2.835882   2.348484   0.000000
     9  H    3.111688   2.547703   2.514637   0.000000
    10  H    2.535952   3.105289   3.018385   1.770933   0.000000
    11  H    3.823956   3.840111   4.826175   2.570005   2.473329
    12  H    2.615808   3.004113   4.576819   3.097070   2.656306
    13  H    4.225403   3.473862   5.268676   3.429257   4.109223
                   11         12         13
    11  H    0.000000
    12  H    1.806918   0.000000
    13  H    2.354533   2.349415   0.000000
 Stoichiometry    C3H8O2
 Framework group  C1[X(C3H8O2)]
 Deg. of freedom    33
 Full point group                 C1      NOp   1
 Largest Abelian subgroup         C1      NOp   1
 Largest concise Abelian subgroup C1      NOp   1
                         Standard orientation:                         
 ---------------------------------------------------------------------
 Center     Atomic      Atomic             Coordinates (Angstroms)
 Number     Number       Type             X           Y           Z
 ---------------------------------------------------------------------
      1          6           0        0.993399   -0.295519    0.416792
      2          8           0        2.324759   -0.132967   -0.091037
      3          6           0        0.037807    0.677942   -0.281016
      4          6           0       -1.385526    0.541010    0.249728
      5          8           0       -1.852846   -0.728832   -0.257235
      6          1           0        1.114744   -0.071064    1.492523
      7          1           0        0.669323   -1.344349    0.285736
      8          1           0        2.368586   -0.397511   -1.030083
      9          1           0        0.038234    0.482572   -1.374046
     10          1           0        0.399823    1.717353   -0.157176
     11          1           0       -2.044415    1.339721   -0.135986
     12          1           0       -1.429221    0.521585    1.353022
     13          1           0       -2.766455   -0.894513    0.039164
 ---------------------------------------------------------------------
 Rotational constants (GHZ):     12.9551179      2.4077985      2.2493031

 **********************************************************************

            Population analysis using the SCF density.

 **********************************************************************

 Orbital symmetries:
       Occupied  (A) (A) (A) (A) (A) (A) (A) (A) (A) (A) (A) (A)
                 (A) (A) (A) (A)
       Virtual   (A) (A) (A) (A) (A) (A) (A) (A) (A) (A) (A) (A)
 The electronic state is 1-A.
 Alpha  occ. eigenvalues --   -1.10842  -1.09049  -1.00216  -0.87576  -0.77633
 Alpha  occ. eigenvalues --   -0.68433  -0.64629  -0.59702  -0.56461  -0.53100
 Alpha  occ. eigenvalues --   -0.50439  -0.49192  -0.45764  -0.43344  -0.39672
 Alpha  occ. eigenvalues --   -0.38207
 Alpha virt. eigenvalues --    0.08825   0.09836   0.13355   0.14222   0.18422
 Alpha virt. eigenvalues --    0.18835   0.19189   0.20147   0.20190   0.21153
 Alpha virt. eigenvalues --    0.22054   0.22602
          Condensed to atoms (all electrons):
               1          2          3          4          5          6
     1  C    3.973525   0.000000   0.000000   0.000000   0.000000   0.000000
     2  O    0.000000   6.552913   0.000000   0.000000   0.000000   0.000000
     3  C    0.000000   0.000000   4.362497   0.000000   0.000000   0.000000
     4  C    0.000000   0.000000   0.000000   3.978393   0.000000   0.000000
     5  O    0.000000   0.000000   0.000000   0.000000   6.560698   0.000000
     6  H    0.000000   0.000000   0.000000   0.000000   0.000000   0.861963
     7  H    0.000000   0.000000   0.000000   0.000000   0.000000   0.000000
     8  H    0.000000   0.000000   0.000000   0.000000   0.000000   0.000000
     9  H    0.000000   0.000000   0.000000   0.000000   0.000000   0.000000
    10  H    0.000000   0.000000   0.000000   0.000000   0.000000   0.000000
    11  H    0.000000   0.000000   0.000000   0.000000   0.000000   0.000000
    12  H    0.000000   0.000000   0.000000   0.000000   0.000000   0.000000
    13  H    0.000000   0.000000   0.000000   0.000000   0.000000   0.000000
               7          8          9         10         11         12
     1  C    0.000000   0.000000   0.000000   0.000000   0.000000   0.000000
     2  O    0.000000   0.000000   0.000000   0.000000   0.000000   0.000000
     3  C    0.000000   0.000000   0.000000   0.000000   0.000000   0.000000
     4  C    0.000000   0.000000   0.000000   0.000000   0.000000   0.000000
     5  O    0.000000   0.000000   0.000000   0.000000   0.000000   0.000000
     6  H    0.000000   0.000000   0.000000   0.000000   0.000000   0.000000
     7  H    0.872583   0.000000   0.000000   0.000000   0.000000   0.000000
     8  H    0.000000   0.693882   0.000000   0.000000   0.000000   0.000000
     9  H    0.000000   0.000000   0.833627   0.000000   0.000000   0.000000
    10  H    0.000000   0.000000   0.000000   0.838474   0.000000   0.000000
    11  H    0.000000   0.000000   0.000000   0.000000   0.888416   0.000000
    12  H    0.000000   0.000000   0.000000   0.000000   0.000000   0.888400
    13  H    0.000000   0.000000   0.000000   0.000000   0.000000   0.000000
              13
     1  C    0.000000
     2  O    0.000000
     3  C    0.000000
     4  C    0.000000
     5  O    0.000000
     6  H    0.000000
     7  H    0.000000
     8  H    0.000000
     9  H    0.000000
    10  H    0.000000
    11  H    0.000000
    12  H    0.000000
    13  H    0.694629
 Mulliken charges:
               1
     1  C    0.026475
     2  O   -0.552913
     3  C   -0.362497
     4  C    0.021607
     5  O   -0.560698
     6  H    0.138037
     7  H    0.127417
     8  H    0.306118
     9  H    0.166373
    10  H    0.161526
    11  H    0.111584
    12  H    0.111600
    13  H    0.305371
 Sum of Mulliken charges =   0.00000
 Mulliken charges with hydrogens summed into heavy atoms:
               1
     1  C    0.291928
     2  O   -0.246795
     3  C   -0.034598
     4  C    0.244791
     5  O   -0.255327
 Charge=              0.0000 electrons
 Dipole moment (field-independent basis, Debye):
    X=             -2.4761    Y=              0.8958    Z=              0.2271  Tot=              2.6429
 N-N= 1.338755305154D+02 E-N=-2.291174314764D+02  KE=-1.786834549817D+01
 1\1\GINC-GTX1080DELTA\FOpt\RPM6\ZDO\C3H8O2\MVEROT\17-Apr-2022\0\\#n PM
 6 Opt\\Optimisation de geometrie\\0,1\C,1.3523532201,2.3984512045,1.45
 27637654\O,0.0039868592,2.337363702,0.9679879249\C,2.0112167362,1.0181
 564167,1.3610944224\C,3.4431789815,1.0463563958,1.8855033082\O,4.19013
 5868,1.7845558989,0.8930246467\H,1.219793382,2.7353442598,2.4973848266
 \H,1.9201469153,3.1564351003,0.8823999862\H,-0.0083723465,2.1371178178
 ,0.0122363975\H,2.018033015,0.6770850657,0.3044449023\H,1.4087391702,0
 .2737955285,1.9176161285\H,3.8695774601,0.0301479019,1.9652215835\H,3.
 5316663073,1.5653421556,2.8562593563\H,5.1268244316,1.8484785524,1.154
 7727515\\Version=AM64L-G09RevD.01\State=1-A\HF=-0.1599613\RMSD=7.933e-
 09\RMSF=1.331e-05\Dipole=0.8596851,-0.4887907,0.3213006\PG=C01 [X(C3H8
 O2)]\\@


 THE ONLY TROUBLE WITH A SURE THING IS THE UNCERTAINTY.
     -- FROM A TEABAG (BELONGING TO W.H.?)
 Job cpu time:       0 days  0 hours  0 minutes 14.3 seconds.
 File lengths (MBytes):  RWF=     72 Int=      0 D2E=      0 Chk=      2 Scr=      2
 Normal termination of Gaussian 09 at Sun Apr 17 23:36:53 2022.
