 Entering Gaussian System, Link 0=g09
 Input=/scratch/mverot/trans-SP/trans-SP.com
 Output=/scratch/mverot/trans-SP/trans-SP.log
 Initial command:
 /opt/g09/l1.exe "/scratch/mverot/trans-SP/Gau-2845243.inp" -scrdir="/scratch/mverot/trans-SP/"
 Entering Link 1 = /opt/g09/l1.exe PID=   2845245.
  
 Copyright (c) 1988,1990,1992,1993,1995,1998,2003,2009,2013,
            Gaussian, Inc.  All Rights Reserved.
  
 This is part of the Gaussian(R) 09 program.  It is based on
 the Gaussian(R) 03 system (copyright 2003, Gaussian, Inc.),
 the Gaussian(R) 98 system (copyright 1998, Gaussian, Inc.),
 the Gaussian(R) 94 system (copyright 1995, Gaussian, Inc.),
 the Gaussian 92(TM) system (copyright 1992, Gaussian, Inc.),
 the Gaussian 90(TM) system (copyright 1990, Gaussian, Inc.),
 the Gaussian 88(TM) system (copyright 1988, Gaussian, Inc.),
 the Gaussian 86(TM) system (copyright 1986, Carnegie Mellon
 University), and the Gaussian 82(TM) system (copyright 1983,
 Carnegie Mellon University). Gaussian is a federally registered
 trademark of Gaussian, Inc.
  
 This software contains proprietary and confidential information,
 including trade secrets, belonging to Gaussian, Inc.
  
 This software is provided under written license and may be
 used, copied, transmitted, or stored only in accord with that
 written license.
  
 The following legend is applicable only to US Government
 contracts under FAR:
  
                    RESTRICTED RIGHTS LEGEND
  
 Use, reproduction and disclosure by the US Government is
 subject to restrictions as set forth in subparagraphs (a)
 and (c) of the Commercial Computer Software - Restricted
 Rights clause in FAR 52.227-19.
  
 Gaussian, Inc.
 340 Quinnipiac St., Bldg. 40, Wallingford CT 06492
  
  
 ---------------------------------------------------------------
 Warning -- This program may not be used in any manner that
 competes with the business of Gaussian, Inc. or will provide
 assistance to any competitor of Gaussian, Inc.  The licensee
 of this program is prohibited from giving any competitor of
 Gaussian, Inc. access to this program.  By using this program,
 the user acknowledges that Gaussian, Inc. is engaged in the
 business of creating and licensing software in the field of
 computational chemistry and represents and warrants to the
 licensee that it is not a competitor of Gaussian, Inc. and that
 it will not use this program in any manner prohibited above.
 ---------------------------------------------------------------
  

 Cite this work as:
 Gaussian 09, Revision D.01,
 M. J. Frisch, G. W. Trucks, H. B. Schlegel, G. E. Scuseria, 
 M. A. Robb, J. R. Cheeseman, G. Scalmani, V. Barone, B. Mennucci, 
 G. A. Petersson, H. Nakatsuji, M. Caricato, X. Li, H. P. Hratchian, 
 A. F. Izmaylov, J. Bloino, G. Zheng, J. L. Sonnenberg, M. Hada, 
 M. Ehara, K. Toyota, R. Fukuda, J. Hasegawa, M. Ishida, T. Nakajima, 
 Y. Honda, O. Kitao, H. Nakai, T. Vreven, J. A. Montgomery, Jr., 
 J. E. Peralta, F. Ogliaro, M. Bearpark, J. J. Heyd, E. Brothers, 
 K. N. Kudin, V. N. Staroverov, T. Keith, R. Kobayashi, J. Normand, 
 K. Raghavachari, A. Rendell, J. C. Burant, S. S. Iyengar, J. Tomasi, 
 M. Cossi, N. Rega, J. M. Millam, M. Klene, J. E. Knox, J. B. Cross, 
 V. Bakken, C. Adamo, J. Jaramillo, R. Gomperts, R. E. Stratmann, 
 O. Yazyev, A. J. Austin, R. Cammi, C. Pomelli, J. W. Ochterski, 
 R. L. Martin, K. Morokuma, V. G. Zakrzewski, G. A. Voth, 
 P. Salvador, J. J. Dannenberg, S. Dapprich, A. D. Daniels, 
 O. Farkas, J. B. Foresman, J. V. Ortiz, J. Cioslowski, 
 and D. J. Fox, Gaussian, Inc., Wallingford CT, 2013.
 
 ******************************************
 Gaussian 09:  AM64L-G09RevD.01 24-Apr-2013
                12-Apr-2022 
 ******************************************
 %chk=trans-SP
 -----------------
 #n AM1 freq=RAMAN
 -----------------
 1/10=4,30=1,38=1/1,3;
 2/12=2,17=6,18=5,40=1/2;
 3/5=2,16=1,25=1,41=700000,71=2,140=1/1,2,3;
 4/35=1/1;
 5/5=2,35=1,38=5,98=1/2;
 8/6=4,10=90,11=11/1;
 10/13=10,15=4/2;
 11/6=3,8=1,9=11,15=111,16=1/1,2,10;
 10/6=1/2;
 6/7=2,8=2,9=2,10=2,18=1,28=1/1;
 7/8=1,10=1,25=1/1,2,3,16;
 1/10=4,30=1/3;
 99//99;
 ----------
 UV-spectra
 ----------
 Symbolic Z-matrix:
 Charge =  0 Multiplicity = 1
 C                     6.08158   1.67678  -0.42121 
 C                     6.67433   0.39545  -0.36277 
 C                     4.67596   1.77725  -0.43571 
 N                     6.99394   2.78539  -0.46138 
 C                     5.87407  -0.74211  -0.32056 
 C                     3.89028   0.62808  -0.3929 
 C                     4.48377  -0.63182  -0.33536 
 N                     6.55652   3.93474  -0.5131 
 C                     7.46893   5.04328  -0.55328 
 C                     9.06693   7.35174  -0.63915 
 C                     7.67664   7.46215  -0.65387 
 C                     9.66031   6.09177  -0.58167 
 C                     6.87629   6.32466  -0.61165 
 C                     8.87453   4.94269  -0.53886 
 H                     7.7709    0.29065  -0.35034 
 H                     4.1845    2.76201  -0.48089 
 H                     6.34533  -1.73544  -0.27516 
 H                     2.79375   0.71885  -0.40474 
 H                     3.85843  -1.53607  -0.30173 
 H                     9.69235   8.25592  -0.67279 
 H                     7.20545   8.45551  -0.69921 
 H                     10.75683   6.0009   -0.5699 
 H                     5.77972   6.42955  -0.62402 
 H                     9.36587   3.95786  -0.49373 
 

 GradGradGradGradGradGradGradGradGradGradGradGradGradGradGradGradGradGrad
 Berny optimization.
 Initialization pass.
 Trust Radius=3.00D-01 FncErr=1.00D-07 GrdErr=1.00D-07
 Number of steps in this run=      2 maximum allowed number of steps=      2.
 GradGradGradGradGradGradGradGradGradGradGradGradGradGradGradGradGradGrad

                          Input orientation:                          
 ---------------------------------------------------------------------
 Center     Atomic      Atomic             Coordinates (Angstroms)
 Number     Number       Type             X           Y           Z
 ---------------------------------------------------------------------
      1          6           0        6.081577    1.676779   -0.421211
      2          6           0        6.674327    0.395447   -0.362767
      3          6           0        4.675958    1.777245   -0.435707
      4          7           0        6.993936    2.785390   -0.461384
      5          6           0        5.874066   -0.742108   -0.320558
      6          6           0        3.890275    0.628081   -0.392903
      7          6           0        4.483773   -0.631823   -0.335360
      8          7           0        6.556521    3.934741   -0.513095
      9          6           0        7.468931    5.043284   -0.553277
     10          6           0        9.066926    7.351738   -0.639152
     11          6           0        7.676644    7.462147   -0.653873
     12          6           0        9.660311    6.091770   -0.581674
     13          6           0        6.876288    6.324657   -0.611653
     14          6           0        8.874526    4.942686   -0.538856
     15          1           0        7.770905    0.290651   -0.350340
     16          1           0        4.184498    2.762009   -0.480885
     17          1           0        6.345333   -1.735437   -0.275165
     18          1           0        2.793754    0.718854   -0.404737
     19          1           0        3.858432   -1.536068   -0.301729
     20          1           0        9.692354    8.255922   -0.672792
     21          1           0        7.205451    8.455515   -0.699213
     22          1           0       10.756825    6.000900   -0.569902
     23          1           0        5.779717    6.429549   -0.624016
     24          1           0        9.365870    3.957863   -0.493730
 ---------------------------------------------------------------------
                    Distance matrix (angstroms):
                    1          2          3          4          5
     1  C    0.000000
     2  C    1.413003   0.000000
     3  C    1.409280   2.430671   0.000000
     4  N    1.436325   2.413234   2.527853   0.000000
     5  C    2.429857   1.391485   2.792107   3.703671   0.000000
     6  C    2.429480   2.793917   1.392734   3.780394   2.412069
     7  C    2.808913   2.419620   2.418804   4.241951   1.394739
     8  N    2.309200   3.544443   2.863092   1.230859   4.730299
     9  C    3.643563   4.719118   4.299015   2.309145   6.005707
    10  C    6.415993   7.361447   7.099082   5.018010   8.706676
    11  C    6.005735   7.143362   6.431937   4.730243   8.406556
    12  C    5.685528   6.435225   6.593953   4.249256   7.817015
    13  C    4.719174   5.937866   5.054835   3.544409   7.143413
    14  C    4.298901   5.054628   5.259147   2.862961   6.431741
    15  H    2.186367   1.101644   3.434523   2.615288   2.159971
    16  H    2.186366   3.437123   1.101514   2.809603   3.893479
    17  H    3.425510   2.157911   3.892496   4.570912   1.100390
    18  H    3.424569   3.894251   2.159593   4.681379   3.410251
    19  H    3.908841   3.415222   3.415310   5.341524   2.166450
    20  H    7.509070   8.425656   8.197176   6.103514   9.780999
    21  H    6.876891   8.084551   7.146121   5.679051   9.301195
    22  H    6.370092   6.937636   7.405013   4.950820   8.328966
    23  H    4.766663   6.105650   4.785151   3.844564   7.178694
    24  H    3.999398   4.466806   5.172401   2.646093   5.857679
                    6          7          8          9         10
     6  C    0.000000
     7  C    1.393883   0.000000
     8  N    4.249389   5.018105   0.000000
     9  C    5.685641   6.416035   1.436306   0.000000
    10  C    8.489164   9.210583   4.241921   2.808900   0.000000
    11  C    7.817234   8.706792   3.703658   2.429848   1.394737
    12  C    7.948638   8.489048   3.780343   2.429460   1.393889
    13  C    6.435456   7.361595   2.413227   1.412993   2.419618
    14  C    6.593927   7.098963   2.527798   1.409264   2.418803
    15  H    3.895505   3.414150   3.844556   4.766539   7.184848
    16  H    2.155911   3.410108   2.646286   3.999620   6.702893
    17  H    3.409896   2.164947   5.679096   6.876837   9.492961
    18  H    1.100335   2.164556   4.950968   6.370247   9.132513
    19  H    2.166304   1.099928   6.103615   7.509118  10.307054
    20  H    9.587827  10.307046   5.341495   3.908828   1.099928
    21  H    8.506052   9.493136   4.570902   3.425498   2.164953
    22  H    8.720552   9.132317   4.681324   3.424551   2.164559
    23  H    6.105770   7.185107   2.615300   2.186362   3.414148
    24  H    6.409349   6.702624   2.809511   2.186335   3.410118
                   11         12         13         14         15
    11  C    0.000000
    12  C    2.412070   0.000000
    13  C    1.391487   2.793908   0.000000
    14  C    2.792102   1.392726   2.430658   0.000000
    15  H    7.178536   6.105437   6.105559   4.784867   0.000000
    16  H    5.858012   6.409524   4.467135   5.172531   4.357404
    17  H    9.301148   8.505775   8.084569   7.145885   2.478495
    18  H    8.329266   8.720616   6.937933   7.405034   4.995832
    19  H    9.781136   9.587705   8.425824   8.197053   4.318183
    20  H    2.166455   2.166306   3.415224   3.415306   8.200091
    21  H    1.100390   3.409903   2.157909   3.892492   8.191853
    22  H    3.410251   1.100336   3.894244   2.159590   6.447548
    23  H    2.159972   3.895497   1.101645   3.434510   6.459551
    24  H    3.893474   2.155920   3.437097   1.101513   4.001615
                   16         17         18         19         20
    16  H    0.000000
    17  H    4.993851   0.000000
    18  H    2.472741   4.319033   0.000000
    19  H    4.314149   2.495021   2.495761   0.000000
    20  H    7.781799  10.544569  10.221054  11.404184   0.000000
    21  H    6.449018  10.235972   8.910988  10.544774   2.495040
    22  H    7.327607   8.910614   9.557081  10.220843   2.495758
    23  H    4.002007   8.191985   6.447953   8.200382   4.318188
    24  H    5.317598   6.448649   7.327469   7.781517   4.314159
                   21         22         23         24
    21  H    0.000000
    22  H    4.319041   0.000000
    23  H    2.478489   4.995826   0.000000
    24  H    4.993847   2.472764   4.357373   0.000000
 Stoichiometry    C12H10N2
 Framework group  C1[X(C12H10N2)]
 Deg. of freedom    66
 Full point group                 C1      NOp   1
 Largest Abelian subgroup         C1      NOp   1
 Largest concise Abelian subgroup C1      NOp   1
                         Standard orientation:                         
 ---------------------------------------------------------------------
 Center     Atomic      Atomic             Coordinates (Angstroms)
 Number     Number       Type             X           Y           Z
 ---------------------------------------------------------------------
      1          6           0       -1.814259    0.165231   -0.000006
      2          6           0       -2.676579    1.284597   -0.000040
      3          6           0       -2.375707   -1.127381    0.000035
      4          7           0       -0.408540    0.460161   -0.000013
      5          6           0       -4.056092    1.102455   -0.000032
      6          6           0       -3.758770   -1.291219    0.000044
      7          6           0       -4.601737   -0.181121    0.000010
      8          7           0        0.408595   -0.460331   -0.000010
      9          6           0        1.814279   -0.165324   -0.000005
     10          6           0        4.601714    0.181265    0.000010
     11          6           0        4.056181   -1.102358   -0.000033
     12          6           0        3.758642    1.291290    0.000044
     13          6           0        2.676682   -1.284614   -0.000040
     14          6           0        2.375601    1.127325    0.000035
     15          1           0       -2.262008    2.305259   -0.000074
     16          1           0       -1.729591   -2.019495    0.000061
     17          1           0       -4.719153    1.980639   -0.000059
     18          1           0       -4.185756   -2.305330    0.000077
     19          1           0       -5.693321   -0.316343    0.000017
     20          1           0        5.693286    0.316591    0.000016
     21          1           0        4.719309   -1.980492   -0.000060
     22          1           0        4.185540    2.305439    0.000076
     23          1           0        2.262197   -2.305312   -0.000074
     24          1           0        1.729380    2.019362    0.000062
 ---------------------------------------------------------------------
 Rotational constants (GHZ):      2.7403786      0.2815336      0.2553048
 Standard basis: VSTO-6G (5D, 7F)
 There are    66 symmetry adapted cartesian basis functions of A   symmetry.
 There are    66 symmetry adapted basis functions of A   symmetry.
    66 basis functions,   396 primitive gaussians,    66 cartesian basis functions
    34 alpha electrons       34 beta electrons
       nuclear repulsion energy       408.4883703090 Hartrees.
 Integral buffers will be    131072 words long.
 Regular integral format.
 Two-electron integral symmetry is turned off.
 Do NDO integrals.
 One-electron integrals computed using PRISM.
 NBasis=    66 RedAO= F EigKep=  0.00D+00  NBF=    66
 NBsUse=    66 1.00D-04 EigRej=  0.00D+00 NBFU=    66
 Simple Huckel Guess.
 Overlap will be assumed to be unity.
 Keep J ints in memory in canonical form, NReq=919528.
 Requested convergence on RMS density matrix=1.00D-08 within 128 cycles.
 Requested convergence on MAX density matrix=1.00D-06.
 Requested convergence on             energy=1.00D-06.
 No special actions if energy rises.
 SCF Done:  E(RAM1) =  0.159147470516     A.U. after   15 cycles
            NFock= 14  Conv=0.42D-08     -V/T= 1.0035
 Range of M.O.s used for correlation:     1    66
 NBasis=    66 NAE=    34 NBE=    34 NFC=     0 NFV=     0
 NROrb=     66 NOA=    34 NOB=    34 NVA=    32 NVB=    32
          Differentiating once with respect to electric field.
                with respect to dipole field.
          Electric field/nuclear overlap derivatives assumed to be zero.
 Keep J ints in memory in canonical form, NReq=895491.
          There are     3 degrees of freedom in the 1st order CPHF.  IDoFFX=0 NUNeed=     3.
 LinEq1:  Iter=  0 NonCon=     3 RMS=3.14D-01 Max=7.27D+00 NDo=     3
 AX will form     3 AO Fock derivatives at one time.
 LinEq1:  Iter=  1 NonCon=     3 RMS=5.58D-02 Max=6.54D-01 NDo=     3
 LinEq1:  Iter=  2 NonCon=     3 RMS=1.21D-02 Max=1.83D-01 NDo=     3
 LinEq1:  Iter=  3 NonCon=     3 RMS=3.20D-03 Max=3.30D-02 NDo=     3
 LinEq1:  Iter=  4 NonCon=     3 RMS=6.81D-04 Max=6.99D-03 NDo=     3
 LinEq1:  Iter=  5 NonCon=     3 RMS=1.31D-04 Max=1.38D-03 NDo=     3
 LinEq1:  Iter=  6 NonCon=     3 RMS=1.70D-05 Max=2.24D-04 NDo=     3
 LinEq1:  Iter=  7 NonCon=     3 RMS=3.29D-06 Max=4.31D-05 NDo=     3
 LinEq1:  Iter=  8 NonCon=     2 RMS=4.28D-07 Max=4.33D-06 NDo=     3
 LinEq1:  Iter=  9 NonCon=     2 RMS=7.50D-08 Max=8.33D-07 NDo=     3
 LinEq1:  Iter= 10 NonCon=     1 RMS=1.32D-08 Max=1.26D-07 NDo=     3
 LinEq1:  Iter= 11 NonCon=     0 RMS=1.60D-09 Max=1.71D-08 NDo=     3
 Linear equations converged to 1.000D-08 1.000D-07 after    11 iterations.
 End of Minotr F.D. properties file   721 does not exist.
 End of Minotr F.D. properties file   722 does not exist.
 End of Minotr F.D. properties file   788 does not exist.
 Symmetrizing basis deriv contribution to polar:
 IMax=3 JMax=2 DiffMx= 0.00D+00
 G2DrvN: will do    25 centers at a time, making    1 passes.
 PxScal for G2LodP:  IOpCl= 0 ISclPx=1 IMOff=     1 NMtTot=     4 NTT=    2211 ScalPx= 4.26D+00
 Calling FoFCou, ICntrl=  3107 FMM=F I1Cent=   0 AccDes= 0.00D+00.
 End of G2Drv F.D. properties file   721 does not exist.
 End of G2Drv F.D. properties file   722 does not exist.
 End of G2Drv F.D. properties file   788 does not exist.
          IDoAtm=111111111111111111111111
          Differentiating once with respect to electric field.
                with respect to dipole field.
          Differentiating once with respect to nuclear coordinates.
          Electric field/nuclear overlap derivatives assumed to be zero.
 Keep J ints in memory in canonical form, NReq=896046.
          There are    75 degrees of freedom in the 1st order CPHF.  IDoFFX=5 NUNeed=    75.
 Recover   3 previous solutions.
 LinEq1:  Iter=  0 NonCon=    72 RMS=1.09D-02 Max=1.31D-01 NDo=    72
 AX will form    72 AO Fock derivatives at one time.
 LinEq1:  Iter=  1 NonCon=    72 RMS=1.82D-03 Max=2.60D-02 NDo=    72
 LinEq1:  Iter=  2 NonCon=    72 RMS=3.99D-04 Max=5.42D-03 NDo=    72
 LinEq1:  Iter=  3 NonCon=    72 RMS=8.86D-05 Max=9.84D-04 NDo=    72
 LinEq1:  Iter=  4 NonCon=    72 RMS=1.74D-05 Max=1.87D-04 NDo=    72
 LinEq1:  Iter=  5 NonCon=    72 RMS=3.72D-06 Max=6.47D-05 NDo=    72
 LinEq1:  Iter=  6 NonCon=    70 RMS=7.84D-07 Max=1.22D-05 NDo=    72
 LinEq1:  Iter=  7 NonCon=    48 RMS=1.98D-07 Max=2.48D-06 NDo=    72
 LinEq1:  Iter=  8 NonCon=    28 RMS=3.27D-08 Max=3.38D-07 NDo=    72
 LinEq1:  Iter=  9 NonCon=     0 RMS=5.80D-09 Max=6.96D-08 NDo=    72
 Linear equations converged to 1.000D-08 1.000D-07 after     9 iterations.
 Isotropic polarizability for W=    0.000000      136.65 Bohr**3.
 End of Minotr F.D. properties file   721 does not exist.
 End of Minotr F.D. properties file   722 does not exist.
 End of Minotr F.D. properties file   788 does not exist.

 **********************************************************************

            Population analysis using the SCF density.

 **********************************************************************

 Orbital symmetries:
       Occupied  (A) (A) (A) (A) (A) (A) (A) (A) (A) (A) (A) (A)
                 (A) (A) (A) (A) (A) (A) (A) (A) (A) (A) (A) (A)
                 (A) (A) (A) (A) (A) (A) (A) (A) (A) (A)
       Virtual   (A) (A) (A) (A) (A) (A) (A) (A) (A) (A) (A) (A)
                 (A) (A) (A) (A) (A) (A) (A) (A) (A) (A) (A) (A)
                 (A) (A) (A) (A) (A) (A) (A) (A)
 The electronic state is 1-A.
 Alpha  occ. eigenvalues --   -1.47795  -1.44531  -1.39244  -1.20063  -1.16193
 Alpha  occ. eigenvalues --   -1.16183  -1.12178  -0.96566  -0.86636  -0.85849
 Alpha  occ. eigenvalues --   -0.83975  -0.77258  -0.67584  -0.64576  -0.62116
 Alpha  occ. eigenvalues --   -0.60782  -0.57775  -0.56468  -0.56110  -0.54298
 Alpha  occ. eigenvalues --   -0.53922  -0.52569  -0.52456  -0.50214  -0.47100
 Alpha  occ. eigenvalues --   -0.46475  -0.46163  -0.44172  -0.44130  -0.37371
 Alpha  occ. eigenvalues --   -0.36202  -0.36185  -0.35981  -0.33473
 Alpha virt. eigenvalues --   -0.02838   0.01503   0.01504   0.01529   0.06131
 Alpha virt. eigenvalues --    0.08593   0.10232   0.11191   0.14026   0.14027
 Alpha virt. eigenvalues --    0.14251   0.14287   0.14495   0.14641   0.15573
 Alpha virt. eigenvalues --    0.15818   0.15880   0.15965   0.16356   0.17568
 Alpha virt. eigenvalues --    0.18151   0.18214   0.18922   0.19399   0.19621
 Alpha virt. eigenvalues --    0.19763   0.20202   0.20219   0.20379   0.21559
 Alpha virt. eigenvalues --    0.22232   0.26901
          Condensed to atoms (all electrons):
               1          2          3          4          5          6
     1  C    4.048974   0.000000   0.000000   0.000000   0.000000   0.000000
     2  C    0.000000   4.082095   0.000000   0.000000   0.000000   0.000000
     3  C    0.000000   0.000000   4.106342   0.000000   0.000000   0.000000
     4  N    0.000000   0.000000   0.000000   5.070320   0.000000   0.000000
     5  C    0.000000   0.000000   0.000000   0.000000   4.142966   0.000000
     6  C    0.000000   0.000000   0.000000   0.000000   0.000000   4.139666
     7  C    0.000000   0.000000   0.000000   0.000000   0.000000   0.000000
     8  N    0.000000   0.000000   0.000000   0.000000   0.000000   0.000000
     9  C    0.000000   0.000000   0.000000   0.000000   0.000000   0.000000
    10  C    0.000000   0.000000   0.000000   0.000000   0.000000   0.000000
    11  C    0.000000   0.000000   0.000000   0.000000   0.000000   0.000000
    12  C    0.000000   0.000000   0.000000   0.000000   0.000000   0.000000
    13  C    0.000000   0.000000   0.000000   0.000000   0.000000   0.000000
    14  C    0.000000   0.000000   0.000000   0.000000   0.000000   0.000000
    15  H    0.000000   0.000000   0.000000   0.000000   0.000000   0.000000
    16  H    0.000000   0.000000   0.000000   0.000000   0.000000   0.000000
    17  H    0.000000   0.000000   0.000000   0.000000   0.000000   0.000000
    18  H    0.000000   0.000000   0.000000   0.000000   0.000000   0.000000
    19  H    0.000000   0.000000   0.000000   0.000000   0.000000   0.000000
    20  H    0.000000   0.000000   0.000000   0.000000   0.000000   0.000000
    21  H    0.000000   0.000000   0.000000   0.000000   0.000000   0.000000
    22  H    0.000000   0.000000   0.000000   0.000000   0.000000   0.000000
    23  H    0.000000   0.000000   0.000000   0.000000   0.000000   0.000000
    24  H    0.000000   0.000000   0.000000   0.000000   0.000000   0.000000
               7          8          9         10         11         12
     1  C    0.000000   0.000000   0.000000   0.000000   0.000000   0.000000
     2  C    0.000000   0.000000   0.000000   0.000000   0.000000   0.000000
     3  C    0.000000   0.000000   0.000000   0.000000   0.000000   0.000000
     4  N    0.000000   0.000000   0.000000   0.000000   0.000000   0.000000
     5  C    0.000000   0.000000   0.000000   0.000000   0.000000   0.000000
     6  C    0.000000   0.000000   0.000000   0.000000   0.000000   0.000000
     7  C    4.111039   0.000000   0.000000   0.000000   0.000000   0.000000
     8  N    0.000000   5.070305   0.000000   0.000000   0.000000   0.000000
     9  C    0.000000   0.000000   4.048980   0.000000   0.000000   0.000000
    10  C    0.000000   0.000000   0.000000   4.111038   0.000000   0.000000
    11  C    0.000000   0.000000   0.000000   0.000000   4.142966   0.000000
    12  C    0.000000   0.000000   0.000000   0.000000   0.000000   4.139666
    13  C    0.000000   0.000000   0.000000   0.000000   0.000000   0.000000
    14  C    0.000000   0.000000   0.000000   0.000000   0.000000   0.000000
    15  H    0.000000   0.000000   0.000000   0.000000   0.000000   0.000000
    16  H    0.000000   0.000000   0.000000   0.000000   0.000000   0.000000
    17  H    0.000000   0.000000   0.000000   0.000000   0.000000   0.000000
    18  H    0.000000   0.000000   0.000000   0.000000   0.000000   0.000000
    19  H    0.000000   0.000000   0.000000   0.000000   0.000000   0.000000
    20  H    0.000000   0.000000   0.000000   0.000000   0.000000   0.000000
    21  H    0.000000   0.000000   0.000000   0.000000   0.000000   0.000000
    22  H    0.000000   0.000000   0.000000   0.000000   0.000000   0.000000
    23  H    0.000000   0.000000   0.000000   0.000000   0.000000   0.000000
    24  H    0.000000   0.000000   0.000000   0.000000   0.000000   0.000000
              13         14         15         16         17         18
     1  C    0.000000   0.000000   0.000000   0.000000   0.000000   0.000000
     2  C    0.000000   0.000000   0.000000   0.000000   0.000000   0.000000
     3  C    0.000000   0.000000   0.000000   0.000000   0.000000   0.000000
     4  N    0.000000   0.000000   0.000000   0.000000   0.000000   0.000000
     5  C    0.000000   0.000000   0.000000   0.000000   0.000000   0.000000
     6  C    0.000000   0.000000   0.000000   0.000000   0.000000   0.000000
     7  C    0.000000   0.000000   0.000000   0.000000   0.000000   0.000000
     8  N    0.000000   0.000000   0.000000   0.000000   0.000000   0.000000
     9  C    0.000000   0.000000   0.000000   0.000000   0.000000   0.000000
    10  C    0.000000   0.000000   0.000000   0.000000   0.000000   0.000000
    11  C    0.000000   0.000000   0.000000   0.000000   0.000000   0.000000
    12  C    0.000000   0.000000   0.000000   0.000000   0.000000   0.000000
    13  C    4.082094   0.000000   0.000000   0.000000   0.000000   0.000000
    14  C    0.000000   4.106343   0.000000   0.000000   0.000000   0.000000
    15  H    0.000000   0.000000   0.853731   0.000000   0.000000   0.000000
    16  H    0.000000   0.000000   0.000000   0.849994   0.000000   0.000000
    17  H    0.000000   0.000000   0.000000   0.000000   0.864299   0.000000
    18  H    0.000000   0.000000   0.000000   0.000000   0.000000   0.864706
    19  H    0.000000   0.000000   0.000000   0.000000   0.000000   0.000000
    20  H    0.000000   0.000000   0.000000   0.000000   0.000000   0.000000
    21  H    0.000000   0.000000   0.000000   0.000000   0.000000   0.000000
    22  H    0.000000   0.000000   0.000000   0.000000   0.000000   0.000000
    23  H    0.000000   0.000000   0.000000   0.000000   0.000000   0.000000
    24  H    0.000000   0.000000   0.000000   0.000000   0.000000   0.000000
              19         20         21         22         23         24
     1  C    0.000000   0.000000   0.000000   0.000000   0.000000   0.000000
     2  C    0.000000   0.000000   0.000000   0.000000   0.000000   0.000000
     3  C    0.000000   0.000000   0.000000   0.000000   0.000000   0.000000
     4  N    0.000000   0.000000   0.000000   0.000000   0.000000   0.000000
     5  C    0.000000   0.000000   0.000000   0.000000   0.000000   0.000000
     6  C    0.000000   0.000000   0.000000   0.000000   0.000000   0.000000
     7  C    0.000000   0.000000   0.000000   0.000000   0.000000   0.000000
     8  N    0.000000   0.000000   0.000000   0.000000   0.000000   0.000000
     9  C    0.000000   0.000000   0.000000   0.000000   0.000000   0.000000
    10  C    0.000000   0.000000   0.000000   0.000000   0.000000   0.000000
    11  C    0.000000   0.000000   0.000000   0.000000   0.000000   0.000000
    12  C    0.000000   0.000000   0.000000   0.000000   0.000000   0.000000
    13  C    0.000000   0.000000   0.000000   0.000000   0.000000   0.000000
    14  C    0.000000   0.000000   0.000000   0.000000   0.000000   0.000000
    15  H    0.000000   0.000000   0.000000   0.000000   0.000000   0.000000
    16  H    0.000000   0.000000   0.000000   0.000000   0.000000   0.000000
    17  H    0.000000   0.000000   0.000000   0.000000   0.000000   0.000000
    18  H    0.000000   0.000000   0.000000   0.000000   0.000000   0.000000
    19  H    0.865874   0.000000   0.000000   0.000000   0.000000   0.000000
    20  H    0.000000   0.865873   0.000000   0.000000   0.000000   0.000000
    21  H    0.000000   0.000000   0.864299   0.000000   0.000000   0.000000
    22  H    0.000000   0.000000   0.000000   0.864707   0.000000   0.000000
    23  H    0.000000   0.000000   0.000000   0.000000   0.853731   0.000000
    24  H    0.000000   0.000000   0.000000   0.000000   0.000000   0.849992
 Mulliken charges:
               1
     1  C   -0.048974
     2  C   -0.082095
     3  C   -0.106342
     4  N   -0.070320
     5  C   -0.142966
     6  C   -0.139666
     7  C   -0.111039
     8  N   -0.070305
     9  C   -0.048980
    10  C   -0.111038
    11  C   -0.142966
    12  C   -0.139666
    13  C   -0.082094
    14  C   -0.106343
    15  H    0.146269
    16  H    0.150006
    17  H    0.135701
    18  H    0.135294
    19  H    0.134126
    20  H    0.134127
    21  H    0.135701
    22  H    0.135293
    23  H    0.146269
    24  H    0.150008
 Sum of Mulliken charges =  -0.00000
 Mulliken charges with hydrogens summed into heavy atoms:
               1
     1  C   -0.048974
     2  C    0.064174
     3  C    0.043664
     4  N   -0.070320
     5  C   -0.007265
     6  C   -0.004373
     7  C    0.023087
     8  N   -0.070305
     9  C   -0.048980
    10  C    0.023088
    11  C   -0.007264
    12  C   -0.004373
    13  C    0.064175
    14  C    0.043666
 APT charges:
               1
     1  C   -0.148097
     2  C   -0.073886
     3  C   -0.113130
     4  N    0.098982
     5  C   -0.179750
     6  C   -0.192847
     7  C   -0.060317
     8  N    0.098991
     9  C   -0.148119
    10  C   -0.060314
    11  C   -0.179752
    12  C   -0.192848
    13  C   -0.073876
    14  C   -0.113132
    15  H    0.137614
    16  H    0.131462
    17  H    0.131349
    18  H    0.126129
    19  H    0.142487
    20  H    0.142488
    21  H    0.131350
    22  H    0.126128
    23  H    0.137616
    24  H    0.131465
 Sum of APT charges =  -0.00001
 APT charges with hydrogens summed into heavy atoms:
               1
     1  C   -0.148097
     2  C    0.063727
     3  C    0.018332
     4  N    0.098982
     5  C   -0.048401
     6  C   -0.066718
     7  C    0.082170
     8  N    0.098991
     9  C   -0.148119
    10  C    0.082174
    11  C   -0.048402
    12  C   -0.066720
    13  C    0.063740
    14  C    0.018333
 Charge=              0.0000 electrons
 Dipole moment (field-independent basis, Debye):
    X=             -0.0000    Y=              0.0001    Z=              0.0000  Tot=              0.0001
 N-N= 4.084883703090D+02 E-N=-7.226410791052D+02  KE=-4.556551114977D+01
  Exact polarizability: 254.475  -6.897 135.750   0.000  -0.000  19.739
 Approx polarizability: 168.315  -7.856 124.061   0.000  -0.000  15.431
 Calling FoFJK, ICntrl=    100127 FMM=F ISym2X=0 I1Cent= 0 IOpClX= 0 NMat=1 NMatS=1 NMatT=0.
 Full mass-weighted force constant matrix:
 Low frequencies ---   -3.6072   -0.0057   -0.0016    0.0440    2.2901    2.8128
 Low frequencies ---    5.9406   43.9437   60.4334
 ******    1 imaginary frequencies (negative Signs) ****** 
 Diagonal vibrational polarizability:
        5.6166389       3.5702060      29.5937005
 Diagonal vibrational hyperpolarizability:
        0.0147278       0.0005758       1.3985361
 Harmonic frequencies (cm**-1), IR intensities (KM/Mole), Raman scattering
 activities (A**4/AMU), depolarization ratios for plane and unpolarized
 incident light, reduced masses (AMU), force constants (mDyne/A),
 and normal coordinates:
                      1                      2                      3
                      A                      A                      A
 Frequencies --     -3.5719                43.9267                60.4334
 Red. masses --      3.6134                 8.6263                 5.3105
 Frc consts  --      0.0000                 0.0098                 0.0114
 IR Inten    --      0.0050                 0.0000                 1.0719
 Raman Activ --      0.0000                 0.4424                 0.0000
 Depolar (P) --      0.7491                 0.7500                 0.7434
 Depolar (U) --      0.8566                 0.8571                 0.8528
  Atom  AN      X      Y      Z        X      Y      Z        X      Y      Z
     1   6    -0.00  -0.00   0.01    -0.00   0.00   0.18     0.00  -0.00  -0.15
     2   6     0.00   0.00   0.17    -0.00   0.00   0.06    -0.00  -0.00  -0.06
     3   6    -0.00  -0.00  -0.17     0.00   0.00   0.16     0.00  -0.00  -0.08
     4   7    -0.00   0.00   0.01    -0.00   0.00   0.46    -0.00  -0.00  -0.24
     5   6     0.00   0.00   0.17    -0.00  -0.00  -0.11    -0.00   0.00   0.14
     6   6    -0.00  -0.00  -0.18     0.00  -0.00   0.02     0.00   0.00   0.12
     7   6    -0.00  -0.00  -0.01     0.00  -0.00  -0.13     0.00   0.00   0.25
     8   7     0.00   0.00   0.01    -0.00   0.00  -0.46     0.00   0.00  -0.24
     9   6     0.00   0.00   0.01    -0.00   0.00  -0.18    -0.00   0.00  -0.15
    10   6     0.00   0.00  -0.01     0.00  -0.00   0.13    -0.00  -0.00   0.25
    11   6    -0.00  -0.00   0.17    -0.00  -0.00   0.11     0.00  -0.00   0.14
    12   6     0.00   0.00  -0.18     0.00  -0.00  -0.02    -0.00  -0.00   0.12
    13   6    -0.00  -0.00   0.17    -0.00   0.00  -0.06     0.00   0.00  -0.06
    14   6     0.00   0.00  -0.17     0.00   0.00  -0.16    -0.00   0.00  -0.08
    15   1     0.00   0.00   0.31    -0.00   0.00   0.09    -0.00  -0.00  -0.13
    16   1    -0.00  -0.00  -0.31     0.00   0.00   0.27     0.00  -0.00  -0.17
    17   1     0.00   0.00   0.30    -0.00  -0.00  -0.22    -0.00   0.00   0.23
    18   1    -0.00  -0.00  -0.32     0.00  -0.00   0.01     0.00   0.00   0.19
    19   1    -0.00  -0.00  -0.02     0.00  -0.00  -0.25     0.00   0.00   0.42
    20   1     0.00   0.00  -0.02     0.00  -0.00   0.25    -0.00  -0.00   0.42
    21   1    -0.00  -0.00   0.30    -0.00  -0.00   0.22     0.00  -0.00   0.23
    22   1     0.00   0.00  -0.32     0.00  -0.00  -0.01    -0.00  -0.00   0.19
    23   1    -0.00  -0.00   0.31    -0.00   0.00  -0.09     0.00   0.00  -0.13
    24   1     0.00   0.00  -0.31     0.00   0.00  -0.27    -0.00   0.00  -0.17
                      4                      5                      6
                      A                      A                      A
 Frequencies --     81.3692               188.2253               246.8896
 Red. masses --      4.8873                 4.3603                 5.8032
 Frc consts  --      0.0191                 0.0910                 0.2084
 IR Inten    --      1.1233                 0.0000                 0.0000
 Raman Activ --      0.0000                24.3891                 6.4825
 Depolar (P) --      0.7488                 0.7500                 0.4500
 Depolar (U) --      0.8563                 0.8571                 0.6207
  Atom  AN      X      Y      Z        X      Y      Z        X      Y      Z
     1   6     0.01  -0.11   0.00     0.00   0.00   0.13     0.08   0.16   0.00
     2   6     0.12  -0.02   0.00     0.00   0.00   0.17     0.05   0.12   0.00
     3   6    -0.11  -0.05   0.00    -0.00   0.00   0.18     0.21   0.11   0.00
     4   7     0.02  -0.21   0.00     0.00  -0.00  -0.19     0.08   0.07  -0.00
     5   6     0.11   0.12  -0.00     0.00   0.00  -0.00     0.06  -0.01   0.00
     6   6    -0.13   0.09   0.00    -0.00   0.00  -0.01     0.24  -0.01   0.00
     7   6    -0.02   0.17  -0.00    -0.00  -0.00  -0.18     0.18  -0.06  -0.00
     8   7     0.02  -0.21  -0.00     0.00  -0.00   0.19    -0.08  -0.07  -0.00
     9   6     0.01  -0.11  -0.00     0.00   0.00  -0.13    -0.08  -0.16   0.00
    10   6    -0.02   0.17   0.00    -0.00  -0.00   0.18    -0.18   0.06  -0.00
    11   6     0.11   0.12   0.00     0.00   0.00   0.00    -0.06   0.01   0.00
    12   6    -0.13   0.09  -0.00    -0.00   0.00   0.01    -0.24   0.01   0.00
    13   6     0.12  -0.02  -0.00     0.00   0.00  -0.17    -0.05  -0.12   0.00
    14   6    -0.11  -0.05  -0.00    -0.00   0.00  -0.18    -0.21  -0.11   0.00
    15   1     0.23  -0.06   0.00     0.00   0.00   0.28    -0.01   0.14   0.00
    16   1    -0.20  -0.11   0.00    -0.00   0.00   0.30     0.28   0.15   0.00
    17   1     0.19   0.19  -0.00     0.00   0.00  -0.03    -0.02  -0.07   0.00
    18   1    -0.23   0.13   0.00    -0.00  -0.00  -0.05     0.31  -0.04   0.00
    19   1    -0.03   0.28  -0.00    -0.00  -0.00  -0.42     0.19  -0.14  -0.00
    20   1    -0.03   0.28   0.00    -0.00  -0.00   0.42    -0.19   0.14  -0.00
    21   1     0.19   0.19   0.00     0.00   0.00   0.03     0.02   0.07   0.00
    22   1    -0.23   0.13  -0.00    -0.00  -0.00   0.05    -0.31   0.04   0.00
    23   1     0.23  -0.06  -0.00     0.00   0.00  -0.28     0.01  -0.14   0.00
    24   1    -0.20  -0.11  -0.00    -0.00   0.00  -0.30    -0.28  -0.15   0.00
                      7                      8                      9
                      A                      A                      A
 Frequencies --    278.8142               335.9772               367.9850
 Red. masses --      4.1222                 5.3229                 2.3090
 Frc consts  --      0.1888                 0.3540                 0.1842
 IR Inten    --      1.8534                 0.0000                 0.0011
 Raman Activ --      0.0000                 2.0569                 0.0000
 Depolar (P) --      0.5871                 0.5096                 0.7500
 Depolar (U) --      0.7398                 0.6752                 0.8571
  Atom  AN      X      Y      Z        X      Y      Z        X      Y      Z
     1   6     0.00   0.00   0.01     0.06  -0.18  -0.00    -0.00   0.00   0.00
     2   6     0.00   0.00  -0.15     0.21  -0.08   0.00    -0.00  -0.00  -0.12
     3   6     0.00  -0.00  -0.16     0.05  -0.17   0.00     0.00   0.00   0.12
     4   7     0.00   0.00   0.23    -0.02  -0.03  -0.00     0.00   0.00   0.00
     5   6     0.00  -0.00  -0.05     0.22   0.04   0.00    -0.00   0.00   0.12
     6   6     0.00  -0.00  -0.04     0.03  -0.03   0.00    -0.00  -0.00  -0.12
     7   6     0.00   0.00   0.15     0.15   0.07  -0.00    -0.00   0.00   0.00
     8   7    -0.00  -0.00   0.23     0.02   0.03  -0.00    -0.00  -0.00   0.00
     9   6    -0.00  -0.00   0.01    -0.06   0.18  -0.00     0.00  -0.00   0.00
    10   6    -0.00  -0.00   0.15    -0.15  -0.07  -0.00     0.00  -0.00   0.00
    11   6    -0.00   0.00  -0.05    -0.22  -0.04   0.00     0.00  -0.00   0.12
    12   6    -0.00   0.00  -0.04    -0.03   0.03   0.00     0.00   0.00  -0.13
    13   6    -0.00  -0.00  -0.15    -0.21   0.08   0.00     0.00   0.00  -0.12
    14   6    -0.00   0.00  -0.16    -0.05   0.17   0.00    -0.00  -0.00   0.12
    15   1     0.00  -0.00  -0.29     0.33  -0.13   0.00    -0.00  -0.00  -0.33
    16   1     0.00  -0.00  -0.31     0.01  -0.19   0.00     0.00   0.00   0.33
    17   1     0.00  -0.00  -0.10     0.27   0.09   0.00     0.00   0.00   0.32
    18   1     0.00  -0.00  -0.08    -0.10   0.02   0.00    -0.00  -0.00  -0.33
    19   1     0.00   0.00   0.41     0.14   0.16  -0.00    -0.00   0.00   0.01
    20   1    -0.00  -0.00   0.41    -0.14  -0.16  -0.00     0.00  -0.00   0.01
    21   1    -0.00   0.00  -0.10    -0.27  -0.09   0.00    -0.00  -0.00   0.33
    22   1    -0.00   0.00  -0.08     0.10  -0.02   0.00     0.00   0.00  -0.34
    23   1    -0.00   0.00  -0.29    -0.33   0.13   0.00     0.00   0.00  -0.34
    24   1    -0.00   0.00  -0.31    -0.01   0.19   0.00    -0.00  -0.00   0.34
                     10                     11                     12
                      A                      A                      A
 Frequencies --    368.2764               477.5187               531.4017
 Red. masses --      2.3110                 2.6834                 2.5391
 Frc consts  --      0.1847                 0.3605                 0.4225
 IR Inten    --      0.0000                 0.0000                 2.0856
 Raman Activ --      0.1476                 1.4657                 0.0000
 Depolar (P) --      0.7500                 0.7500                 0.5022
 Depolar (U) --      0.8571                 0.8571                 0.6686
  Atom  AN      X      Y      Z        X      Y      Z        X      Y      Z
     1   6     0.00   0.00  -0.00     0.00   0.00   0.18     0.00   0.00   0.11
     2   6     0.00   0.00   0.12     0.00  -0.00   0.01     0.00  -0.00   0.06
     3   6    -0.00  -0.00  -0.12    -0.00  -0.00   0.01    -0.00   0.00   0.06
     4   7     0.00  -0.00  -0.01    -0.00   0.00  -0.05     0.00   0.00  -0.10
     5   6    -0.00  -0.00  -0.12     0.00  -0.00  -0.11     0.00  -0.00  -0.11
     6   6     0.00   0.00   0.13    -0.00  -0.00  -0.11    -0.00  -0.00  -0.11
     7   6    -0.00  -0.00  -0.00     0.00   0.00   0.13    -0.00   0.00   0.12
     8   7     0.00  -0.00   0.01    -0.00   0.00   0.05    -0.00  -0.00  -0.10
     9   6     0.00   0.00   0.00     0.00   0.00  -0.18    -0.00  -0.00   0.11
    10   6     0.00  -0.00   0.00    -0.00   0.00  -0.13     0.00  -0.00   0.12
    11   6    -0.00  -0.00   0.12     0.00  -0.00   0.11    -0.00   0.00  -0.11
    12   6     0.00   0.00  -0.12    -0.00  -0.00   0.11     0.00   0.00  -0.11
    13   6     0.00   0.00  -0.12     0.00  -0.00  -0.01    -0.00   0.00   0.06
    14   6    -0.00  -0.00   0.12    -0.00  -0.00  -0.01     0.00  -0.00   0.06
    15   1     0.00   0.00   0.34     0.00  -0.00  -0.10     0.00  -0.00   0.05
    16   1    -0.00  -0.00  -0.34    -0.00  -0.00  -0.10    -0.00  -0.00   0.05
    17   1    -0.00  -0.00  -0.33     0.00  -0.00  -0.37     0.00  -0.00  -0.40
    18   1     0.00   0.00   0.34    -0.00  -0.00  -0.37    -0.00  -0.00  -0.39
    19   1    -0.00  -0.00  -0.01     0.00   0.00   0.36    -0.00   0.00   0.34
    20   1     0.00  -0.00   0.01    -0.00   0.00  -0.36     0.00  -0.00   0.34
    21   1    -0.00  -0.00   0.32     0.00  -0.00   0.37    -0.00   0.00  -0.40
    22   1     0.00   0.00  -0.32    -0.00  -0.00   0.37     0.00   0.00  -0.39
    23   1     0.00   0.00  -0.33     0.00  -0.00   0.10    -0.00   0.00   0.05
    24   1    -0.00  -0.00   0.33    -0.00  -0.00   0.10     0.00   0.00   0.05
                     13                     14                     15
                      A                      A                      A
 Frequencies --    552.4146               582.3999               639.9000
 Red. masses --      7.3841                 8.4129                 1.9871
 Frc consts  --      1.3276                 1.6813                 0.4794
 IR Inten    --     13.6158                 6.7577                 0.0000
 Raman Activ --      0.0000                 0.0000                13.1765
 Depolar (P) --      0.7254                 0.7500                 0.7500
 Depolar (U) --      0.8408                 0.8571                 0.8571
  Atom  AN      X      Y      Z        X      Y      Z        X      Y      Z
     1   6     0.01  -0.18   0.00     0.23   0.02  -0.00    -0.00   0.00   0.16
     2   6     0.07  -0.17  -0.00    -0.02  -0.18   0.00     0.00   0.00  -0.06
     3   6    -0.02  -0.19  -0.00    -0.06   0.15  -0.00    -0.00   0.00  -0.06
     4   7    -0.06   0.38  -0.00     0.28   0.05  -0.00    -0.00  -0.00  -0.02
     5   6     0.07   0.03   0.00    -0.05  -0.14   0.00     0.00   0.00   0.07
     6   6    -0.07   0.00   0.00    -0.09   0.13  -0.00    -0.00  -0.00   0.06
     7   6     0.00   0.07  -0.00    -0.29  -0.03   0.00     0.00  -0.00  -0.05
     8   7    -0.06   0.38   0.00     0.28   0.05  -0.00     0.00  -0.00   0.02
     9   6     0.01  -0.18  -0.00     0.23   0.02  -0.00    -0.00   0.00  -0.16
    10   6     0.00   0.07   0.00    -0.29  -0.03  -0.00     0.00  -0.00   0.05
    11   6     0.07   0.03  -0.00    -0.05  -0.14  -0.00     0.00   0.00  -0.07
    12   6    -0.07   0.00  -0.00    -0.09   0.13   0.00    -0.00  -0.00  -0.06
    13   6     0.07  -0.17   0.00    -0.02  -0.18  -0.00     0.00   0.00   0.06
    14   6    -0.02  -0.19   0.00    -0.06   0.15   0.00    -0.00   0.00   0.06
    15   1     0.16  -0.20  -0.00    -0.17  -0.11  -0.00    -0.00  -0.00  -0.42
    16   1    -0.08  -0.22  -0.00    -0.18   0.05  -0.00    -0.00  -0.00  -0.42
    17   1     0.18   0.11   0.00     0.10  -0.02   0.00    -0.00  -0.00   0.08
    18   1    -0.21   0.06   0.00     0.06   0.06   0.00     0.00  -0.00   0.08
    19   1    -0.01   0.15  -0.00    -0.28  -0.03  -0.00     0.00  -0.00  -0.30
    20   1    -0.01   0.15   0.00    -0.29  -0.03   0.00    -0.00  -0.00   0.30
    21   1     0.18   0.11  -0.00     0.10  -0.02  -0.00    -0.00  -0.00  -0.08
    22   1    -0.21   0.06  -0.00     0.06   0.06  -0.00     0.00  -0.00  -0.08
    23   1     0.16  -0.20   0.00    -0.17  -0.11   0.00    -0.00  -0.00   0.42
    24   1    -0.08  -0.22   0.00    -0.18   0.05   0.00    -0.00  -0.00   0.42
                     16                     17                     18
                      A                      A                      A
 Frequencies --    653.5869               657.4754               671.7643
 Red. masses --      6.7268                 6.7648                 1.8793
 Frc consts  --      1.6930                 1.7229                 0.4997
 IR Inten    --      0.0000                 0.2694                83.2709
 Raman Activ --     17.9307                 0.0000                 0.0000
 Depolar (P) --      0.7478                 0.7500                 0.7350
 Depolar (U) --      0.8557                 0.8571                 0.8473
  Atom  AN      X      Y      Z        X      Y      Z        X      Y      Z
     1   6    -0.00   0.09  -0.00     0.01  -0.07   0.00     0.00   0.00   0.17
     2   6     0.15   0.17  -0.00    -0.16  -0.16   0.00     0.00  -0.00  -0.03
     3   6    -0.19   0.14  -0.00     0.19  -0.12   0.00    -0.00  -0.00  -0.03
     4   7     0.01   0.00  -0.00     0.01  -0.08   0.00     0.00   0.00  -0.06
     5   6     0.21  -0.16   0.00    -0.21   0.16  -0.00     0.00  -0.00   0.05
     6   6    -0.16  -0.20   0.00     0.17   0.20  -0.00    -0.00   0.00   0.05
     7   6     0.00  -0.10   0.00    -0.01   0.09  -0.00    -0.00  -0.00  -0.02
     8   7    -0.01  -0.00  -0.00     0.01  -0.08  -0.00    -0.00  -0.00  -0.06
     9   6     0.00  -0.09  -0.00     0.01  -0.07  -0.00    -0.00  -0.00   0.17
    10   6    -0.00   0.10   0.00    -0.01   0.09   0.00     0.00   0.00  -0.02
    11   6    -0.21   0.16   0.00    -0.21   0.16   0.00    -0.00   0.00   0.05
    12   6     0.16   0.20   0.00     0.17   0.20   0.00     0.00  -0.00   0.05
    13   6    -0.15  -0.17  -0.00    -0.16  -0.16  -0.00    -0.00   0.00  -0.03
    14   6     0.19  -0.14  -0.00     0.19  -0.12  -0.00     0.00   0.00  -0.03
    15   1     0.06   0.20  -0.00    -0.07  -0.18  -0.00    -0.00  -0.00  -0.43
    16   1    -0.12   0.18  -0.00     0.12  -0.17  -0.00    -0.00  -0.00  -0.43
    17   1     0.12  -0.21   0.00    -0.14   0.20  -0.00     0.00  -0.00  -0.06
    18   1    -0.05  -0.23   0.00     0.08   0.23  -0.00     0.00  -0.00  -0.06
    19   1    -0.03   0.18  -0.00     0.03  -0.20  -0.00    -0.00  -0.00  -0.29
    20   1     0.03  -0.18  -0.00     0.03  -0.20   0.00     0.00   0.00  -0.29
    21   1    -0.12   0.21   0.00    -0.14   0.20   0.00    -0.00   0.00  -0.06
    22   1     0.05   0.23   0.00     0.08   0.23   0.00    -0.00   0.00  -0.06
    23   1    -0.06  -0.20  -0.00    -0.07  -0.18   0.00     0.00   0.00  -0.43
    24   1     0.12  -0.18  -0.00     0.12  -0.17   0.00     0.00   0.00  -0.43
                     19                     20                     21
                      A                      A                      A
 Frequencies --    724.4302               803.1985               819.5760
 Red. masses --      7.0799                 1.2884                 1.4291
 Frc consts  --      2.1891                 0.4897                 0.5656
 IR Inten    --      0.0000                 0.0000               126.7856
 Raman Activ --      7.1937                 0.7625                 0.0000
 Depolar (P) --      0.7235                 0.7500                 0.7063
 Depolar (U) --      0.8396                 0.8571                 0.8279
  Atom  AN      X      Y      Z        X      Y      Z        X      Y      Z
     1   6     0.23  -0.00  -0.00    -0.00  -0.00  -0.08     0.00  -0.00  -0.10
     2   6     0.10  -0.21   0.00     0.00   0.00   0.03     0.00   0.00   0.03
     3   6     0.03   0.10  -0.00    -0.00   0.00   0.03     0.00   0.00   0.03
     4   7     0.14   0.12   0.00    -0.00   0.00   0.01    -0.00  -0.00   0.03
     5   6     0.09  -0.17   0.00     0.00   0.00   0.03     0.00  -0.00   0.04
     6   6     0.01   0.17  -0.00    -0.00   0.00   0.03     0.00   0.00   0.04
     7   6    -0.23  -0.01   0.00     0.00   0.00   0.05    -0.00   0.00   0.05
     8   7    -0.14  -0.12   0.00    -0.00   0.00  -0.01     0.00   0.00   0.03
     9   6    -0.23   0.00  -0.00     0.00  -0.00   0.08    -0.00   0.00  -0.10
    10   6     0.23   0.01  -0.00    -0.00   0.00  -0.05     0.00  -0.00   0.05
    11   6    -0.09   0.17   0.00     0.00   0.00  -0.03    -0.00   0.00   0.04
    12   6    -0.01  -0.17  -0.00    -0.00   0.00  -0.03    -0.00  -0.00   0.04
    13   6    -0.10   0.21   0.00     0.00   0.00  -0.03    -0.00  -0.00   0.03
    14   6    -0.03  -0.10  -0.00     0.00   0.00  -0.03    -0.00  -0.00   0.03
    15   1    -0.03  -0.15   0.00     0.00  -0.00  -0.14    -0.00  -0.00  -0.07
    16   1    -0.13  -0.02   0.00    -0.00  -0.00  -0.14    -0.00  -0.00  -0.07
    17   1     0.32   0.01   0.00    -0.00  -0.00  -0.38     0.00  -0.00  -0.38
    18   1     0.17   0.10   0.00    -0.00  -0.00  -0.38     0.00  -0.00  -0.39
    19   1    -0.22   0.01   0.00    -0.00  -0.00  -0.39    -0.00  -0.00  -0.42
    20   1     0.22  -0.01   0.00    -0.00  -0.00   0.39     0.00   0.00  -0.42
    21   1    -0.32  -0.01   0.00     0.00  -0.00   0.38    -0.00   0.00  -0.38
    22   1    -0.17  -0.10   0.00    -0.00  -0.00   0.38    -0.00   0.00  -0.39
    23   1     0.03   0.15   0.00     0.00  -0.00   0.14     0.00   0.00  -0.07
    24   1     0.13   0.02   0.00    -0.00  -0.00   0.14     0.00   0.00  -0.07
                     22                     23                     24
                      A                      A                      A
 Frequencies --    887.7258               888.3988               941.8369
 Red. masses --      1.2521                 1.2517                 6.5995
 Frc consts  --      0.5814                 0.5821                 3.4492
 IR Inten    --      0.0003                 0.0000                 4.3213
 Raman Activ --      0.0000                12.5511                 0.0000
 Depolar (P) --      0.7428                 0.7500                 0.5536
 Depolar (U) --      0.8525                 0.8571                 0.7127
  Atom  AN      X      Y      Z        X      Y      Z        X      Y      Z
     1   6    -0.00   0.00  -0.00    -0.00   0.00  -0.00     0.07   0.01  -0.00
     2   6    -0.00  -0.00  -0.05    -0.00  -0.00  -0.05    -0.10  -0.03   0.00
     3   6     0.00   0.00   0.05     0.00   0.00   0.05    -0.11   0.01   0.00
     4   7     0.00   0.00   0.00     0.00  -0.00   0.00     0.23   0.03  -0.00
     5   6    -0.00  -0.00  -0.05    -0.00  -0.00  -0.05    -0.16   0.19  -0.00
     6   6     0.00   0.00   0.05     0.00   0.00   0.05    -0.11  -0.23   0.00
     7   6    -0.00   0.00   0.00     0.00   0.00  -0.00     0.20   0.03  -0.00
     8   7    -0.00  -0.00   0.00     0.00  -0.00  -0.00     0.23   0.03   0.00
     9   6     0.00  -0.00  -0.00    -0.00   0.00   0.00     0.07   0.01   0.00
    10   6     0.00  -0.00   0.00     0.00   0.00   0.00     0.20   0.03   0.00
    11   6     0.00   0.00  -0.05    -0.00  -0.00   0.05    -0.16   0.19   0.00
    12   6    -0.00  -0.00   0.05     0.00   0.00  -0.05    -0.11  -0.23  -0.00
    13   6     0.00   0.00  -0.05    -0.00  -0.00   0.05    -0.10  -0.03  -0.00
    14   6    -0.00  -0.00   0.05     0.00   0.00  -0.05    -0.11   0.01  -0.00
    15   1     0.00   0.00   0.34     0.00   0.00   0.34    -0.06  -0.05   0.00
    16   1    -0.00  -0.00  -0.34    -0.00  -0.00  -0.34    -0.04   0.05  -0.00
    17   1     0.00   0.00   0.36     0.00   0.00   0.36    -0.31   0.06  -0.00
    18   1    -0.00  -0.00  -0.36    -0.00  -0.00  -0.36    -0.30  -0.14   0.00
    19   1    -0.00   0.00   0.00     0.00   0.00   0.00     0.18   0.03  -0.00
    20   1     0.00  -0.00   0.00     0.00   0.00  -0.00     0.18   0.03   0.00
    21   1    -0.00  -0.00   0.36     0.00   0.00  -0.36    -0.31   0.06   0.00
    22   1     0.00   0.00  -0.36    -0.00  -0.00   0.36    -0.30  -0.14  -0.00
    23   1    -0.00  -0.00   0.34     0.00   0.00  -0.34    -0.06  -0.05  -0.00
    24   1     0.00   0.00  -0.34    -0.00  -0.00   0.34    -0.04   0.05   0.00
                     25                     26                     27
                      A                      A                      A
 Frequencies --    957.1697               963.4879               988.7608
 Red. masses --      1.5259                 1.5958                 7.6186
 Frc consts  --      0.8237                 0.8728                 4.3884
 IR Inten    --      0.0000                10.0565                 0.0000
 Raman Activ --     16.3041                 0.0000                25.7175
 Depolar (P) --      0.7500                 0.7132                 0.5350
 Depolar (U) --      0.8571                 0.8326                 0.6971
  Atom  AN      X      Y      Z        X      Y      Z        X      Y      Z
     1   6    -0.00   0.00   0.06    -0.00  -0.00  -0.08     0.13   0.04  -0.00
     2   6    -0.00  -0.00  -0.08     0.00   0.00   0.08    -0.06  -0.17   0.00
     3   6    -0.00  -0.00  -0.08     0.00   0.00   0.08    -0.11   0.02   0.00
     4   7    -0.00  -0.00  -0.01    -0.00  -0.00   0.02     0.22   0.21   0.00
     5   6     0.00  -0.00   0.00     0.00  -0.00   0.00    -0.11   0.14   0.00
     6   6     0.00   0.00   0.00     0.00   0.00   0.00    -0.10  -0.21   0.00
     7   6    -0.00   0.00   0.08    -0.00  -0.00  -0.08     0.18   0.05  -0.00
     8   7     0.00  -0.00   0.01     0.00   0.00   0.02    -0.22  -0.21   0.00
     9   6     0.00   0.00  -0.06     0.00   0.00  -0.08    -0.13  -0.04  -0.00
    10   6     0.00   0.00  -0.08     0.00   0.00  -0.08    -0.18  -0.05  -0.00
    11   6    -0.00   0.00  -0.00    -0.00   0.00   0.00     0.11  -0.14   0.00
    12   6    -0.00  -0.00  -0.00    -0.00  -0.00   0.00     0.10   0.21   0.00
    13   6    -0.00  -0.00   0.08    -0.00  -0.00   0.08     0.06   0.17   0.00
    14   6    -0.00  -0.00   0.08    -0.00  -0.00   0.08     0.11  -0.02   0.00
    15   1     0.00   0.00   0.39     0.00  -0.00  -0.39    -0.06  -0.16  -0.00
    16   1     0.00   0.00   0.38     0.00  -0.00  -0.37    -0.12   0.01  -0.00
    17   1    -0.00  -0.00  -0.01     0.00  -0.00  -0.02    -0.08   0.15  -0.00
    18   1     0.00  -0.00  -0.01     0.00   0.00  -0.03    -0.30  -0.12  -0.00
    19   1    -0.00  -0.00  -0.43    -0.00   0.00   0.43     0.16   0.11   0.00
    20   1    -0.00  -0.00   0.43     0.00  -0.00   0.43    -0.16  -0.11   0.00
    21   1    -0.00  -0.00   0.01    -0.00   0.00  -0.02     0.08  -0.15  -0.00
    22   1    -0.00  -0.00   0.01    -0.00  -0.00  -0.03     0.30   0.12  -0.00
    23   1     0.00   0.00  -0.39    -0.00   0.00  -0.39     0.06   0.16  -0.00
    24   1     0.00   0.00  -0.38    -0.00   0.00  -0.37     0.12  -0.01  -0.00
                     28                     29                     30
                      A                      A                      A
 Frequencies --    989.9648               990.2059              1008.1587
 Red. masses --      1.5570                 1.5561                 1.7502
 Frc consts  --      0.8990                 0.8990                 1.0481
 IR Inten    --      0.0127                 0.0000                 0.0000
 Raman Activ --      0.0000                 0.0770                16.9390
 Depolar (P) --      0.5852                 0.7500                 0.7500
 Depolar (U) --      0.7383                 0.8571                 0.8571
  Atom  AN      X      Y      Z        X      Y      Z        X      Y      Z
     1   6     0.00   0.00   0.00    -0.00  -0.00  -0.00    -0.00  -0.00  -0.02
     2   6    -0.00   0.00   0.08    -0.00  -0.00  -0.08     0.00   0.00   0.05
     3   6    -0.00  -0.00  -0.08     0.00   0.00   0.08     0.00   0.00   0.05
     4   7     0.00   0.00  -0.00     0.00  -0.00   0.00    -0.00   0.00   0.00
     5   6    -0.00  -0.00  -0.08     0.00   0.00   0.08    -0.00  -0.00  -0.09
     6   6    -0.00   0.00   0.08    -0.00  -0.00  -0.07    -0.00  -0.00  -0.09
     7   6     0.00   0.00   0.00    -0.00  -0.00  -0.00     0.00   0.00   0.11
     8   7    -0.00  -0.00  -0.00     0.00  -0.00  -0.00     0.00   0.00  -0.00
     9   6    -0.00  -0.00   0.00    -0.00  -0.00   0.00     0.00  -0.00   0.02
    10   6    -0.00  -0.00   0.00    -0.00  -0.00   0.00     0.00   0.00  -0.11
    11   6     0.00   0.00  -0.08     0.00   0.00  -0.08    -0.00  -0.00   0.09
    12   6     0.00  -0.00   0.08    -0.00  -0.00   0.07    -0.00  -0.00   0.09
    13   6     0.00  -0.00   0.08     0.00  -0.00   0.08     0.00   0.00  -0.05
    14   6     0.00   0.00  -0.08     0.00   0.00  -0.08     0.00   0.00  -0.05
    15   1    -0.00  -0.00  -0.35     0.00   0.00   0.36    -0.00  -0.00  -0.17
    16   1     0.00   0.00   0.35    -0.00  -0.00  -0.35    -0.00  -0.00  -0.20
    17   1     0.00   0.00   0.35    -0.00  -0.00  -0.35     0.00   0.00   0.33
    18   1    -0.00  -0.00  -0.33     0.00   0.00   0.32     0.00   0.00   0.35
    19   1     0.00  -0.00  -0.02    -0.00   0.00   0.02    -0.00  -0.00  -0.41
    20   1    -0.00   0.00  -0.02    -0.00   0.00  -0.02    -0.00  -0.00   0.40
    21   1    -0.00  -0.00   0.35    -0.00  -0.00   0.35     0.00   0.00  -0.33
    22   1     0.00   0.00  -0.33     0.00   0.00  -0.32     0.00   0.00  -0.35
    23   1     0.00   0.00  -0.35     0.00   0.00  -0.36    -0.00  -0.00   0.17
    24   1     0.00  -0.00   0.35    -0.00  -0.00   0.35    -0.00  -0.00   0.20
                     31                     32                     33
                      A                      A                      A
 Frequencies --   1008.6954              1111.5352              1112.9081
 Red. masses --      1.7644                 2.5042                 2.3845
 Frc consts  --      1.0577                 1.8229                 1.7401
 IR Inten    --      0.0553                 0.0001                 1.4479
 Raman Activ --      0.0000                 6.5868                 0.0003
 Depolar (P) --      0.7498                 0.3879                 0.3872
 Depolar (U) --      0.8570                 0.5590                 0.5582
  Atom  AN      X      Y      Z        X      Y      Z        X      Y      Z
     1   6    -0.00   0.00   0.03     0.02  -0.02   0.00    -0.01  -0.00   0.00
     2   6     0.00   0.00  -0.05    -0.01  -0.12   0.00     0.01   0.15  -0.00
     3   6     0.00  -0.00  -0.06    -0.05   0.17  -0.00     0.05  -0.15   0.00
     4   7    -0.00  -0.00  -0.01    -0.09  -0.09   0.00     0.08   0.01  -0.00
     5   6     0.00   0.00   0.09    -0.01   0.06  -0.00    -0.01  -0.04   0.00
     6   6     0.00   0.00   0.09     0.01  -0.02   0.00    -0.02   0.04  -0.00
     7   6    -0.00  -0.00  -0.10     0.04  -0.01   0.00    -0.05  -0.00   0.00
     8   7     0.00   0.00  -0.01     0.08   0.09  -0.00     0.09   0.01   0.00
     9   6     0.00  -0.00   0.03    -0.02   0.02   0.00    -0.01  -0.00   0.00
    10   6     0.00   0.00  -0.10    -0.04   0.01   0.00    -0.05  -0.00  -0.00
    11   6    -0.00  -0.00   0.09     0.01  -0.06  -0.00    -0.01  -0.04  -0.00
    12   6    -0.00  -0.00   0.09    -0.01   0.02   0.00    -0.02   0.04   0.00
    13   6    -0.00  -0.00  -0.05     0.01   0.11   0.00     0.01   0.15   0.00
    14   6    -0.00   0.00  -0.06     0.05  -0.17  -0.00     0.05  -0.15  -0.00
    15   1     0.00   0.00   0.19     0.18  -0.19   0.00    -0.13   0.20  -0.00
    16   1     0.00   0.00   0.21     0.04   0.23  -0.00    -0.04  -0.21   0.00
    17   1    -0.00  -0.00  -0.33     0.19   0.20  -0.00    -0.30  -0.26   0.00
    18   1     0.00  -0.00  -0.35     0.44  -0.20   0.00    -0.37   0.18  -0.00
    19   1    -0.00   0.00   0.39     0.05  -0.08   0.00    -0.05   0.01  -0.00
    20   1     0.00  -0.00   0.39    -0.05   0.08   0.00    -0.05   0.01  -0.00
    21   1     0.00   0.00  -0.33    -0.18  -0.19  -0.00    -0.30  -0.26  -0.00
    22   1    -0.00   0.00  -0.35    -0.44   0.20   0.00    -0.38   0.18   0.00
    23   1    -0.00  -0.00   0.19    -0.18   0.19   0.00    -0.13   0.20   0.00
    24   1    -0.00  -0.00   0.21    -0.04  -0.22  -0.00    -0.04  -0.21  -0.00
                     34                     35                     36
                      A                      A                      A
 Frequencies --   1184.7623              1187.0000              1196.5489
 Red. masses --      1.2698                 1.2400                 1.2465
 Frc consts  --      1.0502                 1.0294                 1.0515
 IR Inten    --      5.9838                 0.0000                 0.0000
 Raman Activ --      0.0001                28.7931                32.0051
 Depolar (P) --      0.7453                 0.7444                 0.7376
 Depolar (U) --      0.8541                 0.8535                 0.8490
  Atom  AN      X      Y      Z        X      Y      Z        X      Y      Z
     1   6    -0.00   0.05  -0.00    -0.03   0.04  -0.00    -0.02   0.02  -0.00
     2   6    -0.02  -0.05   0.00    -0.01  -0.02   0.00     0.05   0.03  -0.00
     3   6     0.01  -0.02   0.00     0.03  -0.03   0.00    -0.02  -0.03   0.00
     4   7    -0.01  -0.01   0.00    -0.01  -0.00   0.00     0.02   0.02  -0.00
     5   6     0.01  -0.05   0.00    -0.00  -0.01   0.00    -0.03   0.02  -0.00
     6   6     0.01  -0.02   0.00     0.01  -0.05   0.00     0.01  -0.03   0.00
     7   6     0.02   0.04  -0.00    -0.04   0.03  -0.00    -0.05  -0.00   0.00
     8   7    -0.01  -0.01  -0.00     0.01   0.00   0.00    -0.02  -0.02  -0.00
     9   6    -0.00   0.05   0.00     0.03  -0.04  -0.00     0.02  -0.02  -0.00
    10   6     0.02   0.04   0.00     0.04  -0.03  -0.00     0.05   0.00   0.00
    11   6     0.01  -0.05  -0.00     0.00   0.01   0.00     0.03  -0.02  -0.00
    12   6     0.01  -0.02  -0.00    -0.01   0.05   0.00    -0.01   0.03   0.00
    13   6    -0.02  -0.05  -0.00     0.01   0.02   0.00    -0.05  -0.03  -0.00
    14   6     0.01  -0.01  -0.00    -0.03   0.03   0.00     0.02   0.03   0.00
    15   1    -0.40   0.11  -0.00    -0.21   0.06  -0.00     0.18  -0.02  -0.00
    16   1     0.19   0.12  -0.00     0.31   0.17  -0.00     0.03   0.01  -0.00
    17   1     0.24   0.13  -0.00     0.38   0.28  -0.00     0.25   0.23  -0.00
    18   1    -0.32   0.12  -0.00    -0.06  -0.02   0.00    -0.05  -0.00   0.00
    19   1    -0.01   0.27  -0.00    -0.07   0.29  -0.00     0.02  -0.58   0.00
    20   1    -0.01   0.27   0.00     0.07  -0.29  -0.00    -0.02   0.58   0.00
    21   1     0.24   0.13   0.00    -0.38  -0.28  -0.00    -0.25  -0.23  -0.00
    22   1    -0.32   0.12   0.00     0.06   0.02   0.00     0.05   0.00   0.00
    23   1    -0.40   0.11   0.00     0.22  -0.06  -0.00    -0.18   0.02  -0.00
    24   1     0.19   0.12   0.00    -0.31  -0.17  -0.00    -0.03  -0.01  -0.00
                     37                     38                     39
                      A                      A                      A
 Frequencies --   1197.6050              1198.7890              1200.2239
 Red. masses --      1.1203                 1.8596                 1.5610
 Frc consts  --      0.9467                 1.5745                 1.3249
 IR Inten    --      0.1125                 1.2726                 0.0000
 Raman Activ --      0.0000                 0.0000                19.2970
 Depolar (P) --      0.7467                 0.6821                 0.7439
 Depolar (U) --      0.8550                 0.8110                 0.8532
  Atom  AN      X      Y      Z        X      Y      Z        X      Y      Z
     1   6    -0.00  -0.02   0.00     0.03  -0.02   0.00    -0.02  -0.03   0.00
     2   6    -0.04   0.00  -0.00    -0.03  -0.06   0.00    -0.00   0.06  -0.00
     3   6     0.05  -0.01   0.00    -0.04   0.07  -0.00     0.04  -0.04   0.00
     4   7     0.01  -0.00   0.00    -0.05  -0.00   0.00     0.04   0.04  -0.00
     5   6     0.01   0.01  -0.00     0.04  -0.05   0.00    -0.01   0.06  -0.00
     6   6    -0.02  -0.01   0.00     0.01   0.08  -0.00    -0.03  -0.04   0.00
     7   6    -0.02  -0.01   0.00     0.11   0.00  -0.00    -0.08  -0.03   0.00
     8   7     0.01  -0.00  -0.00    -0.05  -0.00  -0.00    -0.04  -0.04  -0.00
     9   6    -0.00  -0.02  -0.00     0.03  -0.02  -0.00     0.02   0.03  -0.00
    10   6    -0.02  -0.01  -0.00     0.11   0.00   0.00     0.08   0.03   0.00
    11   6     0.01   0.01   0.00     0.04  -0.05  -0.00     0.01  -0.06  -0.00
    12   6    -0.02  -0.01  -0.00     0.01   0.08   0.00     0.03   0.04   0.00
    13   6    -0.04   0.00   0.00    -0.03  -0.06  -0.00     0.00  -0.06  -0.00
    14   6     0.05  -0.01  -0.00    -0.04   0.07   0.00    -0.04   0.04   0.00
    15   1     0.01  -0.02   0.00    -0.15  -0.02   0.00     0.35  -0.08   0.00
    16   1     0.06   0.00  -0.00    -0.30  -0.11   0.00     0.02  -0.07   0.00
    17   1    -0.15  -0.10   0.00    -0.38  -0.37   0.00    -0.07   0.02  -0.00
    18   1     0.26  -0.13   0.00    -0.15   0.15  -0.00     0.45  -0.24   0.00
    19   1    -0.09   0.60  -0.00     0.10   0.07  -0.00    -0.11   0.26  -0.00
    20   1    -0.09   0.60   0.00     0.10   0.08   0.00     0.11  -0.26  -0.00
    21   1    -0.15  -0.10  -0.00    -0.38  -0.37  -0.00     0.07  -0.02  -0.00
    22   1     0.26  -0.13  -0.00    -0.15   0.15   0.00    -0.45   0.24   0.00
    23   1     0.01  -0.02  -0.00    -0.15  -0.02  -0.00    -0.35   0.08   0.00
    24   1     0.06   0.00   0.00    -0.30  -0.11  -0.00    -0.02   0.07   0.00
                     40                     41                     42
                      A                      A                      A
 Frequencies --   1256.7806              1257.0507              1331.9898
 Red. masses --      1.0543                 1.0511                 1.3744
 Frc consts  --      0.9811                 0.9786                 1.4367
 IR Inten    --      5.5871                 0.0035                 0.5653
 Raman Activ --      0.0224                35.8974                 0.0165
 Depolar (P) --      0.4020                 0.4043                 0.6360
 Depolar (U) --      0.5734                 0.5758                 0.7775
  Atom  AN      X      Y      Z        X      Y      Z        X      Y      Z
     1   6     0.01  -0.01   0.00    -0.01   0.01  -0.00     0.00   0.01  -0.00
     2   6    -0.01   0.02  -0.00     0.01  -0.02   0.00    -0.07   0.03  -0.00
     3   6    -0.01  -0.02   0.00     0.01   0.02  -0.00     0.06   0.04  -0.00
     4   7     0.00   0.00   0.00     0.00  -0.00   0.00    -0.00  -0.00   0.00
     5   6     0.01   0.01  -0.00    -0.01  -0.01   0.00     0.00  -0.01   0.00
     6   6    -0.00   0.00  -0.00    -0.00  -0.00   0.00    -0.00  -0.00   0.00
     7   6     0.02   0.00  -0.00    -0.02  -0.00   0.00     0.01  -0.08   0.00
     8   7     0.00   0.00  -0.00    -0.00   0.00   0.00    -0.00  -0.00  -0.00
     9   6     0.01  -0.01  -0.00     0.01  -0.01  -0.00     0.00   0.01   0.00
    10   6     0.02   0.00   0.00     0.02   0.00   0.00     0.01  -0.08  -0.00
    11   6     0.00   0.01   0.00     0.01   0.01   0.00     0.00  -0.00  -0.00
    12   6    -0.00   0.00   0.00     0.00   0.00   0.00    -0.00  -0.00  -0.00
    13   6    -0.01   0.02   0.00    -0.01   0.02   0.00    -0.07   0.03   0.00
    14   6    -0.01  -0.02  -0.00    -0.01  -0.02  -0.00     0.06   0.04   0.00
    15   1    -0.39   0.18  -0.00     0.37  -0.17   0.00     0.29  -0.12   0.00
    16   1    -0.34  -0.26   0.00     0.32   0.24  -0.00    -0.32  -0.23   0.00
    17   1     0.17   0.14  -0.00    -0.17  -0.13   0.00     0.28   0.20  -0.00
    18   1     0.30  -0.13   0.00    -0.28   0.12  -0.00    -0.29   0.12  -0.00
    19   1     0.03  -0.04   0.00    -0.03   0.04  -0.00    -0.02   0.16  -0.00
    20   1     0.02  -0.04  -0.00     0.03  -0.04  -0.00    -0.02   0.16   0.00
    21   1     0.17   0.13   0.00     0.18   0.14   0.00     0.27   0.20   0.00
    22   1     0.28  -0.12  -0.00     0.30  -0.12  -0.00    -0.28   0.11   0.00
    23   1    -0.37   0.17   0.00    -0.39   0.18   0.00     0.28  -0.11  -0.00
    24   1    -0.32  -0.25  -0.00    -0.34  -0.26  -0.00    -0.31  -0.23  -0.00
                     43                     44                     45
                      A                      A                      A
 Frequencies --   1332.3590              1368.5507              1373.4658
 Red. masses --      1.4133                 3.8637                 3.2979
 Frc consts  --      1.4782                 4.2636                 3.6654
 IR Inten    --      0.0001                 0.0001                 8.0957
 Raman Activ --     70.6107               406.2143                 0.0036
 Depolar (P) --      0.6283                 0.3618                 0.3566
 Depolar (U) --      0.7717                 0.5314                 0.5257
  Atom  AN      X      Y      Z        X      Y      Z        X      Y      Z
     1   6     0.01  -0.00   0.00     0.15  -0.13   0.00    -0.02   0.15  -0.00
     2   6     0.08  -0.02   0.00    -0.06   0.06  -0.00     0.10  -0.04   0.00
     3   6    -0.05  -0.05   0.00     0.14   0.05  -0.00    -0.09  -0.07   0.00
     4   7     0.01   0.00  -0.00    -0.03  -0.02   0.00     0.00   0.00   0.00
     5   6    -0.01   0.01  -0.00     0.07   0.14  -0.00    -0.12  -0.09   0.00
     6   6     0.00  -0.01   0.00    -0.15  -0.02   0.00     0.14  -0.05   0.00
     7   6    -0.02   0.08  -0.00    -0.05  -0.10   0.00    -0.01   0.10  -0.00
     8   7    -0.01  -0.00  -0.00     0.03   0.02   0.00     0.00   0.00  -0.00
     9   6    -0.01   0.00   0.00    -0.15   0.13   0.00    -0.02   0.15   0.00
    10   6     0.02  -0.08  -0.00     0.05   0.10   0.00    -0.01   0.10   0.00
    11   6     0.01  -0.01  -0.00    -0.07  -0.14  -0.00    -0.12  -0.09  -0.00
    12   6    -0.00   0.01   0.00     0.14   0.02   0.00     0.14  -0.05  -0.00
    13   6    -0.08   0.02   0.00     0.06  -0.06  -0.00     0.10  -0.04  -0.00
    14   6     0.05   0.05   0.00    -0.13  -0.05  -0.00    -0.10  -0.07  -0.00
    15   1    -0.28   0.12  -0.00    -0.35   0.18  -0.00     0.33  -0.12   0.00
    16   1     0.31   0.21  -0.00     0.28   0.15  -0.00    -0.34  -0.25   0.00
    17   1    -0.29  -0.20   0.00    -0.06   0.05  -0.00    -0.05  -0.03   0.00
    18   1     0.27  -0.12   0.00    -0.22   0.01   0.00     0.09  -0.03   0.00
    19   1     0.01  -0.16   0.00    -0.04  -0.25   0.00    -0.03   0.28  -0.00
    20   1    -0.01   0.16   0.00     0.04   0.25   0.00    -0.03   0.28   0.00
    21   1     0.30   0.20   0.00     0.06  -0.05  -0.00    -0.05  -0.04  -0.00
    22   1    -0.28   0.13   0.00     0.22  -0.01   0.00     0.09  -0.03  -0.00
    23   1     0.29  -0.12  -0.00     0.34  -0.18  -0.00     0.33  -0.13  -0.00
    24   1    -0.32  -0.22  -0.00    -0.28  -0.15  -0.00    -0.35  -0.25  -0.00
                     46                     47                     48
                      A                      A                      A
 Frequencies --   1410.1297              1451.8071              1565.9208
 Red. masses --      4.6158                 4.8695                 4.5341
 Frc consts  --      5.4078                 6.0471                 6.5505
 IR Inten    --      0.0000                64.7353                25.7770
 Raman Activ --   1126.6992                 0.0002                 0.0000
 Depolar (P) --      0.2771                 0.2758                 0.6787
 Depolar (U) --      0.4340                 0.4324                 0.8086
  Atom  AN      X      Y      Z        X      Y      Z        X      Y      Z
     1   6     0.21   0.09  -0.00     0.22   0.03  -0.00    -0.02   0.20  -0.00
     2   6     0.14   0.02  -0.00     0.12  -0.02   0.00    -0.13  -0.09   0.00
     3   6     0.02  -0.01   0.00     0.11   0.05  -0.00     0.14  -0.06   0.00
     4   7    -0.10  -0.11   0.00    -0.17  -0.02   0.00     0.00  -0.02   0.00
     5   6    -0.15   0.05  -0.00    -0.03   0.14  -0.00     0.15  -0.03   0.00
     6   6     0.10  -0.14   0.00     0.00  -0.15   0.00    -0.15  -0.06   0.00
     7   6    -0.10   0.03  -0.00    -0.13  -0.01   0.00    -0.02   0.16  -0.00
     8   7     0.10   0.11   0.00    -0.17  -0.02  -0.00     0.00  -0.02  -0.00
     9   6    -0.21  -0.09  -0.00     0.22   0.03   0.00    -0.02   0.20   0.00
    10   6     0.10  -0.03  -0.00    -0.13  -0.01  -0.00    -0.02   0.16   0.00
    11   6     0.15  -0.05  -0.00    -0.03   0.14   0.00     0.15  -0.03  -0.00
    12   6    -0.10   0.14   0.00     0.00  -0.15  -0.00    -0.15  -0.06  -0.00
    13   6    -0.14  -0.02  -0.00     0.12  -0.02  -0.00    -0.13  -0.09  -0.00
    14   6    -0.02   0.01   0.00     0.11   0.05   0.00     0.14  -0.06  -0.00
    15   1     0.05   0.06  -0.00    -0.19   0.12  -0.00     0.15  -0.19   0.00
    16   1    -0.30  -0.25   0.00    -0.16  -0.17   0.00    -0.09  -0.22   0.00
    17   1    -0.18   0.03  -0.00    -0.32  -0.07   0.00    -0.08  -0.20   0.00
    18   1    -0.26   0.00   0.00    -0.31  -0.02   0.00     0.14  -0.18   0.00
    19   1    -0.13   0.24  -0.00    -0.14  -0.02   0.00     0.05  -0.36   0.00
    20   1     0.13  -0.24  -0.00    -0.14  -0.02  -0.00     0.05  -0.36  -0.00
    21   1     0.18  -0.03  -0.00    -0.32  -0.07  -0.00    -0.08  -0.20  -0.00
    22   1     0.26  -0.00   0.00    -0.31  -0.02  -0.00     0.14  -0.18  -0.00
    23   1    -0.05  -0.06  -0.00    -0.19   0.12   0.00     0.15  -0.19  -0.00
    24   1     0.30   0.25   0.00    -0.16  -0.17  -0.00    -0.09  -0.22  -0.00
                     49                     50                     51
                      A                      A                      A
 Frequencies --   1575.9766              1601.6089              1626.3873
 Red. masses --      4.4341                 4.6963                 5.4496
 Frc consts  --      6.4887                 7.0977                 8.4930
 IR Inten    --      0.0000                 0.0000                 1.2674
 Raman Activ --     17.2449               886.0935                 0.0005
 Depolar (P) --      0.6286                 0.3294                 0.3179
 Depolar (U) --      0.7719                 0.4956                 0.4825
  Atom  AN      X      Y      Z        X      Y      Z        X      Y      Z
     1   6     0.06  -0.18   0.00    -0.22  -0.08   0.00     0.29   0.03  -0.00
     2   6     0.08   0.11  -0.00     0.13  -0.08   0.00    -0.07   0.11  -0.00
     3   6    -0.16   0.00   0.00     0.02   0.13  -0.00    -0.05  -0.12   0.00
     4   7     0.04   0.03  -0.00     0.06   0.04  -0.00    -0.12  -0.01   0.00
     5   6    -0.16  -0.01   0.00     0.05   0.14  -0.00    -0.11  -0.12   0.00
     6   6     0.09   0.11  -0.00     0.14  -0.07   0.00    -0.13   0.09  -0.00
     7   6     0.06  -0.15   0.00    -0.11  -0.08   0.00     0.11   0.02  -0.00
     8   7    -0.04  -0.03  -0.00    -0.06  -0.04  -0.00    -0.12  -0.01  -0.00
     9   6    -0.06   0.18   0.00     0.22   0.08   0.00     0.29   0.03   0.00
    10   6    -0.06   0.15   0.00     0.11   0.08   0.00     0.11   0.02   0.00
    11   6     0.16   0.01   0.00    -0.05  -0.14  -0.00    -0.11  -0.12  -0.00
    12   6    -0.09  -0.11  -0.00    -0.14   0.06   0.00    -0.13   0.09   0.00
    13   6    -0.08  -0.11  -0.00    -0.13   0.08   0.00    -0.07   0.11   0.00
    14   6     0.16  -0.00   0.00    -0.02  -0.13  -0.00    -0.05  -0.12  -0.00
    15   1    -0.04   0.15  -0.00    -0.34   0.11  -0.00     0.29  -0.03   0.00
    16   1     0.21   0.27  -0.00    -0.24  -0.06   0.00     0.29   0.13  -0.00
    17   1     0.16   0.22  -0.00    -0.20  -0.05   0.00     0.20   0.12  -0.00
    18   1    -0.01   0.15  -0.00    -0.26   0.11  -0.00     0.22  -0.06   0.00
    19   1     0.00   0.33  -0.00    -0.12   0.08  -0.00     0.11   0.02  -0.00
    20   1    -0.00  -0.33  -0.00     0.12  -0.08  -0.00     0.11   0.02   0.00
    21   1    -0.16  -0.22  -0.00     0.20   0.05   0.00     0.20   0.12   0.00
    22   1     0.02  -0.15  -0.00     0.26  -0.11  -0.00     0.22  -0.06  -0.00
    23   1     0.04  -0.15  -0.00     0.34  -0.11  -0.00     0.29  -0.03  -0.00
    24   1    -0.21  -0.27  -0.00     0.23   0.06   0.00     0.30   0.13   0.00
                     52                     53                     54
                      A                      A                      A
 Frequencies --   1745.2008              1751.7986              1766.6012
 Red. masses --     10.4748                10.6769                10.6045
 Frc consts  --     18.7968                19.3047                19.4993
 IR Inten    --      2.0686                 0.0000                 0.0000
 Raman Activ --      0.0002                 6.9201              2016.7050
 Depolar (P) --      0.4658                 0.7499                 0.3856
 Depolar (U) --      0.6355                 0.8571                 0.5566
  Atom  AN      X      Y      Z        X      Y      Z        X      Y      Z
     1   6     0.04  -0.32   0.00     0.02  -0.35   0.00    -0.14  -0.04   0.00
     2   6    -0.13   0.16  -0.00    -0.14   0.16  -0.00     0.29  -0.03   0.00
     3   6     0.09   0.19  -0.00     0.06   0.19  -0.00     0.29   0.13  -0.00
     4   7     0.00   0.01  -0.00     0.04   0.05  -0.00     0.05  -0.04   0.00
     5   6    -0.05  -0.21   0.00    -0.04  -0.19   0.00    -0.29  -0.15   0.00
     6   6     0.11  -0.19   0.00     0.14  -0.19   0.00    -0.31   0.05  -0.00
     7   6    -0.05   0.38  -0.00    -0.06   0.36  -0.00     0.13   0.04  -0.00
     8   7     0.00   0.01   0.00    -0.04  -0.05  -0.00    -0.05   0.04  -0.00
     9   6     0.04  -0.32  -0.00    -0.02   0.35   0.00     0.14   0.04   0.00
    10   6    -0.05   0.38   0.00     0.06  -0.37  -0.00    -0.13  -0.04  -0.00
    11   6    -0.05  -0.21  -0.00     0.04   0.19   0.00     0.29   0.15   0.00
    12   6     0.11  -0.19  -0.00    -0.14   0.19   0.00     0.31  -0.05  -0.00
    13   6    -0.13   0.16   0.00     0.14  -0.16  -0.00    -0.29   0.03   0.00
    14   6     0.09   0.19   0.00    -0.06  -0.19  -0.00    -0.29  -0.13  -0.00
    15   1     0.09   0.04  -0.00     0.07   0.05  -0.00    -0.07   0.10  -0.00
    16   1    -0.12   0.01   0.00    -0.11   0.04  -0.00    -0.05  -0.10   0.00
    17   1     0.09  -0.06   0.00     0.09  -0.06   0.00     0.06   0.10  -0.00
    18   1    -0.08  -0.08   0.00    -0.09  -0.06   0.00     0.07  -0.09   0.00
    19   1     0.01  -0.14   0.00     0.00  -0.13   0.00     0.11   0.01  -0.00
    20   1     0.01  -0.14  -0.00    -0.00   0.13   0.00    -0.11  -0.01  -0.00
    21   1     0.09  -0.06  -0.00    -0.09   0.06   0.00    -0.06  -0.10  -0.00
    22   1    -0.08  -0.08  -0.00     0.09   0.06   0.00    -0.07   0.09   0.00
    23   1     0.09   0.04   0.00    -0.07  -0.05  -0.00     0.06  -0.10  -0.00
    24   1    -0.12   0.01  -0.00     0.11  -0.04  -0.00     0.05   0.10   0.00
                     55                     56                     57
[...]
 0.09217982,0.10945209,-0.00497655,-0.00310906,0.00037761,-0.00002839,0
 .00040774,0.00004904,0.00000098,0.00729446,-0.01480577,0.00063207,-0.0
 0175456,-0.00155931,0.00001008,-0.00452098,-0.00261943,0.00007931,0.00
 036431,-0.00000931,0.00000103,0.00000941,0.00000573,-0.00000018,0.0000
 0032,0.00001936,-0.00000054,0.00002954,0.00002136,-0.00000051,0.000063
 65,-0.00002801,0.00000177,0.00000003,0.00012545,-0.00000532,-0.0001708
 9,0.00062253,-0.00002619,0.12168971,0.01033166,-0.00352845,0.00050813,
 -0.00030885,0.00043955,0.00019450,0.10914596,-0.25674261,0.00979487,0.
 00016919,0.00079502,-0.00009149,-0.00036530,0.00021223,-0.00001208,0.0
 0374219,-0.03714402,0.00186516,-0.00196110,-0.00192855,0.00031596,-0.0
 0154852,-0.00066144,0.00000690,0.00008103,-0.00006325,0.00001488,-0.00
 003884,0.00000666,-0.00000055,0.00007242,0.00001787,-0.00000184,0.0000
 4104,-0.00008019,0.00000266,-0.00007508,-0.00001728,-0.00000052,0.0001
 0670,0.00002951,-0.00000036,0.00000683,0.00009659,-0.00001188,-0.11910
 337,0.29942378,-0.00066804,0.00064631,0.00668563,-0.00004928,0.0001908
 9,0.00508951,-0.00496367,0.00979712,-0.04413814,-0.00001961,-0.0000900
 0,-0.00139632,0.00001849,-0.00000905,-0.00001016,-0.00015132,0.0017298
 3,0.00629609,0.00002704,0.00031891,0.00587787,0.00003403,-0.00000094,-
 0.00023056,-0.00000275,0.00001423,0.00027459,0.00000171,-0.00000023,0.
 00000020,-0.00000278,-0.00000222,-0.00003799,-0.00000134,0.00000252,-0
 .00002422,0.00000376,-0.00000018,-0.00001679,-0.00000452,-0.00000021,0
 .00000269,-0.00000018,-0.00000739,-0.00018546,0.00574310,-0.01250159,0
 .02457272,-0.00177586,-0.00145277,0.00000504,0.00726604,-0.01543854,0.
 00066600,0.00024444,-0.00012203,0.00000623,0.00049415,-0.00051555,0.00
 002684,-0.08824683,0.10627873,-0.00482458,-0.00367481,-0.00068259,-0.0
 0003816,-0.02519207,0.03016227,-0.00149943,-0.00016208,-0.00004894,0.0
 0000163,0.00000447,-0.00005267,0.00000206,-0.00000584,-0.00000501,0.00
 000018,-0.00000703,-0.00001173,0.00000049,-0.00000771,-0.00001037,0.00
 000043,-0.00004461,-0.00000816,0.,0.00001214,-0.00002795,0.00000131,0.
 00011539,-0.00065480,0.00003989,-0.00001697,0.00003605,0.00000480,0.11
 175458,-0.00227055,-0.00136918,0.00029233,0.00337369,-0.03763406,0.001
 84046,-0.00012543,0.00025332,-0.00000749,0.00036458,-0.00059620,0.0000
 1937,0.10620627,-0.26165771,0.01004268,-0.00002437,0.00040379,0.000215
 35,0.01131085,-0.00484110,0.00052828,-0.00028725,-0.00006941,-0.000003
 42,0.00009663,-0.00002951,0.00000307,0.00000726,0.00000660,-0.00000026
 ,0.00001651,0.00000202,-0.00000024,0.00000384,0.00001397,-0.00000086,0
 .00000644,-0.00001434,0.00000075,-0.00000154,0.00002386,-0.00000127,-0
 .00044223,-0.00030457,-0.00005630,0.00004564,-0.00009575,-0.00003295,-
 0.11826572,0.30545274,0.00003958,0.00029829,0.00593181,-0.00012857,0.0
 0170323,0.00528499,0.00000637,-0.00000747,0.00009796,-0.00001033,0.000
 01295,-0.00020116,-0.00482153,0.01004319,-0.04269132,-0.00006596,0.000
 21055,0.00549715,-0.00070320,0.00066582,0.00567954,0.00001168,-0.00000
 169,-0.00010075,-0.00000424,0.00000199,0.00002649,-0.00000034,-0.00000
 035,-0.00000089,-0.00000070,-0.00000044,-0.00000637,-0.00000017,-0.000
 00096,-0.00000697,-0.00000061,0.00000065,0.00000235,0.00000020,-0.0000
 0146,-0.00000584,0.00003091,-0.00005785,-0.00155851,0.00000440,-0.0000
 3302,-0.00088242,0.00563494,-0.01274786,0.02464173,-0.00003439,-0.0017
 1996,0.00002982,0.00033285,-0.00010328,0.00000583,-0.02810809,-0.00992
 934,0.00017383,-0.00060073,-0.00010347,0.00000209,0.00010079,0.0013858
 7,-0.00009855,-0.31071363,0.02267554,-0.00291542,-0.02106705,0.0128276
 0,-0.00073723,-0.00000456,0.00005895,-0.00000200,0.00003328,0.00001451
 ,-0.00000062,0.00001047,0.00000608,-0.00000017,0.00000296,0.00000619,-
 0.00000019,0.00000064,0.00002578,-0.00000104,0.00003005,0.00000099,0.0
 0000022,-0.00001458,0.00002497,-0.00000117,-0.00011316,0.00000333,0.00
 000562,0.00010808,-0.00045772,0.00003136,-0.00021494,0.00002867,-0.000
 00053,0.35998040,-0.00079000,-0.00282551,0.00035999,-0.00007914,0.0001
 6594,-0.00000201,-0.02880548,-0.00233314,0.00012276,-0.00101175,-0.000
 17387,-0.00001217,0.00074151,-0.00338189,0.00038418,0.02266513,-0.0396
 8881,0.00005212,0.03173820,-0.00896644,0.00085194,0.00020819,0.0001880
 7,-0.00000950,-0.00007159,-0.00001151,0.00000140,-0.00000633,-0.000000
 76,-0.00000005,0.00000733,-0.00000540,-0.00000002,-0.00000397,-0.00001
 559,0.00000037,-0.00002413,-0.00000007,-0.00000042,0.00001206,-0.00002
 545,0.00000119,-0.00000412,-0.00000487,-0.00003797,-0.00068852,-0.0003
 1748,-0.00005669,0.00063739,0.00003573,-0.00000988,-0.02500433,0.05773
 695,-0.00000947,0.00035323,0.00581950,0.00000481,-0.00000219,0.0001322
 3,0.00097110,0.00026048,0.00554501,0.00004046,-0.00000556,-0.00028707,
 -0.00007132,0.00038888,0.00556903,-0.00291497,0.00005218,-0.04239322,-
 0.00153596,0.00071399,0.00568079,-0.00000830,-0.00001057,-0.00007206,0
 .00000302,0.00000202,0.00003378,0.00000035,0.00000004,-0.00000090,-0.0
 0000024,-0.00000003,-0.00000723,0.00000022,0.00000058,-0.00000626,0.00
 000128,-0.00000024,-0.00000578,-0.00000062,0.00000128,0.00000054,0.000
 00594,-0.00003792,-0.00090162,0.00004111,-0.00005501,-0.00153818,-0.00
 002624,-0.00001432,-0.00030780,0.00350672,-0.00160443,0.02416220,0.000
 35238,0.00027163,-0.00001272,-0.00350182,0.00102429,-0.00010983,-0.001
 07363,0.00157224,-0.00011582,-0.00014699,-0.00020494,0.00001452,-0.030
 70308,-0.02571405,0.00081869,0.00801668,0.00793418,-0.00032014,-0.1271
 7346,-0.12869210,0.00482263,-0.00009055,-0.00000753,0.00000160,0.00005
 942,0.00000461,-0.00000118,0.00000843,0.00000717,-0.00000024,0.0000128
 7,0.00000481,0.00000002,0.00000423,0.00001614,-0.00000056,0.00002676,-
 0.00000739,0.00000049,-0.00001236,0.00002788,-0.00000122,-0.00029918,-
 0.00056898,0.00002491,0.00025388,0.00024244,-0.00000515,-0.00056026,-0
 .00002248,0.00000729,0.00026640,0.00048733,-0.00000805,0.15457104,0.00
 038974,0.00052674,0.00000268,0.00066476,-0.00006709,0.00024516,0.00190
 142,-0.00251197,0.00036071,-0.00020151,-0.00032634,-0.00002779,-0.0066
 7821,0.00127264,0.00014868,-0.01113642,-0.03732163,0.00174703,-0.12866
 865,-0.22430232,0.00671207,-0.00015052,0.00001344,-0.00001293,0.000055
 00,0.00001512,0.00000799,0.00001438,0.00000927,-0.00000030,0.00001241,
 0.00000555,-0.00000090,0.00000112,0.00002973,-0.00000176,0.00003891,-0
 .00000654,0.00000066,-0.00002413,0.00003043,-0.00000174,0.00004146,0.0
 0012630,-0.00002277,-0.00035668,-0.00040741,-0.00000416,0.00017953,0.0
 0043906,-0.00007758,0.00029067,-0.00038221,-0.00004305,0.14363599,0.26
 287855,-0.00001772,0.00000185,0.00052300,-0.00009465,0.00024778,0.0056
 1134,-0.00012972,0.00035830,0.00568364,0.00001438,-0.00002783,-0.00094
 835,0.00001469,0.00000980,0.00594607,0.00048533,0.00188615,0.00588871,
 0.00482164,0.00671191,-0.04341067,0.00000762,-0.00001188,-0.00026597,-
 0.00000330,0.00000761,0.00019430,-0.00000054,-0.00000035,-0.00000024,-
 0.00000030,-0.00000095,-0.00001783,0.00000007,-0.00000166,-0.00001219,
 -0.00000146,0.00000032,0.00000228,0.00000098,-0.00000137,-0.00000665,-
 0.00000087,-0.00002723,-0.00041892,0.00002016,0.00000021,-0.00044420,-
 0.00000125,-0.00007906,-0.00142551,0.00000026,-0.00004162,-0.00144993,
 -0.00511545,-0.00903390,0.02452553,0.00005943,0.00000460,-0.00000117,0
 .00002676,-0.00000739,0.00000049,-0.00001236,0.00002789,-0.00000122,-0
 .00009056,-0.00000752,0.00000159,0.00001287,0.00000481,0.00000002,0.00
 000423,0.00001615,-0.00000056,0.00000843,0.00000717,-0.00000024,-0.000
 14702,-0.00020497,0.00001445,0.00035244,0.00027166,-0.00001270,-0.1271
 9843,-0.12870120,0.00482437,-0.03070573,-0.02571101,0.00082002,0.00801
 633,0.00792995,-0.00031988,-0.00350167,0.00102458,-0.00010928,-0.00107
 334,0.00157215,-0.00011538,0.00000905,-0.00000903,0.00000039,-0.000010
 62,0.00001169,-0.00000064,0.00000618,-0.00000683,0.00000031,-0.0000080
 5,0.00000406,-0.00000025,-0.00000745,-0.00001115,0.00000039,0.15459842
 ,0.00005499,0.00001511,0.00000797,0.00003891,-0.00000653,0.00000066,-0
 .00002413,0.00003042,-0.00000174,-0.00015051,0.00001346,-0.00001290,0.
 00001240,0.00000555,-0.00000090,0.00000112,0.00002973,-0.00000176,0.00
 001438,0.00000927,-0.00000030,-0.00020152,-0.00032633,-0.00002778,0.00
 038977,0.00052672,0.00000268,-0.12867795,-0.22427722,0.00671369,-0.006
 67503,0.00127573,0.00014884,-0.01114058,-0.03732119,0.00174650,0.00066
 510,-0.00006729,0.00024499,0.00190130,-0.00251237,0.00036039,0.0000192
 2,-0.00000776,0.00000080,-0.00001473,0.00000723,-0.00000002,0.00000885
 ,-0.00000968,0.00000059,-0.00001126,0.00000459,-0.00000015,-0.00001115
 ,-0.00001563,0.00000073,0.14364608,0.26285054,-0.00000331,0.00000761,0
 .00019428,-0.00000147,0.00000032,0.00000228,0.00000098,-0.00000137,-0.
 00000664,0.00000766,-0.00001187,-0.00026594,-0.00000030,-0.00000095,-0
 .00001783,0.00000007,-0.00000166,-0.00001219,-0.00000054,-0.00000035,-
 0.00000025,0.00001430,-0.00002778,-0.00094837,-0.00001768,0.00000180,0
 .00052298,0.00482339,0.00671352,-0.04341084,0.00001650,0.00001107,0.00
 594593,0.00048510,0.00188451,0.00588871,-0.00009411,0.00024759,0.00561
 146,-0.00012928,0.00035801,0.00568362,-0.00000080,0.00000059,0.0000077
 7,0.00000048,0.00000017,0.00000922,-0.00000035,0.00000048,0.00000280,0
 .00000040,-0.00000004,0.00000290,0.00000039,0.00000073,0.00000354,-0.0
 0511954,-0.00903476,0.02452577,0.00000448,-0.00005266,0.00000207,-0.00
 004461,-0.00000817,0.,0.00001214,-0.00002795,0.00000131,-0.00016209,-0
 .00004895,0.00000162,-0.00000702,-0.00001173,0.00000049,-0.00000771,-0
 .00001037,0.00000043,-0.00000584,-0.00000501,0.00000018,0.00049413,-0.
 00051560,0.00002680,-0.00177618,-0.00145278,0.00000544,-0.02518841,0.0
 3016395,-0.00149685,-0.08823076,0.10626540,-0.00481833,-0.00367485,-0.
 00068221,-0.00003765,0.00726506,-0.01544212,0.00066562,0.00024441,-0.0
 0012203,0.00000621,-0.00000743,0.00000659,-0.00000037,0.00001629,-0.00
 001079,0.00000049,-0.00000623,0.00000372,-0.00000022,0.00000883,-0.000
 00570,0.00000028,0.00000618,0.00000885,-0.00000035,-0.00056015,0.00017
 959,-0.00000129,0.11173614,0.00009663,-0.00002951,0.00000307,0.0000064
 4,-0.00001433,0.00000075,-0.00000154,0.00002387,-0.00000127,-0.0002872
 3,-0.00006940,-0.00000342,0.00001651,0.00000202,-0.00000023,0.00000384
 ,0.00001397,-0.00000086,0.00000726,0.00000660,-0.00000026,0.00036450,-
 0.00059619,0.00001934,-0.00227054,-0.00136891,0.00029225,0.01131239,-0
 .00484451,0.00052748,0.10619311,-0.26167441,0.01003115,-0.00002403,0.0
 0040382,0.00021521,0.00337005,-0.03763332,0.00183904,-0.00012541,0.000
 25335,-0.00000749,0.00000047,-0.00000872,0.00000061,-0.00000927,0.0000
 0255,0.00000031,0.00000372,-0.00000657,0.00000040,-0.00000892,0.000003
 32,-0.00000004,-0.00000683,-0.00000968,0.00000048,-0.00002239,0.000439
 04,-0.00007901,-0.11825082,0.30547175,-0.00000424,0.00000199,0.0000264
 8,-0.00000061,0.00000065,0.00000235,0.00000020,-0.00000146,-0.00000584
 ,0.00001169,-0.00000168,-0.00010075,-0.00000070,-0.00000044,-0.0000063
 7,-0.00000017,-0.00000096,-0.00000697,-0.00000034,-0.00000035,-0.00000
 089,-0.00001036,0.00001297,-0.00020117,0.00003996,0.00029817,0.0059318
 3,-0.00070114,0.00066392,0.00567956,-0.00481527,0.01003168,-0.04269044
 ,-0.00006543,0.00021044,0.00549726,-0.00012845,0.00170288,0.00528513,0
 .00000636,-0.00000745,0.00009792,-0.00000011,0.00000065,0.00000551,0.0
 0000043,0.00000030,0.00001148,-0.00000022,0.00000040,0.00000235,0.0000
 0041,-0.00000002,0.00000393,0.00000031,0.00000059,0.00000280,0.0000072
 3,-0.00007755,-0.00142553,0.00562584,-0.01273402,0.02464062,0.00003328
 ,0.00001450,-0.00000062,0.00003005,0.00000100,0.00000022,-0.00001457,0
 .00002497,-0.00000116,-0.00000453,0.00005898,-0.00000199,0.00000296,0.
 00000619,-0.00000019,0.00000064,0.00002578,-0.00000104,0.00001047,0.00
 000608,-0.00000017,-0.00060085,-0.00010347,0.00000209,-0.00003466,-0.0
 0172020,0.00003014,-0.02106297,0.01282869,-0.00073536,0.00010097,0.001
 38558,-0.00009818,-0.31070890,0.02269945,-0.00290030,0.00033283,-0.000
 10330,0.00000581,-0.02811173,-0.00992693,0.00017540,0.00001835,-0.0000
 0859,0.00000041,-0.00000735,-0.00000472,0.00000010,0.00000883,-0.00000
 892,0.00000041,-0.00000657,0.00000240,-0.00000017,-0.00000805,-0.00001
 126,0.00000040,0.00026647,0.00029061,0.00000017,-0.00021488,0.00002869
 ,-0.00000053,0.35997539,-0.00007159,-0.00001150,0.00000139,-0.00002413
 ,-0.00000008,-0.00000042,0.00001206,-0.00002545,0.00000119,0.00020823,
 0.00018807,-0.00000947,0.00000733,-0.00000540,-0.00000002,-0.00000397,
 -0.00001559,0.00000037,-0.00000633,-0.00000076,-0.00000005,-0.00101174
 ,-0.00017380,-0.00001214,-0.00079028,-0.00282530,0.00035984,0.03173922
 ,-0.00897057,0.00084989,0.00074123,-0.00338212,0.00038391,0.02268926,-
 0.03969302,0.00005122,-0.00007915,0.00016595,-0.00000200,-0.02880323,-
 0.00232949,0.00012409,-0.00002030,-0.00000072,0.00000037,0.00001175,0.
 00000217,0.00000028,-0.00000571,0.00000332,-0.00000002,0.00000240,-0.0
 0000310,0.00000027,0.00000406,0.00000459,-0.00000004,0.00048728,-0.000
 38230,-0.00004161,0.00063741,0.00003567,-0.00000990,-0.02503120,0.0577
 4150,0.00000302,0.00000202,0.00003379,0.00000128,-0.00000023,-0.000005
 78,-0.00000062,0.00000128,0.00000054,-0.00000829,-0.00001057,-0.000072
 06,-0.00000024,-0.00000003,-0.00000723,0.00000022,0.00000058,-0.000006
 26,0.00000035,0.00000004,-0.00000090,0.00004043,-0.00000554,-0.0002871
 0,-0.00000910,0.00035308,0.00581971,-0.00153357,0.00071301,0.00568088,
 -0.00007100,0.00038857,0.00556898,-0.00289989,0.00005131,-0.04239322,0
 .00000479,-0.00000217,0.00013221,0.00097218,0.00026071,0.00554511,0.00
 000091,0.00000046,0.00001155,-0.00000060,0.00000016,0.00000670,0.00000
 028,-0.00000004,0.00000393,-0.00000017,0.00000027,0.00000287,-0.000000
 25,-0.00000015,0.00000290,-0.00000813,-0.00004303,-0.00144988,-0.00002
 623,-0.00001431,-0.00030780,0.00348774,-0.00160250,0.02416194,-0.00008
 583,-0.00002921,-0.00000153,-0.00008543,0.00002557,-0.00000170,0.00002
 320,-0.00008287,0.00000388,0.00003882,-0.00009582,0.00000753,-0.000051
 21,-0.00000964,0.00000023,-0.00002801,0.00002556,-0.00000107,-0.000004
 78,-0.00001903,0.00000077,0.00037395,0.00265710,-0.00010037,-0.0199711
 9,0.01257832,-0.00072254,-0.00074266,-0.00161354,0.00001957,-0.0278569
 9,-0.00931586,0.00014721,0.00031780,-0.00035329,0.00001720,-0.30886726
 ,0.02576108,-0.00300778,0.00019927,0.00111714,-0.00008301,-0.00000612,
 0.00002154,-0.00000107,0.00004686,-0.00012901,0.00000540,-0.00000743,0
 .00000047,-0.00000011,0.00001835,-0.00002030,0.00000091,0.00000905,0.0
 0001922,-0.00000080,-0.00029922,0.00004150,-0.00000088,0.00011530,-0.0
 0044229,0.00003080,-0.00011316,-0.00000411,0.00000589,0.35714734,-0.00
 003672,0.00002777,0.00001111,0.00001318,0.00000914,-0.00000028,-0.0000
 2473,-0.00002033,-0.00000053,-0.00010589,0.00002692,-0.00002078,-0.000
 01083,0.00000371,-0.00000136,-0.00001582,0.00005382,-0.00000362,0.0000
 1874,0.00000102,0.00000009,0.00177799,-0.00475525,0.00016093,0.0319289
 4,-0.00917303,0.00089270,-0.00115902,-0.00291884,0.00036658,-0.0280231
 6,-0.00181221,0.00013269,0.00000219,0.00031843,-0.00001334,0.02582765,
 -0.04057350,0.00006308,0.00055088,-0.00338909,0.00036464,0.00002154,0.
 00000504,0.00000059,-0.00001649,-0.00006122,0.00000472,0.00000659,-0.0
 0000872,0.00000065,-0.00000859,-0.00000072,0.00000046,-0.00000903,-0.0
 0000776,0.00000059,-0.00056894,0.00012635,-0.00002718,-0.00065487,-0.0
 0030449,-0.00005778,0.00000334,-0.00000487,-0.00003790,-0.03013952,0.0
 6236123,-0.00000124,0.00001116,0.00029659,-0.00000118,-0.00000019,0.00
 000023,0.00000142,-0.00000095,-0.00002859,0.00000801,-0.00002067,-0.00
 044584,0.00000028,-0.00000135,-0.00002661,0.00000068,-0.00000332,-0.00
 002905,-0.00000082,-0.00000019,-0.00000013,-0.00006337,0.00016725,-0.0
 0125545,-0.00153925,0.00075271,0.00645874,0.00000038,0.00036329,0.0059
 4918,0.00093684,0.00026808,0.00613165,0.00000219,-0.00001591,0.0000027
 6,-0.00301058,0.00006256,-0.04353144,-0.00005912,0.00036873,0.00513924
 ,-0.00000107,0.00000059,0.00001539,0.00000065,0.00000391,0.00005345,-0
 .00000037,0.00000060,0.00000551,0.00000041,0.00000037,0.00001155,0.000
 00039,0.00000080,0.00000777,0.00002489,-0.00002276,-0.00041893,0.00003
 977,-0.00005624,-0.00155848,0.00000558,-0.00003795,-0.00090163,0.00368
 167,-0.00182860,0.02431068,0.00036440,-0.00000934,0.00000105,0.0000636
 6,-0.00002801,0.00000177,0.00000004,0.00012549,-0.00000532,-0.00452361
 ,-0.00262061,0.00007958,0.00000032,0.00001937,-0.00000054,0.00002956,0
 .00002135,-0.00000051,0.00000941,0.00000573,-0.00000017,-0.00311054,0.
 00037806,-0.00002837,-0.02504695,0.02926817,-0.00146533,-0.00175493,-0
 .00155931,0.00001048,0.00040771,0.00004904,0.00000096,0.00729342,-0.01
 481049,0.00063186,-0.00344553,-0.00080029,-0.00002805,-0.09215437,0.10
 943423,-0.00497013,0.00004686,-0.00001649,0.00000065,-0.00001920,0.000
 01609,-0.00000100,0.00001629,-0.00000927,0.00000043,-0.00000736,0.0000
 1175,-0.00000060,-0.00001061,-0.00001473,0.00000048,0.00025387,-0.0003
 5675,0.00002011,-0.00001696,0.00004563,0.00000435,0.00010801,-0.000688
 47,0.00004099,-0.00017084,0.00062256,-0.00002616,0.12166732,0.00008103
 ,-0.00006325,0.00001488,-0.00007510,-0.00001730,-0.00000053,0.00010671
 ,0.00002952,-0.00000036,-0.00154925,-0.00066131,0.00000696,0.00007245,
 0.00001788,-0.00000184,0.00004105,-0.00008020,0.00000267,-0.00003885,0
 .00000666,-0.00000056,0.00016956,0.00079507,-0.00009140,0.01033525,-0.
 00353299,0.00050754,-0.00196097,-0.00192818,0.00031588,-0.00036539,0.0
 0021222,-0.00001205,0.00373771,-0.03714237,0.00186376,-0.00030845,0.00
 043972,0.00019439,0.10912732,-0.25676906,0.00978408,-0.00012904,-0.000
 06125,0.00000392,0.00001609,0.00001439,0.00000057,-0.00001079,0.000002
 55,0.00000030,-0.00000472,0.00000217,0.00000016,0.00001169,0.00000723,
 0.00000017,0.00024237,-0.00040738,0.00000019,0.00003604,-0.00009575,-0
 .00003301,-0.00045771,-0.00031728,-0.00005496,0.00000686,0.00009653,-0
 .00001186,-0.11908386,0.29945227,-0.00000280,0.00001422,0.00027459,0.0
 0000375,-0.00000018,-0.00001680,-0.00000453,-0.00000023,0.00000270,0.0
 0003442,-0.00000076,-0.00023029,-0.00000278,-0.00000222,-0.00003799,-0
 .00000134,0.00000252,-0.00002422,0.00000171,-0.00000023,0.00000020,-0.
 00001954,-0.00008985,-0.00139625,-0.00066625,0.00064449,0.00668668,0.0
 0002745,0.00031877,0.00587798,0.00001843,-0.00000907,-0.00001016,-0.00
 015108,0.00172955,0.00629603,-0.00004881,0.00019086,0.00508945,-0.0049
 5712,0.00978629,-0.04413753,0.00000540,0.00000473,0.00005346,-0.000001
 00,0.00000057,0.00002503,0.00000049,0.00000031,0.00001149,0.00000010,0
 .00000028,0.00000670,-0.00000064,-0.00000002,0.00000922,-0.00000518,-0
 .00000414,-0.00044421,0.00000475,-0.00003293,-0.00088242,0.00003126,-0
 .00005663,-0.00153825,-0.00000018,-0.00000741,-0.00018546,0.00573349,-
 0.01248886,0.02457079\\-0.00006015,0.00004218,-0.00000259,0.00010623,0
 .00000552,0.00000054,0.00002721,0.00006757,-0.00000251,-0.00010278,0.0
 0008664,-0.00000415,0.00005501,-0.00008538,0.00000409,-0.00005276,0.00
 012698,-0.00000582,-0.00005006,-0.00014633,0.00000574,0.00012244,-0.00
 006095,0.00000371,0.00006611,-0.00005192,0.00000237,0.00004722,0.00015
 082,-0.00000604,-0.00005400,0.00008455,-0.00000391,0.00004791,-0.00013
 718,0.00000604,-0.00010094,-0.00001560,-0.00000011,-0.00004550,-0.0000
 6612,0.00000257,-0.00002516,0.00000739,-0.00000048,0.00003554,-0.00002
 535,0.00000132,0.00000566,-0.00002860,0.00000123,-0.00001242,-0.000001
 30,-0.00000003,-0.00000587,-0.00001130,0.00000046,0.00000658,0.0000114
 3,-0.00000043,-0.00000668,0.00002860,-0.00000126,0.00001281,0.00000123
 ,0.00000007,0.00002473,-0.00000733,0.00000051,-0.00004113,0.00002446,-
 0.00000133\\\@


 I WISH TO HAVE NO CONNECTION WITH ANY SHIP THAT DOES NOT SAIL FAST,
 FOR I INTEND TO GO IN HARM'S WAY.
     -- JOHN PAUL JONES, USN 1747-1792
 Job cpu time:       0 days  0 hours  0 minutes  2.6 seconds.
 File lengths (MBytes):  RWF=    155 Int=      0 D2E=      0 Chk=      3 Scr=      2
 Normal termination of Gaussian 09 at Tue Apr 12 01:36:41 2022.
