 Entering Gaussian System, Link 0=/home/tjiang/softs/gaussian/g16-avx/g16/g16
 Initial command:
 /home/tjiang/softs/gaussian/g16-avx/g16/l1.exe "/dev/shm/edumont/8178222/Gau-60142.inp" -scrdir="/dev/shm/edumont/8178222/"
 Entering Link 1 = /home/tjiang/softs/gaussian/g16-avx/g16/l1.exe PID=     60145.
  
 Copyright (c) 1988-2017, Gaussian, Inc.  All Rights Reserved.
  
 This is part of the Gaussian(R) 16 program.  It is based on
 the Gaussian(R) 09 system (copyright 2009, Gaussian, Inc.),
 the Gaussian(R) 03 system (copyright 2003, Gaussian, Inc.),
 the Gaussian(R) 98 system (copyright 1998, Gaussian, Inc.),
 the Gaussian(R) 94 system (copyright 1995, Gaussian, Inc.),
 the Gaussian 92(TM) system (copyright 1992, Gaussian, Inc.),
 the Gaussian 90(TM) system (copyright 1990, Gaussian, Inc.),
 the Gaussian 88(TM) system (copyright 1988, Gaussian, Inc.),
 the Gaussian 86(TM) system (copyright 1986, Carnegie Mellon
 University), and the Gaussian 82(TM) system (copyright 1983,
 Carnegie Mellon University). Gaussian is a federally registered
 trademark of Gaussian, Inc.
  
 This software contains proprietary and confidential information,
 including trade secrets, belonging to Gaussian, Inc.
  
 This software is provided under written license and may be
 used, copied, transmitted, or stored only in accord with that
 written license.
  
 The following legend is applicable only to US Government
 contracts under FAR:
  
                    RESTRICTED RIGHTS LEGEND
  
 Use, reproduction and disclosure by the US Government is
 subject to restrictions as set forth in subparagraphs (a)
 and (c) of the Commercial Computer Software - Restricted
 Rights clause in FAR 52.227-19.
  
 Gaussian, Inc.
 340 Quinnipiac St., Bldg. 40, Wallingford CT 06492
  
  
 ---------------------------------------------------------------
 Warning -- This program may not be used in any manner that
 competes with the business of Gaussian, Inc. or will provide
 assistance to any competitor of Gaussian, Inc.  The licensee
 of this program is prohibited from giving any competitor of
 Gaussian, Inc. access to this program.  By using this program,
 the user acknowledges that Gaussian, Inc. is engaged in the
 business of creating and licensing software in the field of
 computational chemistry and represents and warrants to the
 licensee that it is not a competitor of Gaussian, Inc. and that
 it will not use this program in any manner prohibited above.
 ---------------------------------------------------------------
  

 Cite this work as:
 Gaussian 16, Revision B.01,
 M. J. Frisch, G. W. Trucks, H. B. Schlegel, G. E. Scuseria, 
 M. A. Robb, J. R. Cheeseman, G. Scalmani, V. Barone, 
 G. A. Petersson, H. Nakatsuji, X. Li, M. Caricato, A. V. Marenich, 
 J. Bloino, B. G. Janesko, R. Gomperts, B. Mennucci, H. P. Hratchian, 
 J. V. Ortiz, A. F. Izmaylov, J. L. Sonnenberg, D. Williams-Young, 
 F. Ding, F. Lipparini, F. Egidi, J. Goings, B. Peng, A. Petrone, 
 T. Henderson, D. Ranasinghe, V. G. Zakrzewski, J. Gao, N. Rega, 
 G. Zheng, W. Liang, M. Hada, M. Ehara, K. Toyota, R. Fukuda, 
 J. Hasegawa, M. Ishida, T. Nakajima, Y. Honda, O. Kitao, H. Nakai, 
 T. Vreven, K. Throssell, J. A. Montgomery, Jr., J. E. Peralta, 
 F. Ogliaro, M. J. Bearpark, J. J. Heyd, E. N. Brothers, K. N. Kudin, 
 V. N. Staroverov, T. A. Keith, R. Kobayashi, J. Normand, 
 K. Raghavachari, A. P. Rendell, J. C. Burant, S. S. Iyengar, 
 J. Tomasi, M. Cossi, J. M. Millam, M. Klene, C. Adamo, R. Cammi, 
 J. W. Ochterski, R. L. Martin, K. Morokuma, O. Farkas, 
 J. B. Foresman, and D. J. Fox, Gaussian, Inc., Wallingford CT, 2016.
 
 ******************************************
 Gaussian 16:  ES64L-G16RevB.01 20-Dec-2017
                29-Jan-2021 
 ******************************************
 ------------------------------------
 #n b3lyp/aug-cc-pvtz opt freq=anharm
 ------------------------------------
 1/18=20,19=15,26=3,38=1,80=1/1,3;
 2/9=110,12=2,17=6,18=5,40=1/2;
 3/5=16,6=1,7=10,11=2,25=1,30=1,71=1,74=-5/1,2,3;
 4//1;
 5/5=2,38=5/2;
 6/7=2,8=2,9=2,10=2,28=1/1;
 7//1,2,3,16;
 1/18=20,19=15,26=3,80=1/3(2);
 2/9=110/2;
 99//99;
 2/9=110/2;
 3/5=16,6=1,7=10,11=2,25=1,30=1,71=1,74=-5/1,2,3;
 4/5=5,16=3,69=1/1;
 5/5=2,38=5/2;
 7//1,2,3,16;
 1/18=20,19=15,26=3,80=1/3(-5);
 2/9=110/2;
 6/7=2,8=2,9=2,10=2,19=2,28=1/1;
 99/9=1/99;
 -------------------------------------------------
 Energy of chloromethane using the AM1 hamiltonian
 -------------------------------------------------
 Symbolic Z-matrix:
 Charge =  0 Multiplicity = 1
 c
 h                    1    hc2
 h                    1    hc3      2    hch3
 h                    1    hc4      3    hch4     2    dih4     0
 cl                   1    clc5     4    clch5    3    dih5     0
       Variables:
  hc2                   1.09                     
  hc3                   1.09                     
  hch3                109.471                    
  hc4                   1.09                     
  hch4                109.471                    
  dih4               -120.                       
  clc5                  1.64362                  
  clch5               109.471                    
  dih5                120.                       
 
     3 tetrahedral angles replaced.

 GradGradGradGradGradGradGradGradGradGradGradGradGradGradGradGradGradGrad
 Berny optimization.
 Initialization pass.
                           ----------------------------
                           !    Initial Parameters    !
                           ! (Angstroms and Degrees)  !
 --------------------------                            --------------------------
 ! Name  Definition              Value          Derivative Info.                !
 --------------------------------------------------------------------------------
 ! R1    R(1,2)                  1.09           estimate D2E/DX2                !
 ! R2    R(1,3)                  1.09           estimate D2E/DX2                !
 ! R3    R(1,4)                  1.09           estimate D2E/DX2                !
 ! R4    R(1,5)                  1.6436         estimate D2E/DX2                !
 ! A1    A(2,1,3)              109.4712         estimate D2E/DX2                !
 ! A2    A(2,1,4)              109.4712         estimate D2E/DX2                !
 ! A3    A(2,1,5)              109.4712         estimate D2E/DX2                !
 ! A4    A(3,1,4)              109.4712         estimate D2E/DX2                !
 ! A5    A(3,1,5)              109.4712         estimate D2E/DX2                !
 ! A6    A(4,1,5)              109.4712         estimate D2E/DX2                !
 ! D1    D(2,1,4,3)           -120.0            estimate D2E/DX2                !
 ! D2    D(2,1,5,3)            120.0            estimate D2E/DX2                !
 ! D3    D(2,1,5,4)           -120.0            estimate D2E/DX2                !
 ! D4    D(3,1,5,4)            120.0            estimate D2E/DX2                !
 --------------------------------------------------------------------------------
 Trust Radius=3.00D-01 FncErr=1.00D-07 GrdErr=1.00D-06 EigMax=2.50D+02 EigMin=1.00D-04
 Number of steps in this run=     24 maximum allowed number of steps=    100.
 GradGradGradGradGradGradGradGradGradGradGradGradGradGradGradGradGradGrad

                          Input orientation:                          
 ---------------------------------------------------------------------
 Center     Atomic      Atomic             Coordinates (Angstroms)
 Number     Number       Type             X           Y           Z
 ---------------------------------------------------------------------
      1          6           0        0.000000    0.000000    0.000000
      2          1           0        0.000000    0.000000    1.090000
      3          1           0        1.027662    0.000000   -0.363333
      4          1           0       -0.513831   -0.889981   -0.363333
      5         17           0       -0.774811    1.342012   -0.547874
 ---------------------------------------------------------------------
                    Distance matrix (angstroms):
                    1          2          3          4          5
     1  C    0.000000
     2  H    1.090000   0.000000
     3  H    1.090000   1.779963   0.000000
     4  H    1.090000   1.779963   1.779963   0.000000
     5  Cl   1.643622   2.254764   2.254764   2.254764   0.000000
 Stoichiometry    CH3Cl
 Framework group  C3V[C3(CCl),3SGV(H)]
 Deg. of freedom     3
 Full point group                 C3V     NOp   6
 Largest Abelian subgroup         CS      NOp   2
 Largest concise Abelian subgroup CS      NOp   2
                         Standard orientation:                         
 ---------------------------------------------------------------------
 Center     Atomic      Atomic             Coordinates (Angstroms)
 Number     Number       Type             X           Y           Z
 ---------------------------------------------------------------------
      1          6           0        0.000000   -0.000000   -1.032753
      2          1           0        0.000000    1.027662   -1.396086
      3          1           0       -0.889981   -0.513831   -1.396086
      4          1           0        0.889981   -0.513831   -1.396086
      5         17           0       -0.000000    0.000000    0.610869
 ---------------------------------------------------------------------
 Rotational constants (GHZ):         158.2742734          15.3673234          15.3673234
 Standard basis: Aug-CC-pVTZ (5D, 7F)
 There are   120 symmetry adapted cartesian basis functions of A'  symmetry.
 There are    69 symmetry adapted cartesian basis functions of A"  symmetry.
 There are   102 symmetry adapted basis functions of A'  symmetry.
 There are    63 symmetry adapted basis functions of A"  symmetry.
   165 basis functions,   267 primitive gaussians,   189 cartesian basis functions
    13 alpha electrons       13 beta electrons
       nuclear repulsion energy        54.4396529966 Hartrees.
 NAtoms=    5 NActive=    5 NUniq=    3 SFac= 2.78D+00 NAtFMM=   60 NAOKFM=F Big=F
 Integral buffers will be    131072 words long.
 Raffenetti 2 integral format.
 Two-electron integral symmetry is turned on.
 One-electron integrals computed using PRISM.
 NBasis=   165 RedAO= T EigKep=  6.52D-05  NBF=   102    63
 NBsUse=   165 1.00D-06 EigRej= -1.00D+00 NBFU=   102    63
 ExpMin= 2.53D-02 ExpMax= 4.56D+05 ExpMxC= 1.44D+03 IAcc=3 IRadAn=         5 AccDes= 0.00D+00
 Harris functional with IExCor=  402 and IRadAn=       5 diagonalized for initial guess.
 HarFok:  IExCor=  402 AccDes= 0.00D+00 IRadAn=         5 IDoV= 1 UseB2=F ITyADJ=14
 ICtDFT=  3500011 ScaDFX=  1.000000  1.000000  1.000000  1.000000
 FoFCou: FMM=F IPFlag=           0 FMFlag=      100000 FMFlg1=           0
         NFxFlg=           0 DoJE=T BraDBF=F KetDBF=T FulRan=T
         wScrn=  0.000000 ICntrl=       500 IOpCl=  0 I1Cent=   200000004 NGrid=           0
         NMat0=    1 NMatS0=      1 NMatT0=    0 NMatD0=    1 NMtDS0=    0 NMtDT0=    0
 Petite list used in FoFCou.
 Initial guess orbital symmetries:
       Occupied  (A1) (A1) (A1) (A1) (E) (E) (A1) (A1) (E) (E)
                 (A1) (E) (E)
       Virtual   (A1) (A1) (E) (E) (A1) (A1) (E) (E) (A1) (E) (E)
                 (E) (E) (A1) (E) (E) (A1) (E) (E) (A1) (E) (E)
                 (A2) (A1) (E) (E) (E) (E) (A1) (E) (E) (A1) (E)
                 (E) (E) (E) (A1) (A1) (E) (E) (A1) (E) (E) (E)
                 (E) (A2) (E) (E) (A1) (E) (E) (A1) (A2) (E) (E)
                 (A1) (A1) (E) (E) (A1) (E) (E) (E) (E) (A2) (E)
                 (E) (A1) (E) (E) (A1) (A1) (E) (E) (A2) (A1) (E)
                 (E) (E) (E) (A1) (E) (E) (A1) (E) (E) (A2) (E)
                 (E) (E) (E) (A1) (A1) (E) (E) (E) (E) (A1) (A1)
                 (E) (E) (A1) (A2) (E) (E) (A1) (A1) (E) (E) (E)
                 (E) (A2) (A1) (E) (E) (E) (E) (E) (E) (E) (E)
                 (A2) (E) (E) (A1) (A1) (E) (E) (A1) (E) (E) (A1)
                 (E) (E) (A1) (A2) (E) (E) (E) (E) (A1) (A1) (E)
                 (E) (A2) (A1) (E) (E) (E) (E) (A1) (A1)
 The electronic state of the initial guess is 1-A1.
 Requested convergence on RMS density matrix=1.00D-08 within 128 cycles.
 Requested convergence on MAX density matrix=1.00D-06.
 Requested convergence on             energy=1.00D-06.
 No special actions if energy rises.
 SCF Done:  E(RB3LYP) =  -500.154736988     A.U. after    9 cycles
            NFock=  9  Conv=0.45D-08     -V/T= 2.0026

 **********************************************************************

            Population analysis using the SCF Density.

 **********************************************************************

 Orbital symmetries:
       Occupied  (A1) (A1) (A1) (A1) (E) (E) (A1) (A1) (E) (E)
                 (A1) (E) (E)
       Virtual   (A1) (A1) (E) (E) (A1) (E) (E) (A1) (E) (E) (A1)
                 (E) (E) (A1) (E) (E) (A1) (E) (E) (A1) (E) (E)
                 (A2) (A1) (E) (E) (A1) (E) (E) (E) (E) (A1) (E)
                 (E) (E) (E) (A1) (A1) (E) (E) (A1) (E) (E) (E)
                 (E) (A2) (E) (E) (A1) (E) (E) (A1) (A2) (E) (E)
                 (A1) (A1) (E) (E) (A1) (E) (E) (E) (E) (A2) (E)
                 (E) (A1) (E) (E) (A1) (A1) (E) (E) (A2) (A1) (E)
                 (E) (E) (E) (A1) (E) (E) (A1) (E) (E) (A2) (E)
                 (E) (E) (E) (A1) (A1) (E) (E) (E) (E) (A1) (A1)
                 (E) (E) (A2) (E) (E) (A1) (A1) (A1) (E) (E) (E)
                 (E) (A2) (A1) (E) (E) (E) (E) (E) (E) (E) (E)
                 (A2) (E) (E) (A1) (A1) (E) (E) (E) (E) (A1) (A1)
                 (E) (E) (A1) (A2) (E) (E) (E) (E) (A1) (A1) (E)
                 (E) (A2) (A1) (E) (E) (E) (E) (A1) (A1)
 The electronic state is 1-A1.
 Alpha  occ. eigenvalues -- -101.55066 -10.22124  -9.45846  -7.22127  -7.21238
 Alpha  occ. eigenvalues --   -7.21238  -0.89204  -0.66947  -0.46357  -0.46357
 Alpha  occ. eigenvalues --   -0.43642  -0.29734  -0.29734
 Alpha virt. eigenvalues --   -0.01294   0.01562   0.01832   0.01832   0.05800
 Alpha virt. eigenvalues --    0.08250   0.08250   0.08374   0.08755   0.08755
 Alpha virt. eigenvalues --    0.10855   0.11202   0.11202   0.17126   0.19281
 Alpha virt. eigenvalues --    0.19281   0.21537   0.24022   0.24022   0.26712
 Alpha virt. eigenvalues --    0.26722   0.26722   0.27604   0.30558   0.31937
 Alpha virt. eigenvalues --    0.31937   0.34520   0.35460   0.35460   0.38490
 Alpha virt. eigenvalues --    0.38490   0.41145   0.42148   0.42148   0.52269
 Alpha virt. eigenvalues --    0.52269   0.55477   0.58257   0.64825   0.64825
 Alpha virt. eigenvalues --    0.65012   0.70755   0.70755   0.71528   0.71528
 Alpha virt. eigenvalues --    0.74099   0.75537   0.75537   0.79999   0.80577
 Alpha virt. eigenvalues --    0.80577   0.84245   0.86623   0.88603   0.88603
 Alpha virt. eigenvalues --    0.92108   0.92827   0.94831   0.94831   0.98070
 Alpha virt. eigenvalues --    0.99357   0.99357   1.03880   1.03880   1.12138
 Alpha virt. eigenvalues --    1.12898   1.12898   1.22827   1.24699   1.24699
 Alpha virt. eigenvalues --    1.32697   1.36080   1.37421   1.37421   1.44846
 Alpha virt. eigenvalues --    1.46738   1.47849   1.47849   1.52281   1.52281
 Alpha virt. eigenvalues --    1.56688   1.62190   1.62190   1.70120   1.73303
 Alpha virt. eigenvalues --    1.73303   1.77859   1.84015   1.84015   1.97078
 Alpha virt. eigenvalues --    1.97078   2.01565   2.16351   2.30719   2.30719
 Alpha virt. eigenvalues --    2.33695   2.33695   2.45783   2.61313   2.63619
 Alpha virt. eigenvalues --    2.63619   2.75914   2.77112   2.77112   2.79015
 Alpha virt. eigenvalues --    2.81760   2.89666   2.90664   2.90664   3.05595
 Alpha virt. eigenvalues --    3.05595   3.24580   3.25192   3.26385   3.26385
 Alpha virt. eigenvalues --    3.29432   3.29432   3.54096   3.54096   3.56152
 Alpha virt. eigenvalues --    3.56152   3.74125   3.77285   3.77285   3.80390
 Alpha virt. eigenvalues --    3.89377   3.94314   3.94314   4.18628   4.18628
 Alpha virt. eigenvalues --    4.19867   4.34860   4.39112   4.39112   4.54080
 Alpha virt. eigenvalues --    4.58251   4.69512   4.69512   4.85821   4.85821
 Alpha virt. eigenvalues --    4.96998   5.20947   5.21658   5.21658   5.22961
 Alpha virt. eigenvalues --    5.55409   5.69781   5.69781   6.22712   6.22712
 Alpha virt. eigenvalues --    7.50787  15.94916
          Condensed to atoms (all electrons):
               1          2          3          4          5
     1  C    5.317659   0.409278   0.409278   0.409278   0.023296
     2  H    0.409278   0.387191   0.001248   0.001248  -0.020782
     3  H    0.409278   0.001248   0.387191   0.001248  -0.020782
     4  H    0.409278   0.001248   0.001248   0.387191  -0.020782
     5  Cl   0.023296  -0.020782  -0.020782  -0.020782  17.135708
 Mulliken charges:
               1
     1  C   -0.568789
     2  H    0.221816
     3  H    0.221816
     4  H    0.221816
     5  Cl  -0.096659
 Sum of Mulliken charges =  -0.00000
 Mulliken charges with hydrogens summed into heavy atoms:
               1
     1  C    0.096659
     5  Cl  -0.096659
 Electronic spatial extent (au):  <R**2>=            121.4341
 Charge=             -0.0000 electrons
 Dipole moment (field-independent basis, Debye):
    X=             -0.0000    Y=              0.0000    Z=             -1.6202  Tot=              1.6202
 Quadrupole moment (field-independent basis, Debye-Ang):
   XX=            -19.9275   YY=            -19.9275   ZZ=            -18.9669
   XY=             -0.0000   XZ=              0.0000   YZ=              0.0000
 Traceless Quadrupole moment (field-independent basis, Debye-Ang):
   XX=             -0.3202   YY=             -0.3202   ZZ=              0.6404
   XY=             -0.0000   XZ=              0.0000   YZ=              0.0000
 Octapole moment (field-independent basis, Debye-Ang**2):
  XXX=              0.0000  YYY=              0.7411  ZZZ=              3.1441  XYY=              0.0000
  XXY=             -0.7411  XXZ=             -0.7371  XZZ=             -0.0000  YZZ=             -0.0000
  YYZ=             -0.7371  XYZ=             -0.0000
 Hexadecapole moment (field-independent basis, Debye-Ang**3):
 XXXX=            -29.4680 YYYY=            -29.4680 ZZZZ=           -107.6166 XXXY=             -0.0000
 XXXZ=              0.0000 YYYX=             -0.0000 YYYZ=             -0.9735 ZZZX=              0.0000
 ZZZY=             -0.0000 XXYY=             -9.8227 XXZZ=            -23.0332 YYZZ=            -23.0332
 XXYZ=              0.9735 YYXZ=              0.0000 ZZXY=             -0.0000
 N-N= 5.443965299658D+01 E-N=-1.295258762526D+03  KE= 4.988588852012D+02
 Symmetry A'   KE= 4.510496330583D+02
 Symmetry A"   KE= 4.780925214291D+01
 Calling FoFJK, ICntrl=      2127 FMM=F ISym2X=1 I1Cent= 0 IOpClX= 0 NMat=1 NMatS=1 NMatT=0.
 ***** Axes restored to original set *****
 -------------------------------------------------------------------
 Center     Atomic                   Forces (Hartrees/Bohr)
 Number     Number              X              Y              Z
 -------------------------------------------------------------------
      1        6           0.034897883   -0.060444906    0.024676530
      2        1           0.002443187   -0.004231724   -0.000890275
      3        1          -0.000024963   -0.004231724    0.002600217
      4        1           0.003677262   -0.002094243    0.002600217
      5       17          -0.040993369    0.071002598   -0.028986689
 -------------------------------------------------------------------
 Cartesian Forces:  Max     0.071002598 RMS     0.029570753

 GradGradGradGradGradGradGradGradGradGradGradGradGradGradGradGradGradGrad
 Berny optimization.
 FormGI is forming the generalized inverse of G from B-inverse, IUseBI=4.
 Internal  Forces:  Max     0.086960068 RMS     0.023367705
 Search for a local minimum.
 Step number   1 out of a maximum of   24
 All quantities printed in internal units (Hartrees-Bohrs-Radians)
 Mixed Optimization -- RFO/linear search
 Second derivative matrix not updated -- first step.
 The second derivative matrix:
                          R1        R2        R3        R4        A1
           R1           0.34813
           R2           0.00000   0.34813
           R3           0.00000   0.00000   0.34813
           R4           0.00000   0.00000   0.00000   0.43630
           A1           0.00000   0.00000   0.00000   0.00000   0.16000
           A2           0.00000   0.00000   0.00000   0.00000   0.00000
           A3           0.00000   0.00000   0.00000   0.00000   0.00000
           A4           0.00000   0.00000   0.00000   0.00000   0.00000
           A5           0.00000   0.00000   0.00000   0.00000   0.00000
           A6           0.00000   0.00000   0.00000   0.00000   0.00000
           D1           0.00000   0.00000   0.00000   0.00000   0.00000
           D2           0.00000   0.00000   0.00000   0.00000   0.00000
           D3           0.00000   0.00000   0.00000   0.00000   0.00000
           D4           0.00000   0.00000   0.00000   0.00000   0.00000
                          A2        A3        A4        A5        A6
           A2           0.16000
           A3           0.00000   0.16000
           A4           0.00000   0.00000   0.16000
           A5           0.00000   0.00000   0.00000   0.16000
           A6           0.00000   0.00000   0.00000   0.00000   0.16000
           D1           0.00000   0.00000   0.00000   0.00000   0.00000
           D2           0.00000   0.00000   0.00000   0.00000   0.00000
           D3           0.00000   0.00000   0.00000   0.00000   0.00000
           D4           0.00000   0.00000   0.00000   0.00000   0.00000
                          D1        D2        D3        D4
           D1           0.00235
           D2           0.00000   0.01777
           D3           0.00000   0.00000   0.01777
           D4           0.00000   0.00000   0.00000   0.01777
 ITU=  0
     Eigenvalues ---    0.05812   0.06724   0.08890   0.16000   0.16000
     Eigenvalues ---    0.34813   0.34813   0.34813   0.43630
 RFO step:  Lambda=-1.74443927D-02 EMin= 5.81189867D-02
 Linear search not attempted -- first point.
 Iteration  1 RMS(Cart)=  0.05648708 RMS(Int)=  0.00059067
 Iteration  2 RMS(Cart)=  0.00033159 RMS(Int)=  0.00048102
 Iteration  3 RMS(Cart)=  0.00000003 RMS(Int)=  0.00048102
 ClnCor:  largest displacement from symmetrization is 1.72D-03 for atom     4.
 Variable       Old X    -DE/DX   Delta X   Delta X   Delta X     New X
                                 (Linear)    (Quad)   (Total)
    R1        2.05980  -0.00089   0.00000  -0.00244  -0.00208   2.05772
    R2        2.05980  -0.00089   0.00000  -0.00244  -0.00208   2.05772
    R3        2.05980  -0.00089   0.00000  -0.00244  -0.00208   2.05772
    R4        3.10600   0.08696   0.00000   0.19165   0.19165   3.29764
    A1        1.91063  -0.00152   0.00000  -0.02338  -0.02610   1.88453
    A2        1.91063  -0.00323   0.00000  -0.02666  -0.02610   1.88453
    A3        1.91063   0.00235   0.00000   0.02542   0.02543   1.93606
    A4        1.91063  -0.00323   0.00000  -0.02666  -0.02610   1.88453
    A5        1.91063   0.00235   0.00000   0.02542   0.02543   1.93606
    A6        1.91063   0.00328   0.00000   0.02587   0.02543   1.93606
    D1       -2.09440   0.00582   0.00000   0.06129   0.06090  -2.03350
    D2        2.09440   0.00101   0.00000   0.00249   0.00000   2.09440
    D3       -2.09440   0.00051   0.00000   0.00125   0.00000  -2.09440
    D4        2.09440  -0.00051   0.00000  -0.00125   0.00000   2.09440
         Item               Value     Threshold  Converged?
 Maximum Force            0.086960     0.000450     NO 
 RMS     Force            0.023368     0.000300     NO 
 Maximum Displacement     0.149048     0.001800     NO 
 RMS     Displacement     0.056401     0.001200     NO 
 Predicted change in Energy=-9.098591D-03
 GradGradGradGradGradGradGradGradGradGradGradGradGradGradGradGradGradGrad

                          Input orientation:                          
 ---------------------------------------------------------------------
 Center     Atomic      Atomic             Coordinates (Angstroms)
 Number     Number       Type             X           Y           Z
 ---------------------------------------------------------------------
      1          6           0        0.002271   -0.003933    0.001606
      2          1           0        0.016115   -0.027912    1.090151
      3          1           0        1.033176   -0.027912   -0.348190
      4          1           0       -0.492416   -0.908713   -0.348190
      5         17           0       -0.820348    1.420885   -0.580074
 ---------------------------------------------------------------------
                    Distance matrix (angstroms):
                    1          2          3          4          5
     1  C    0.000000
     2  H    1.088898   0.000000
     3  H    1.088898   1.761602   0.000000
     4  H    1.088898   1.761602   1.761602   0.000000
     5  Cl   1.745038   2.363966   2.363966   2.363966   0.000000
 Stoichiometry    CH3Cl
 Framework group  C3V[C3(CCl),3SGV(H)]
 Deg. of freedom     3
 Full point group                 C3V     NOp   6
 Largest Abelian subgroup         CS      NOp   2
 Largest concise Abelian subgroup CS      NOp   2
                         Standard orientation:                         
 ---------------------------------------------------------------------
 Center     Atomic      Atomic             Coordinates (Angstroms)
 Number     Number       Type             X           Y           Z
 ---------------------------------------------------------------------
      1          6           0       -0.000000    0.000000   -1.096107
      2          1           0       -0.000000    1.017061   -1.485061
      3          1           0       -0.880801   -0.508531   -1.485061
      4          1           0        0.880801   -0.508531   -1.485061
      5         17           0        0.000000   -0.000000    0.648931
 ---------------------------------------------------------------------
 Rotational constants (GHZ):         161.5908276          13.7089066          13.7089066
 Standard basis: Aug-CC-pVTZ (5D, 7F)
 There are   120 symmetry adapted cartesian basis functions of A'  symmetry.
 There are    69 symmetry adapted cartesian basis functions of A"  symmetry.
 There are   102 symmetry adapted basis functions of A'  symmetry.
 There are    63 symmetry adapted basis functions of A"  symmetry.
   165 basis functions,   267 primitive gaussians,   189 cartesian basis functions
    13 alpha electrons       13 beta electrons
       nuclear repulsion energy        51.9963350832 Hartrees.
 NAtoms=    5 NActive=    5 NUniq=    3 SFac= 2.78D+00 NAtFMM=   60 NAOKFM=F Big=F
 Integral buffers will be    131072 words long.
 Raffenetti 2 integral format.
 Two-electron integral symmetry is turned on.
 One-electron integrals computed using PRISM.
 NBasis=   165 RedAO= T EigKep=  7.34D-05  NBF=   102    63
 NBsUse=   165 1.00D-06 EigRej= -1.00D+00 NBFU=   102    63
 Initial guess from the checkpoint file:  "/dev/shm/edumont/8178222/Gau-60145.chk"
 B after Tr=    -0.000000    0.000000    0.000000
         Rot=    1.000000   -0.000000   -0.000000   -0.000000 Ang=   0.00 deg.
 Initial guess orbital symmetries:
       Occupied  (A1) (A1) (A1) (A1) (E) (E) (A1) (A1) (E) (E)
                 (A1) (E) (E)
       Virtual   (A1) (A1) (E) (E) (A1) (E) (E) (A1) (E) (E) (A1)
                 (E) (E) (A1) (E) (E) (A1) (E) (E) (A1) (E) (E)
                 (A2) (A1) (E) (E) (A1) (E) (E) (E) (E) (A1) (E)
                 (E) (E) (E) (A1) (A1) (E) (E) (A1) (E) (E) (E)
                 (E) (A2) (E) (E) (A1) (E) (E) (A1) (A2) (E) (E)
                 (A1) (A1) (E) (E) (A1) (E) (E) (E) (E) (A2) (E)
                 (E) (A1) (E) (E) (A1) (A1) (E) (E) (A2) (A1) (E)
                 (E) (E) (E) (A1) (E) (E) (A1) (E) (E) (A2) (E)
                 (E) (E) (E) (A1) (A1) (E) (E) (E) (E) (A1) (A1)
                 (E) (E) (A2) (E) (E) (A1) (A1) (A1) (E) (E) (E)
                 (E) (A2) (A1) (E) (E) (E) (E) (E) (E) (E) (E)
                 (A2) (E) (E) (A1) (A1) (E) (E) (E) (E) (A1) (A1)
                 (E) (E) (A1) (A2) (E) (E) (E) (E) (A1) (A1) (E)
                 (E) (A2) (A1) (E) (E) (E) (E) (A1) (A1)
 ExpMin= 2.53D-02 ExpMax= 4.56D+05 ExpMxC= 1.44D+03 IAcc=3 IRadAn=         5 AccDes= 0.00D+00
 Harris functional with IExCor=  402 and IRadAn=       5 diagonalized for initial guess.
 HarFok:  IExCor=  402 AccDes= 0.00D+00 IRadAn=         5 IDoV= 1 UseB2=F ITyADJ=14
 ICtDFT=  3500011 ScaDFX=  1.000000  1.000000  1.000000  1.000000
 FoFCou: FMM=F IPFlag=           0 FMFlag=      100000 FMFlg1=           0
         NFxFlg=           0 DoJE=T BraDBF=F KetDBF=T FulRan=T
         wScrn=  0.000000 ICntrl=       500 IOpCl=  0 I1Cent=   200000004 NGrid=           0
         NMat0=    1 NMatS0=      1 NMatT0=    0 NMatD0=    1 NMtDS0=    0 NMtDT0=    0
 Petite list used in FoFCou.
 Requested convergence on RMS density matrix=1.00D-08 within 128 cycles.
 Requested convergence on MAX density matrix=1.00D-06.
 Requested convergence on             energy=1.00D-06.
 No special actions if energy rises.
 SCF Done:  E(RB3LYP) =  -500.164320512     A.U. after    9 cycles
            NFock=  9  Conv=0.22D-08     -V/T= 2.0030
 Calling FoFJK, ICntrl=      2127 FMM=F ISym2X=1 I1Cent= 0 IOpClX= 0 NMat=1 NMatS=1 NMatT=0.
 ***** Axes restored to original set *****
 -------------------------------------------------------------------
 Center     Atomic                   Forces (Hartrees/Bohr)
 Number     Number              X              Y              Z
 -------------------------------------------------------------------
      1        6           0.014185934   -0.024570759    0.010030970
      2        1          -0.002000333    0.003464678   -0.001038055
      3        1          -0.001645465    0.003464678   -0.001539913
      4        1          -0.002177766    0.003157354   -0.001539913
      5       17          -0.008362370    0.014484050   -0.005913089
 -------------------------------------------------------------------
 Cartesian Forces:  Max     0.024570759 RMS     0.009206930

 GradGradGradGradGradGradGradGradGradGradGradGradGradGradGradGradGradGrad
 Berny optimization.
 Using GEDIIS/GDIIS optimizer.
 FormGI is forming the generalized inverse of G from B-inverse, IUseBI=4.
 Internal  Forces:  Max     0.017739266 RMS     0.005158407
 Search for a local minimum.
 Step number   2 out of a maximum of   24
 All quantities printed in internal units (Hartrees-Bohrs-Radians)
 Mixed Optimization -- RFO/linear search
 Update second derivatives using D2CorX and points    1    2
 DE= -9.58D-03 DEPred=-9.10D-03 R= 1.05D+00
 TightC=F SS=  1.41D+00  RLast= 2.11D-01 DXNew= 5.0454D-01 6.3239D-01
 Trust test= 1.05D+00 RLast= 2.11D-01 DXMaxT set to 5.05D-01
 The second derivative matrix:
                          R1        R2        R3        R4        A1
           R1           0.34810
           R2          -0.00003   0.34810
           R3          -0.00003  -0.00003   0.34810
           R4           0.00481   0.00481   0.00481   0.34398
           A1          -0.00023  -0.00023  -0.00023   0.00724   0.15953
           A2          -0.00028  -0.00028  -0.00028  -0.00744   0.00014
           A3           0.00025   0.00025   0.00025  -0.00020   0.00017
           A4          -0.00028  -0.00028  -0.00028  -0.00744   0.00014
           A5           0.00025   0.00025   0.00025  -0.00020   0.00017
           A6           0.00028   0.00028   0.00028   0.00803  -0.00017
           D1           0.00018   0.00018   0.00018   0.04819  -0.00201
           D2           0.00003   0.00003   0.00003   0.00865  -0.00036
           D3           0.00002   0.00002   0.00002   0.00432  -0.00018
           D4          -0.00002  -0.00002  -0.00002  -0.00432   0.00018
                          A2        A3        A4        A5        A6
           A2           0.16142
           A3          -0.00073   0.16026
           A4           0.00142  -0.00073   0.16142
           A5          -0.00073   0.00026  -0.00073   0.16026
           A6          -0.00145   0.00076  -0.00145   0.00076   0.16148
           D1          -0.00421   0.00299  -0.00421   0.00299   0.00422
           D2          -0.00075   0.00053  -0.00075   0.00053   0.00075
           D3          -0.00038   0.00027  -0.00038   0.00027   0.00038
           D4           0.00038  -0.00027   0.00038  -0.00027  -0.00038
                          D1        D2        D3        D4
           D1           0.00966
           D2           0.00129   0.01800
           D3           0.00065   0.00011   0.01783
           D4          -0.00065  -0.00011  -0.00006   0.01783
 ITU=  1  0
 Use linear search instead of GDIIS.
     Eigenvalues ---    0.05767   0.06481   0.09930   0.16000   0.16080
     Eigenvalues ---    0.34067   0.34813   0.34813   0.35760
 RFO step:  Lambda=-1.04461798D-03 EMin= 5.76687859D-02
 Quartic linear search produced a step of  0.25484.
 Iteration  1 RMS(Cart)=  0.01506030 RMS(Int)=  0.00056854
 Iteration  2 RMS(Cart)=  0.00027134 RMS(Int)=  0.00049315
 Iteration  3 RMS(Cart)=  0.00000004 RMS(Int)=  0.00049315
 ClnCor:  largest displacement from symmetrization is 3.24D-03 for atom     4.
 Variable       Old X    -DE/DX   Delta X   Delta X   Delta X     New X
                                 (Linear)    (Quad)   (Total)
    R1        2.05772  -0.00114  -0.00053  -0.00372  -0.00493   2.05279
    R2        2.05772  -0.00114  -0.00053  -0.00372  -0.00493   2.05279
    R3        2.05772  -0.00114  -0.00053  -0.00372  -0.00493   2.05279
    R4        3.29764   0.01774   0.04884   0.02319   0.07203   3.36968
    A1        1.88453   0.00138  -0.00665   0.02727   0.02277   1.90730
    A2        1.88453   0.00278  -0.00665   0.03232   0.02277   1.90730
    A3        1.93606  -0.00193   0.00648  -0.02900  -0.02211   1.91396
    A4        1.88453   0.00278  -0.00665   0.03232   0.02277   1.90730
    A5        1.93606  -0.00193   0.00648  -0.02900  -0.02211   1.91396
    A6        1.93606  -0.00274   0.00648  -0.02935  -0.02211   1.91396
    D1       -2.03350  -0.00454   0.01552  -0.06594  -0.05278  -2.08628
    D2        2.09440  -0.00082   0.00000  -0.00408   0.00000   2.09440
    D3       -2.09440  -0.00041   0.00000  -0.00204   0.00000  -2.09440
    D4        2.09440   0.00041   0.00000   0.00204   0.00000   2.09440
         Item               Value     Threshold  Converged?
 Maximum Force            0.017739     0.000450     NO 
 RMS     Force            0.005158     0.000300     NO 
 Maximum Displacement     0.033758     0.001800     NO 
 RMS     Displacement     0.014760     0.001200     NO 
 Predicted change in Energy=-8.601571D-04
 GradGradGradGradGradGradGradGradGradGradGradGradGradGradGradGradGradGrad

                          Input orientation:                          
 ---------------------------------------------------------------------
 Center     Atomic      Atomic             Coordinates (Angstroms)
 Number     Number       Type             X           Y           Z
 ---------------------------------------------------------------------
      1          6           0        0.012584   -0.021797    0.008899
      2          1           0        0.014389   -0.024923    1.095183
      3          1           0        1.037345   -0.024923   -0.351495
      4          1           0       -0.497089   -0.910829   -0.351495
      5         17           0       -0.828004    1.434145   -0.585487
 ---------------------------------------------------------------------
                    Distance matrix (angstroms):
                    1          2          3          4          5
     1  C    0.000000
     2  H    1.086291   0.000000
     3  H    1.086291   1.771812   0.000000
     4  H    1.086291   1.771812   1.771812   0.000000
     5  Cl   1.783157   2.379739   2.379739   2.379739   0.000000
 Stoichiometry    CH3Cl
 Framework group  C3V[C3(CCl),3SGV(H)]
 Deg. of freedom     3
 Full point group                 C3V     NOp   6
 Largest Abelian subgroup         CS      NOp   2
 Largest concise Abelian subgroup CS      NOp   2
                         Standard orientation:                         
 ---------------------------------------------------------------------
 Center     Atomic      Atomic             Coordinates (Angstroms)
 Number     Number       Type             X           Y           Z
 ---------------------------------------------------------------------
      1          6           0        0.000000   -0.000000   -1.123737
      2          1           0        0.000000    1.022956   -1.489236
      3          1           0       -0.885906   -0.511478   -1.489236
      4          1           0        0.885906   -0.511478   -1.489236
      5         17           0       -0.000000    0.000000    0.659420
 ---------------------------------------------------------------------
 Rotational constants (GHZ):         159.7338410          13.2533927          13.2533927
 Standard basis: Aug-CC-pVTZ (5D, 7F)
 There are   120 symmetry adapted cartesian basis functions of A'  symmetry.
 There are    69 symmetry adapted cartesian basis functions of A"  symmetry.
 There are   102 symmetry adapted basis functions of A'  symmetry.
 There are    63 symmetry adapted basis functions of A"  symmetry.
   165 basis functions,   267 primitive gaussians,   189 cartesian basis functions
    13 alpha electrons       13 beta electrons
       nuclear repulsion energy        51.2752434096 Hartrees.
 NAtoms=    5 NActive=    5 NUniq=    3 SFac= 2.78D+00 NAtFMM=   60 NAOKFM=F Big=F
 Integral buffers will be    131072 words long.
 Raffenetti 2 integral format.
 Two-electron integral symmetry is turned on.
 One-electron integrals computed using PRISM.
 NBasis=   165 RedAO= T EigKep=  7.50D-05  NBF=   102    63
 NBsUse=   165 1.00D-06 EigRej= -1.00D+00 NBFU=   102    63
 Initial guess from the checkpoint file:  "/dev/shm/edumont/8178222/Gau-60145.chk"
 B after Tr=     0.000000   -0.000000   -0.000000
         Rot=    1.000000    0.000000    0.000000    0.000000 Ang=   0.00 deg.
 Initial guess orbital symmetries:
       Occupied  (A1) (A1) (A1) (A1) (E) (E) (A1) (A1) (E) (E)
                 (A1) (E) (E)
       Virtual   (A1) (A1) (E) (E) (A1) (A1) (E) (E) (E) (E) (A1)
                 (E) (E) (A1) (E) (E) (A1) (E) (E) (E) (E) (A1)
                 (A2) (A1) (E) (E) (A1) (E) (E) (E) (E) (A1) (E)
                 (E) (E) (E) (A1) (A1) (E) (E) (A1) (E) (E) (E)
                 (E) (A2) (E) (E) (A1) (E) (E) (A1) (E) (E) (A2)
                 (A1) (A1) (E) (E) (A1) (E) (E) (E) (E) (A2) (E)
                 (E) (A1) (E) (E) (A1) (A1) (E) (E) (A2) (A1) (E)
                 (E) (E) (E) (A1) (E) (E) (A1) (E) (E) (A2) (E)
                 (E) (E) (E) (A1) (A1) (E) (E) (E) (E) (A1) (E)
                 (E) (A1) (A1) (A2) (E) (E) (A1) (A1) (E) (E) (E)
                 (E) (E) (E) (A2) (A1) (E) (E) (E) (E) (E) (E)
                 (A1) (A2) (E) (E) (A1) (E) (E) (E) (E) (A1) (A1)
                 (E) (E) (A1) (A2) (E) (E) (E) (E) (A1) (A1) (A2)
                 (E) (E) (A1) (E) (E) (E) (E) (A1) (A1)
 ExpMin= 2.53D-02 ExpMax= 4.56D+05 ExpMxC= 1.44D+03 IAcc=3 IRadAn=         5 AccDes= 0.00D+00
 Harris functional with IExCor=  402 and IRadAn=       5 diagonalized for initial guess.
 HarFok:  IExCor=  402 AccDes= 0.00D+00 IRadAn=         5 IDoV= 1 UseB2=F ITyADJ=14
 ICtDFT=  3500011 ScaDFX=  1.000000  1.000000  1.000000  1.000000
 FoFCou: FMM=F IPFlag=           0 FMFlag=      100000 FMFlg1=           0
         NFxFlg=           0 DoJE=T BraDBF=F KetDBF=T FulRan=T
         wScrn=  0.000000 ICntrl=       500 IOpCl=  0 I1Cent=   200000004 NGrid=           0
         NMat0=    1 NMatS0=      1 NMatT0=    0 NMatD0=    1 NMtDS0=    0 NMtDT0=    0
 Petite list used in FoFCou.
 Requested convergence on RMS density matrix=1.00D-08 within 128 cycles.
 Requested convergence on MAX density matrix=1.00D-06.
 Requested convergence on             energy=1.00D-06.
 No special actions if energy rises.
 SCF Done:  E(RB3LYP) =  -500.165533374     A.U. after    8 cycles
            NFock=  8  Conv=0.47D-08     -V/T= 2.0031
 Calling FoFJK, ICntrl=      2127 FMM=F ISym2X=1 I1Cent= 0 IOpClX= 0 NMat=1 NMatS=1 NMatT=0.
 ***** Axes restored to original set *****
 -------------------------------------------------------------------
 Center     Atomic                   Forces (Hartrees/Bohr)
 Number     Number              X              Y              Z
 -------------------------------------------------------------------
      1        6           0.005417740   -0.009383800    0.003830921
      2        1          -0.001329674    0.002303064   -0.000402945
      3        1          -0.000823125    0.002303064   -0.001119314
      4        1          -0.001582949    0.001864379   -0.001119314
      5       17          -0.001681991    0.002913294   -0.001189347
 -------------------------------------------------------------------
 Cartesian Forces:  Max     0.009383800 RMS     0.003331846

 GradGradGradGradGradGradGradGradGradGradGradGradGradGradGradGradGradGrad
 Berny optimization.
 Using GEDIIS/GDIIS optimizer.
 FormGI is forming the generalized inverse of G from B-inverse, IUseBI=4.
 Internal  Forces:  Max     0.003568042 RMS     0.001623244
 Search for a local minimum.
 Step number   3 out of a maximum of   24
 All quantities printed in internal units (Hartrees-Bohrs-Radians)
 Mixed Optimization -- RFO/linear search
 Update second derivatives using D2CorX and points    1    2    3
 DE= -1.21D-03 DEPred=-8.60D-04 R= 1.41D+00
 TightC=F SS=  1.41D+00  RLast= 1.05D-01 DXNew= 8.4853D-01 3.1562D-01
 Trust test= 1.41D+00 RLast= 1.05D-01 DXMaxT set to 5.05D-01
 The second derivative matrix:
                          R1        R2        R3        R4        A1
           R1           0.34759
           R2          -0.00054   0.34759
           R3          -0.00054  -0.00054   0.34759
           R4           0.01265   0.01265   0.01265   0.27022
           A1           0.00203   0.00203   0.00203  -0.03816   0.15318
           A2           0.00122   0.00122   0.00122  -0.03728  -0.00457
           A3          -0.00164  -0.00164  -0.00164   0.03788   0.00556
           A4           0.00122   0.00122   0.00122  -0.03728  -0.00457
           A5          -0.00164  -0.00164  -0.00164   0.03788   0.00556
           A6          -0.00117  -0.00117  -0.00117   0.03691   0.00430
           D1           0.00251   0.00251   0.00251   0.00094  -0.00722
           D2           0.00047   0.00047   0.00047  -0.00037  -0.00133
           D3           0.00024   0.00024   0.00024  -0.00019  -0.00066
           D4          -0.00024  -0.00024  -0.00024   0.00019   0.00066
                          A2        A3        A4        A5        A6
           A2           0.15809
           A3           0.00322   0.15569
           A4          -0.00191   0.00322   0.15809
           A5           0.00322  -0.00431   0.00322   0.15569
           A6           0.00172  -0.00299   0.00172  -0.00299   0.15846
           D1          -0.00856   0.00755  -0.00856   0.00755   0.00834
           D2          -0.00156   0.00138  -0.00156   0.00138   0.00152
           D3          -0.00078   0.00069  -0.00078   0.00069   0.00076
           D4           0.00078  -0.00069   0.00078  -0.00069  -0.00076
                          D1        D2        D3        D4
           D1           0.00682
           D2           0.00078   0.01791
           D3           0.00039   0.00007   0.01781
           D4          -0.00039  -0.00007  -0.00003   0.01781
 ITU=  1  1  0
 Use linear search instead of GDIIS.
     Eigenvalues ---    0.05584   0.06692   0.08037   0.15837   0.16000
     Eigenvalues ---    0.28764   0.34813   0.34813   0.35365
 RFO step:  Lambda=-1.80568967D-04 EMin= 5.58404999D-02
 Quartic linear search produced a step of  0.59648.
 Iteration  1 RMS(Cart)=  0.01280318 RMS(Int)=  0.00069775
 Iteration  2 RMS(Cart)=  0.00028869 RMS(Int)=  0.00063019
 Iteration  3 RMS(Cart)=  0.00000002 RMS(Int)=  0.00063019
 ClnCor:  largest displacement from symmetrization is 8.07D-04 for atom     4.
 Variable       Old X    -DE/DX   Delta X   Delta X   Delta X     New X
                                 (Linear)    (Quad)   (Total)
    R1        2.05279  -0.00041  -0.00294   0.00007  -0.00270   2.05010
    R2        2.05279  -0.00041  -0.00294   0.00007  -0.00270   2.05010
    R3        2.05279  -0.00041  -0.00294   0.00007  -0.00270   2.05010
    R4        3.36968   0.00357   0.04297  -0.00626   0.03671   3.40639
    A1        1.90730   0.00084   0.01358   0.01236   0.02380   1.93110
    A2        1.90730   0.00176   0.01358   0.01061   0.02380   1.93110
    A3        1.91396  -0.00128  -0.01319  -0.01123  -0.02426   1.88969
    A4        1.90730   0.00176   0.01358   0.01061   0.02380   1.93110
    A5        1.91396  -0.00128  -0.01319  -0.01123  -0.02426   1.88969
    A6        1.91396  -0.00178  -0.01319  -0.01089  -0.02426   1.88969
    D1       -2.08628  -0.00314  -0.03148  -0.02779  -0.06036  -2.14664
    D2        2.09440  -0.00055   0.00000   0.00129  -0.00000   2.09440
    D3       -2.09440  -0.00027  -0.00000   0.00065   0.00000  -2.09440
    D4        2.09440   0.00027  -0.00000  -0.00065   0.00000   2.09440
         Item               Value     Threshold  Converged?
 Maximum Force            0.003568     0.000450     NO 
 RMS     Force            0.001623     0.000300     NO 
 Maximum Displacement     0.029414     0.001800     NO 
 RMS     Displacement     0.012767     0.001200     NO 
 Predicted change in Energy=-2.297582D-04
 GradGradGradGradGradGradGradGradGradGradGradGradGradGradGradGradGradGrad

                          Input orientation:                          
 ---------------------------------------------------------------------
 Center     Atomic      Atomic             Coordinates (Angstroms)
 Number     Number       Type             X           Y           Z
 ---------------------------------------------------------------------
      1          6           0        0.021571   -0.037362    0.015253
      2          1           0        0.010213   -0.017689    1.099879
      3          1           0        1.040380   -0.017689   -0.356998
      4          1           0       -0.504871   -0.909840   -0.356998
      5         17           0       -0.828175    1.434441   -0.585608
 ---------------------------------------------------------------------
                    Distance matrix (angstroms):
                    1          2          3          4          5
     1  C    0.000000
     2  H    1.084864   0.000000
     3  H    1.084864   1.784302   0.000000
     4  H    1.084864   1.784302   1.784302   0.000000
     5  Cl   1.802583   2.377486   2.377486   2.377486   0.000000
 Stoichiometry    CH3Cl
 Framework group  C3V[C3(CCl),3SGV(H)]
 Deg. of freedom     3
 Full point group                 C3V     NOp   6
 Largest Abelian subgroup         CS      NOp   2
 Largest concise Abelian subgroup CS      NOp   2
                         Standard orientation:                         
 ---------------------------------------------------------------------
 Center     Atomic      Atomic             Coordinates (Angstroms)
 Number     Number       Type             X           Y           Z
 ---------------------------------------------------------------------
      1          6           0        0.000000   -0.000000   -1.139367
      2          1           0        0.000000    1.030167   -1.479492
      3          1           0       -0.892151   -0.515084   -1.479492
      4          1           0        0.892151   -0.515084   -1.479492
      5         17           0       -0.000000    0.000000    0.663216
 ---------------------------------------------------------------------
 Rotational constants (GHZ):         157.5053640          13.0682921          13.0682921
 Standard basis: Aug-CC-pVTZ (5D, 7F)
 There are   120 symmetry adapted cartesian basis functions of A'  symmetry.
 There are    69 symmetry adapted cartesian basis functions of A"  symmetry.
 There are   102 symmetry adapted basis functions of A'  symmetry.
 There are    63 symmetry adapted basis functions of A"  symmetry.
   165 basis functions,   267 primitive gaussians,   189 cartesian basis functions
    13 alpha electrons       13 beta electrons
       nuclear repulsion energy        50.9650351815 Hartrees.
 NAtoms=    5 NActive=    5 NUniq=    3 SFac= 2.78D+00 NAtFMM=   60 NAOKFM=F Big=F
 Integral buffers will be    131072 words long.
 Raffenetti 2 integral format.
 Two-electron integral symmetry is turned on.
 One-electron integrals computed using PRISM.
 NBasis=   165 RedAO= T EigKep=  7.51D-05  NBF=   102    63
 NBsUse=   165 1.00D-06 EigRej= -1.00D+00 NBFU=   102    63
 Initial guess from the checkpoint file:  "/dev/shm/edumont/8178222/Gau-60145.chk"
 B after Tr=     0.000000   -0.000000    0.000000
         Rot=    1.000000    0.000000    0.000000    0.000000 Ang=   0.00 deg.
 Initial guess orbital symmetries:
       Occupied  (A1) (A1) (A1) (A1) (E) (E) (A1) (A1) (E) (E)
                 (A1) (E) (E)
       Virtual   (A1) (A1) (E) (E) (A1) (A1) (E) (E) (E) (E) (A1)
                 (E) (E) (A1) (E) (E) (A1) (E) (E) (E) (E) (A1)
                 (A2) (A1) (E) (E) (A1) (E) (E) (E) (E) (A1) (E)
                 (E) (E) (E) (A1) (A1) (E) (E) (A1) (E) (E) (E)
                 (E) (A2) (E) (E) (A1) (E) (E) (A1) (E) (E) (A2)
                 (A1) (A1) (E) (E) (A1) (E) (E) (E) (E) (A2) (E)
                 (E) (A1) (E) (E) (A1) (A1) (E) (E) (A2) (E) (E)
                 (A1) (E) (E) (A1) (E) (E) (A1) (E) (E) (A2) (E)
                 (E) (E) (E) (A1) (A1) (E) (E) (E) (E) (A1) (E)
                 (E) (A1) (A1) (A2) (A1) (E) (E) (A1) (E) (E) (E)
                 (E) (E) (E) (A2) (A1) (E) (E) (E) (E) (E) (E)
                 (A1) (A2) (E) (E) (A1) (E) (E) (E) (E) (A1) (A1)
                 (E) (E) (A1) (A2) (E) (E) (E) (E) (A1) (A1) (E)
                 (E) (A2) (A1) (E) (E) (E) (E) (A1) (A1)
 ExpMin= 2.53D-02 ExpMax= 4.56D+05 ExpMxC= 1.44D+03 IAcc=3 IRadAn=         5 AccDes= 0.00D+00
 Harris functional with IExCor=  402 and IRadAn=       5 diagonalized for initial guess.
 HarFok:  IExCor=  402 AccDes= 0.00D+00 IRadAn=         5 IDoV= 1 UseB2=F ITyADJ=14
 ICtDFT=  3500011 ScaDFX=  1.000000  1.000000  1.000000  1.000000
 FoFCou: FMM=F IPFlag=           0 FMFlag=      100000 FMFlg1=           0
         NFxFlg=           0 DoJE=T BraDBF=F KetDBF=T FulRan=T
         wScrn=  0.000000 ICntrl=       500 IOpCl=  0 I1Cent=   200000004 NGrid=           0
         NMat0=    1 NMatS0=      1 NMatT0=    0 NMatD0=    1 NMtDS0=    0 NMtDT0=    0
 Petite list used in FoFCou.
 Requested convergence on RMS density matrix=1.00D-08 within 128 cycles.
 Requested convergence on MAX density matrix=1.00D-06.
 Requested convergence on             energy=1.00D-06.
 No special actions if energy rises.
 SCF Done:  E(RB3LYP) =  -500.165803727     A.U. after    8 cycles
            NFock=  8  Conv=0.64D-08     -V/T= 2.0032
 Calling FoFJK, ICntrl=      2127 FMM=F ISym2X=1 I1Cent= 0 IOpClX= 0 NMat=1 NMatS=1 NMatT=0.
 ***** Axes restored to original set *****
 -------------------------------------------------------------------
 Center     Atomic                   Forces (Hartrees/Bohr)
 Number     Number              X              Y              Z
 -------------------------------------------------------------------
      1        6           0.000131311   -0.000227437    0.000092851
      2        1          -0.000131535    0.000227825   -0.000248503
      3        1          -0.000278136    0.000227825   -0.000041178
      4        1          -0.000058234    0.000354785   -0.000041178
      5       17           0.000336594   -0.000582998    0.000238008
 -------------------------------------------------------------------
 Cartesian Forces:  Max     0.000582998 RMS     0.000255643

 GradGradGradGradGradGradGradGradGradGradGradGradGradGradGradGradGradGrad
 Berny optimization.
 Using GEDIIS/GDIIS optimizer.
 FormGI is forming the generalized inverse of G from B-inverse, IUseBI=4.
 Internal  Forces:  Max     0.000714023 RMS     0.000256672
 Search for a local minimum.
 Step number   4 out of a maximum of   24
 All quantities printed in internal units (Hartrees-Bohrs-Radians)
 Mixed Optimization -- En-DIIS/RFO-DIIS
 Update second derivatives using D2CorX and points    1    2    3    4
 DE= -2.70D-04 DEPred=-2.30D-04 R= 1.18D+00
 TightC=F SS=  1.41D+00  RLast= 9.21D-02 DXNew= 8.4853D-01 2.7624D-01
 Trust test= 1.18D+00 RLast= 9.21D-02 DXMaxT set to 5.05D-01
 The second derivative matrix:
                          R1        R2        R3        R4        A1
           R1           0.34724
           R2          -0.00089   0.34724
           R3          -0.00089  -0.00089   0.34724
           R4           0.01311   0.01311   0.01311   0.26689
           A1           0.00392   0.00392   0.00392  -0.03744   0.14360
           A2           0.00291   0.00291   0.00291  -0.03697  -0.01386
           A3          -0.00347  -0.00347  -0.00347   0.03831   0.01508
           A4           0.00291   0.00291   0.00291  -0.03697  -0.01386
           A5          -0.00347  -0.00347  -0.00347   0.03831   0.01508
           A6          -0.00289  -0.00289  -0.00289   0.03810   0.01366
           D1           0.00312   0.00312   0.00312  -0.00042  -0.00784
           D2           0.00059   0.00059   0.00059  -0.00030  -0.00150
           D3           0.00030   0.00030   0.00030  -0.00015  -0.00075
           D4          -0.00030  -0.00030  -0.00030   0.00015   0.00075
                          A2        A3        A4        A5        A6
           A2           0.15021
           A3           0.01202   0.14639
           A4          -0.00979   0.01202   0.15021
           A5           0.01202  -0.01361   0.01202   0.14639
           A6           0.00975  -0.01191   0.00975  -0.01191   0.15026
           D1          -0.01300   0.00962  -0.01300   0.00962   0.01248
           D2          -0.00240   0.00180  -0.00240   0.00180   0.00231
           D3          -0.00120   0.00090  -0.00120   0.00090   0.00115
           D4           0.00120  -0.00090   0.00120  -0.00090  -0.00115
                          D1        D2        D3        D4
           D1           0.01978
           D2           0.00305   0.01831
           D3           0.00153   0.00027   0.01791
           D4          -0.00153  -0.00027  -0.00013   0.01791
 ITU=  1  1  1  0
 Use linear search instead of GDIIS.
     Eigenvalues ---    0.05112   0.06925   0.07508   0.15849   0.16000
     Eigenvalues ---    0.28194   0.34813   0.34813   0.35214
 RFO step:  Lambda=-3.41388414D-06 EMin= 5.11180705D-02
 Quartic linear search produced a step of  0.03166.
 Iteration  1 RMS(Cart)=  0.00114019 RMS(Int)=  0.00001537
 Iteration  2 RMS(Cart)=  0.00000125 RMS(Int)=  0.00001532
 Iteration  3 RMS(Cart)=  0.00000000 RMS(Int)=  0.00001532
 ClnCor:  largest displacement from symmetrization is 2.36D-05 for atom     4.
 Variable       Old X    -DE/DX   Delta X   Delta X   Delta X     New X
                                 (Linear)    (Quad)   (Total)
    R1        2.05010  -0.00024  -0.00009  -0.00062  -0.00070   2.04939
    R2        2.05010  -0.00024  -0.00009  -0.00062  -0.00070   2.04939
    R3        2.05010  -0.00024  -0.00009  -0.00062  -0.00070   2.04939
    R4        3.40639  -0.00071   0.00116  -0.00249  -0.00132   3.40506
    A1        1.93110   0.00008   0.00075   0.00071   0.00142   1.93252
    A2        1.93110   0.00017   0.00075   0.00068   0.00142   1.93252
    A3        1.88969  -0.00013  -0.00077  -0.00073  -0.00149   1.88820
    A4        1.93110   0.00017   0.00075   0.00068   0.00142   1.93252
    A5        1.88969  -0.00013  -0.00077  -0.00073  -0.00149   1.88820
    A6        1.88969  -0.00017  -0.00077  -0.00071  -0.00149   1.88820
    D1       -2.14664  -0.00033  -0.00191  -0.00184  -0.00379  -2.15043
    D2        2.09440  -0.00005  -0.00000   0.00002  -0.00000   2.09440
    D3       -2.09440  -0.00003   0.00000   0.00001   0.00000  -2.09440
    D4        2.09440   0.00003   0.00000  -0.00001   0.00000   2.09440
         Item               Value     Threshold  Converged?
 Maximum Force            0.000714     0.000450     NO 
 RMS     Force            0.000257     0.000300     YES
 Maximum Displacement     0.002389     0.001800     NO 
 RMS     Displacement     0.001142     0.001200     YES
 Predicted change in Energy=-1.942928D-06
 GradGradGradGradGradGradGradGradGradGradGradGradGradGradGradGradGradGrad

                          Input orientation:                          
 ---------------------------------------------------------------------
 Center     Atomic      Atomic             Coordinates (Angstroms)
 Number     Number       Type             X           Y           Z
 ---------------------------------------------------------------------
      1          6           0        0.021970   -0.038054    0.015535
      2          1           0        0.009809   -0.016990    1.099755
      3          1           0        1.040129   -0.016990   -0.357337
      4          1           0       -0.505351   -0.909273   -0.357337
      5         17           0       -0.827445    1.433177   -0.585092
 ---------------------------------------------------------------------
                    Distance matrix (angstroms):
                    1          2          3          4          5
     1  C    0.000000
     2  H    1.084492   0.000000
     3  H    1.084492   1.784566   0.000000
     4  H    1.084492   1.784566   1.784566   0.000000
     5  Cl   1.801882   2.375434   2.375434   2.375434   0.000000
 Stoichiometry    CH3Cl
 Framework group  C3V[C3(CCl),3SGV(H)]
 Deg. of freedom     3
 Full point group                 C3V     NOp   6
 Largest Abelian subgroup         CS      NOp   2
 Largest concise Abelian subgroup CS      NOp   2
                         Standard orientation:                         
 ---------------------------------------------------------------------
 Center     Atomic      Atomic             Coordinates (Angstroms)
 Number     Number       Type             X           Y           Z
 ---------------------------------------------------------------------
      1          6           0       -0.000000    0.000000   -1.139099
      2          1           0        0.000000    1.030320   -1.477574
      3          1           0       -0.892283   -0.515160   -1.477574
      4          1           0        0.892283   -0.515160   -1.477574
      5         17           0        0.000000   -0.000000    0.662783
 ---------------------------------------------------------------------
 Rotational constants (GHZ):         157.4587498          13.0827844          13.0827844
 Standard basis: Aug-CC-pVTZ (5D, 7F)
 There are   120 symmetry adapted cartesian basis functions of A'  symmetry.
 There are    69 symmetry adapted cartesian basis functions of A"  symmetry.
 There are   102 symmetry adapted basis functions of A'  symmetry.
 There are    63 symmetry adapted basis functions of A"  symmetry.
   165 basis functions,   267 primitive gaussians,   189 cartesian basis functions
    13 alpha electrons       13 beta electrons
       nuclear repulsion energy        50.9893645060 Hartrees.
 NAtoms=    5 NActive=    5 NUniq=    3 SFac= 2.78D+00 NAtFMM=   60 NAOKFM=F Big=F
 Integral buffers will be    131072 words long.
 Raffenetti 2 integral format.
 Two-electron integral symmetry is turned on.
 One-electron integrals computed using PRISM.
 NBasis=   165 RedAO= T EigKep=  7.49D-05  NBF=   102    63
 NBsUse=   165 1.00D-06 EigRej= -1.00D+00 NBFU=   102    63
 Initial guess from the checkpoint file:  "/dev/shm/edumont/8178222/Gau-60145.chk"
 B after Tr=     0.000000    0.000000    0.000000
         Rot=    1.000000   -0.000000    0.000000   -0.000000 Ang=   0.00 deg.
 Initial guess orbital symmetries:
       Occupied  (A1) (A1) (A1) (A1) (E) (E) (A1) (A1) (E) (E)
                 (A1) (E) (E)
       Virtual   (A1) (A1) (E) (E) (A1) (A1) (E) (E) (A1) (E) (E)
                 (E) (E) (A1) (E) (E) (A1) (E) (E) (E) (E) (A1)
                 (A2) (A1) (E) (E) (A1) (E) (E) (E) (E) (A1) (E)
                 (E) (E) (E) (A1) (A1) (E) (E) (A1) (E) (E) (E)
                 (E) (A2) (E) (E) (A1) (E) (E) (A1) (A2) (E) (E)
                 (A1) (A1) (E) (E) (A1) (E) (E) (E) (E) (A2) (E)
                 (E) (A1) (E) (E) (A1) (A1) (E) (E) (A2) (E) (E)
                 (A1) (E) (E) (A1) (E) (E) (A1) (E) (E) (A2) (E)
                 (E) (A1) (E) (E) (A1) (E) (E) (E) (E) (A1) (E)
                 (E) (A1) (A1) (A2) (A1) (E) (E) (A1) (E) (E) (E)
                 (E) (E) (E) (A1) (A2) (E) (E) (E) (E) (E) (E)
                 (A2) (A1) (E) (E) (A1) (E) (E) (E) (E) (A1) (A1)
                 (E) (E) (A1) (A2) (E) (E) (E) (E) (A1) (A1) (E)
                 (E) (A2) (A1) (E) (E) (E) (E) (A1) (A1)
 Requested convergence on RMS density matrix=1.00D-08 within 128 cycles.
 Requested convergence on MAX density matrix=1.00D-06.
 Requested convergence on             energy=1.00D-06.
 No special actions if energy rises.
 SCF Done:  E(RB3LYP) =  -500.165806056     A.U. after    6 cycles
            NFock=  6  Conv=0.65D-08     -V/T= 2.0031
 Calling FoFJK, ICntrl=      2127 FMM=F ISym2X=1 I1Cent= 0 IOpClX= 0 NMat=1 NMatS=1 NMatT=0.
 ***** Axes restored to original set *****
 -------------------------------------------------------------------
 Center     Atomic                   Forces (Hartrees/Bohr)
 Number     Number              X              Y              Z
 -------------------------------------------------------------------
      1        6          -0.000028001    0.000048500   -0.000019800
      2        1          -0.000022404    0.000038805   -0.000024910
      3        1          -0.000030953    0.000038805   -0.000012819
      4        1          -0.000018129    0.000046209   -0.000012819
      5       17           0.000099488   -0.000172318    0.000070349
 -------------------------------------------------------------------
 Cartesian Forces:  Max     0.000172318 RMS     0.000061076

 GradGradGradGradGradGradGradGradGradGradGradGradGradGradGradGradGradGrad
 Berny optimization.
 Using GEDIIS/GDIIS optimizer.
 FormGI is forming the generalized inverse of G from B-inverse, IUseBI=4.
 Internal  Forces:  Max     0.000211046 RMS     0.000061512
 Search for a local minimum.
 Step number   5 out of a maximum of   24
 All quantities printed in internal units (Hartrees-Bohrs-Radians)
 Mixed Optimization -- En-DIIS/RFO-DIIS
 Swapping is turned off.
 Update second derivatives using D2CorX and points    1    2    3    4    5
 DE= -2.33D-06 DEPred=-1.94D-06 R= 1.20D+00
 TightC=F SS=  1.41D+00  RLast= 5.50D-03 DXNew= 8.4853D-01 1.6499D-02
 Trust test= 1.20D+00 RLast= 5.50D-03 DXMaxT set to 5.05D-01
 The second derivative matrix:
                          R1        R2        R3        R4        A1
           R1           0.34728
           R2          -0.00085   0.34728
           R3          -0.00085  -0.00085   0.34728
           R4           0.00485   0.00485   0.00485   0.21798
           A1           0.00690   0.00690   0.00690  -0.01125   0.13654
           A2           0.00537   0.00537   0.00537  -0.01640  -0.02116
           A3          -0.00615  -0.00615  -0.00615   0.01377   0.02243
           A4           0.00537   0.00537   0.00537  -0.01640  -0.02116
           A5          -0.00615  -0.00615  -0.00615   0.01377   0.02243
           A6          -0.00546  -0.00546  -0.00546   0.01616   0.02121
           D1           0.00572   0.00572   0.00572   0.02021  -0.00715
           D2           0.00094   0.00094   0.00094   0.00317  -0.00138
           D3           0.00047   0.00047   0.00047   0.00159  -0.00069
           D4          -0.00047  -0.00047  -0.00047  -0.00159   0.00069
                          A2        A3        A4        A5        A6
           A2           0.14359
           A3           0.01920   0.13893
           A4          -0.01641   0.01920   0.14359
           A5           0.01920  -0.02107   0.01920   0.13893
           A6           0.01669  -0.01938   0.01669  -0.01938   0.14298
           D1          -0.01579   0.01055  -0.01579   0.01055   0.01509
           D2          -0.00285   0.00194  -0.00285   0.00194   0.00271
           D3          -0.00142   0.00097  -0.00142   0.00097   0.00136
           D4           0.00142  -0.00097   0.00142  -0.00097  -0.00136
                          D1        D2        D3        D4
           D1           0.03281
           D2           0.00518   0.01865
           D3           0.00259   0.00044   0.01799
           D4          -0.00259  -0.00044  -0.00022   0.01799
 ITU=  1  1  1  1  0
     Eigenvalues ---    0.05102   0.06939   0.07522   0.15852   0.16000
     Eigenvalues ---    0.22874   0.34636   0.34813   0.34813
 En-DIIS/RFO-DIIS/Sim-DIIS IScMMF=       -3 using points:     5    4
 RFO step:  Lambda=-2.38065073D-07.
 DidBck=F Rises=F RFO-DIIS coefs:    1.16344   -0.16344
 Iteration  1 RMS(Cart)=  0.00029270 RMS(Int)=  0.00000030
 Iteration  2 RMS(Cart)=  0.00000002 RMS(Int)=  0.00000030
 ClnCor:  largest displacement from symmetrization is 2.36D-06 for atom     4.
 Variable       Old X    -DE/DX   Delta X   Delta X   Delta X     New X
                                 (Linear)    (Quad)   (Total)
    R1        2.04939  -0.00002  -0.00011   0.00005  -0.00007   2.04932
    R2        2.04939  -0.00002  -0.00011   0.00005  -0.00007   2.04932
    R3        2.04939  -0.00002  -0.00011   0.00005  -0.00007   2.04932
    R4        3.40506  -0.00021  -0.00022  -0.00062  -0.00084   3.40423
    A1        1.93252   0.00001   0.00023  -0.00004   0.00019   1.93271
    A2        1.93252   0.00003   0.00023  -0.00004   0.00019   1.93271
    A3        1.88820  -0.00002  -0.00024   0.00004  -0.00020   1.88800
    A4        1.93252   0.00003   0.00023  -0.00004   0.00019   1.93271
    A5        1.88820  -0.00002  -0.00024   0.00004  -0.00020   1.88800
    A6        1.88820  -0.00003  -0.00024   0.00004  -0.00020   1.88800
    D1       -2.15043  -0.00006  -0.00062   0.00010  -0.00052  -2.15094
    D2        2.09440  -0.00001   0.00000  -0.00000   0.00000   2.09440
    D3       -2.09440  -0.00000  -0.00000  -0.00000   0.00000  -2.09440
    D4        2.09440   0.00000   0.00000   0.00000   0.00000   2.09440
         Item               Value     Threshold  Converged?
 Maximum Force            0.000211     0.000450     YES
 RMS     Force            0.000062     0.000300     YES
 Maximum Displacement     0.000750     0.001800     YES
 RMS     Displacement     0.000293     0.001200     YES
 Predicted change in Energy=-1.190328D-07
 Optimization completed.
    -- Stationary point found.
                           ----------------------------
                           !   Optimized Parameters   !
                           ! (Angstroms and Degrees)  !
 --------------------------                            --------------------------
 ! Name  Definition              Value          Derivative Info.                !
 --------------------------------------------------------------------------------
 ! R1    R(1,2)                  1.0845         -DE/DX =    0.0                 !
 ! R2    R(1,3)                  1.0845         -DE/DX =    0.0                 !
 ! R3    R(1,4)                  1.0845         -DE/DX =    0.0                 !
 ! R4    R(1,5)                  1.8019         -DE/DX =   -0.0002              !
 ! A1    A(2,1,3)              110.7252         -DE/DX =    0.0                 !
 ! A2    A(2,1,4)              110.7252         -DE/DX =    0.0                 !
 ! A3    A(2,1,5)              108.1861         -DE/DX =    0.0                 !
 ! A4    A(3,1,4)              110.7252         -DE/DX =    0.0                 !
 ! A5    A(3,1,5)              108.1861         -DE/DX =    0.0                 !
 ! A6    A(4,1,5)              108.1861         -DE/DX =    0.0                 !
 ! D1    D(2,1,4,3)           -123.2104         -DE/DX =   -0.0001              !
 ! D2    D(2,1,5,3)            120.0            -DE/DX =    0.0                 !
 ! D3    D(2,1,5,4)           -120.0            -DE/DX =    0.0                 !
 ! D4    D(3,1,5,4)            120.0            -DE/DX =    0.0                 !
 --------------------------------------------------------------------------------
 GradGradGradGradGradGradGradGradGradGradGradGradGradGradGradGradGradGrad

                          Input orientation:                          
 ---------------------------------------------------------------------
 Center     Atomic      Atomic             Coordinates (Angstroms)
 Number     Number       Type             X           Y           Z
 ---------------------------------------------------------------------
      1          6           0        0.021970   -0.038054    0.015535
      2          1           0        0.009809   -0.016990    1.099755
      3          1           0        1.040129   -0.016990   -0.357337
      4          1           0       -0.505351   -0.909273   -0.357337
      5         17           0       -0.827445    1.433177   -0.585092
 ---------------------------------------------------------------------
                    Distance matrix (angstroms):
                    1          2          3          4          5
     1  C    0.000000
     2  H    1.084492   0.000000
     3  H    1.084492   1.784566   0.000000
     4  H    1.084492   1.784566   1.784566   0.000000
     5  Cl   1.801882   2.375434   2.375434   2.375434   0.000000
 Stoichiometry    CH3Cl
 Framework group  C3V[C3(CCl),3SGV(H)]
 Deg. of freedom     3
 Full point group                 C3V     NOp   6
 Largest Abelian subgroup         CS      NOp   2
 Largest concise Abelian subgroup CS      NOp   2
                         Standard orientation:                         
 ---------------------------------------------------------------------
 Center     Atomic      Atomic             Coordinates (Angstroms)
 Number     Number       Type             X           Y           Z
 ---------------------------------------------------------------------
      1          6           0        0.000000   -0.000000   -1.139099
      2          1           0        0.000000    1.030320   -1.477574
      3          1           0       -0.892283   -0.515160   -1.477574
      4          1           0        0.892283   -0.515160   -1.477574
      5         17           0       -0.000000    0.000000    0.662783
 ---------------------------------------------------------------------
 Rotational constants (GHZ):         157.4587498          13.0827844          13.0827844

 **********************************************************************

            Population analysis using the SCF Density.

 **********************************************************************

 Orbital symmetries:
       Occupied  (A1) (A1) (A1) (A1) (E) (E) (A1) (A1) (E) (E)
                 (A1) (E) (E)
       Virtual   (A1) (A1) (E) (E) (A1) (A1) (E) (E) (A1) (E) (E)
                 (E) (E) (A1) (E) (E) (A1) (E) (E) (E) (E) (A1)
                 (A2) (A1) (E) (E) (A1) (E) (E) (E) (E) (A1) (E)
                 (E) (E) (E) (A1) (A1) (E) (E) (A1) (E) (E) (E)
                 (E) (A2) (E) (E) (A1) (E) (E) (A1) (A2) (E) (E)
                 (A1) (A1) (E) (E) (A1) (E) (E) (E) (E) (A2) (E)
                 (E) (A1) (E) (E) (A1) (A1) (E) (E) (A2) (A1) (E)
                 (E) (E) (E) (A1) (E) (E) (A1) (E) (E) (A2) (E)
                 (E) (A1) (E) (E) (A1) (E) (E) (E) (E) (A1) (E)
                 (E) (A1) (A1) (A2) (A1) (E) (E) (A1) (E) (E) (E)
                 (E) (E) (E) (A1) (A2) (E) (E) (E) (E) (E) (E)
                 (A2) (A1) (E) (E) (A1) (E) (E) (E) (E) (A1) (A1)
                 (E) (E) (A1) (A2) (E) (E) (E) (E) (A1) (A1) (E)
                 (E) (A2) (A1) (E) (E) (E) (E) (A1) (A1)
 The electronic state is 1-A1.
 Alpha  occ. eigenvalues -- -101.55308 -10.23382  -9.45737  -7.22067  -7.21149
 Alpha  occ. eigenvalues --   -7.21149  -0.85267  -0.68429  -0.45640  -0.45640
 Alpha  occ. eigenvalues --   -0.41577  -0.30327  -0.30327
 Alpha virt. eigenvalues --   -0.01798   0.00182   0.01896   0.01896   0.04983
 Alpha virt. eigenvalues --    0.07497   0.08246   0.08246   0.08767   0.08880
 Alpha virt. eigenvalues --    0.08880   0.11290   0.11290   0.17164   0.18762
 Alpha virt. eigenvalues --    0.18762   0.21353   0.24024   0.24024   0.26465
 Alpha virt. eigenvalues --    0.26465   0.26768   0.27544   0.30472   0.32620
 Alpha virt. eigenvalues --    0.32620   0.33460   0.34434   0.34434   0.38505
 Alpha virt. eigenvalues --    0.38505   0.38958   0.41687   0.41687   0.51713
 Alpha virt. eigenvalues --    0.51713   0.56799   0.57693   0.64406   0.64406
 Alpha virt. eigenvalues --    0.65695   0.70145   0.70145   0.71834   0.71834
 Alpha virt. eigenvalues --    0.73799   0.75014   0.75014   0.79046   0.80914
 Alpha virt. eigenvalues --    0.80914   0.81648   0.87243   0.87296   0.87296
 Alpha virt. eigenvalues --    0.88309   0.91751   0.93903   0.93903   0.97222
 Alpha virt. eigenvalues --    0.97879   0.97879   1.02795   1.02795   1.10191
 Alpha virt. eigenvalues --    1.11082   1.11082   1.20738   1.21873   1.21873
 Alpha virt. eigenvalues --    1.29571   1.36273   1.37342   1.37342   1.44154
 Alpha virt. eigenvalues --    1.46216   1.46219   1.46219   1.48914   1.48914
 Alpha virt. eigenvalues --    1.52977   1.60403   1.60403   1.69190   1.71059
 Alpha virt. eigenvalues --    1.71059   1.77314   1.82426   1.82426   1.95384
 Alpha virt. eigenvalues --    1.96821   1.96821   2.18770   2.28114   2.28114
 Alpha virt. eigenvalues --    2.33292   2.33292   2.37850   2.56044   2.56044
 Alpha virt. eigenvalues --    2.65273   2.68215   2.76149   2.79992   2.81002
 Alpha virt. eigenvalues --    2.81002   2.84429   2.91404   2.91404   3.01570
 Alpha virt. eigenvalues --    3.01570   3.21729   3.21729   3.23293   3.24418
 Alpha virt. eigenvalues --    3.26088   3.26088   3.45135   3.45135   3.56952
 Alpha virt. eigenvalues --    3.56952   3.72329   3.72745   3.74249   3.74249
 Alpha virt. eigenvalues --    3.81197   3.87735   3.87735   4.14544   4.14544
 Alpha virt. eigenvalues --    4.16108   4.36339   4.39525   4.39525   4.50999
 Alpha virt. eigenvalues --    4.56878   4.65977   4.65977   4.82988   4.82988
 Alpha virt. eigenvalues --    4.86593   5.16116   5.16355   5.16355   5.30684
 Alpha virt. eigenvalues --    5.56747   5.66858   5.66858   6.20854   6.20854
 Alpha virt. eigenvalues --    6.99750  16.01061
          Condensed to atoms (all electrons):
               1          2          3          4          5
     1  C    5.219939   0.398021   0.398021   0.398021   0.096865
     2  H    0.398021   0.376003   0.001251   0.001251  -0.008344
     3  H    0.398021   0.001251   0.376003   0.001251  -0.008344
     4  H    0.398021   0.001251   0.001251   0.376003  -0.008344
     5  Cl   0.096865  -0.008344  -0.008344  -0.008344  17.112755
 Mulliken charges:
               1
     1  C   -0.510866
     2  H    0.231818
     3  H    0.231818
     4  H    0.231818
     5  Cl  -0.184587
 Sum of Mulliken charges =  -0.00000
 Mulliken charges with hydrogens summed into heavy atoms:
               1
     1  C    0.184587
     5  Cl  -0.184587
 Electronic spatial extent (au):  <R**2>=            132.7140
 Charge=             -0.0000 electrons
 Dipole moment (field-independent basis, Debye):
    X=             -0.0000    Y=             -0.0000    Z=             -1.9870  Tot=              1.9870
 Quadrupole moment (field-independent basis, Debye-Ang):
   XX=            -20.0739   YY=            -20.0739   ZZ=            -18.3374
   XY=             -0.0000   XZ=             -0.0000   YZ=              0.0000
 Traceless Quadrupole moment (field-independent basis, Debye-Ang):
   XX=             -0.5788   YY=             -0.5788   ZZ=              1.1576
   XY=             -0.0000   XZ=             -0.0000   YZ=              0.0000
 Octapole moment (field-independent basis, Debye-Ang**2):
  XXX=             -0.0000  YYY=              0.7950  ZZZ=              2.0646  XYY=              0.0000
  XXY=             -0.7950  XXZ=             -0.9974  XZZ=              0.0000  YZZ=             -0.0000
  YYZ=             -0.9974  XYZ=              0.0000
 Hexadecapole moment (field-independent basis, Debye-Ang**3):
 XXXX=            -29.7734 YYYY=            -29.7734 ZZZZ=           -120.2506 XXXY=             -0.0000
 XXXZ=             -0.0000 YYYX=             -0.0000 YYYZ=             -1.1730 ZZZX=             -0.0000
 ZZZY=              0.0000 XXYY=             -9.9245 XXZZ=            -25.0425 YYZZ=            -25.0425
 XXYZ=              1.1730 YYXZ=             -0.0000 ZZXY=             -0.0000
 N-N= 5.098936450600D+01 E-N=-1.288223039906D+03  KE= 4.985977582550D+02
 Symmetry A'   KE= 4.508127249266D+02
 Symmetry A"   KE= 4.778503332844D+01
 B after Tr=     0.053218   -0.092177    0.037630
         Rot=    1.000000    0.000001    0.000002   -0.000002 Ang=   0.00 deg.
 Final structure in terms of initial Z-matrix:
 C
 H,1,hc2
 H,1,hc3,2,hch3
 H,1,hc4,3,hch4,2,dih4,0
 Cl,1,clc5,4,clch5,3,dih5,0
      Variables:
 hc2=1.0844925
 hc3=1.0844925
 hch3=110.72519705
 hc4=1.0844925
 hch4=110.72519705
 dih4=-123.21038966
 clc5=1.80188234
 clch5=108.18610203
 dih5=118.39480517
 1\1\GINC-XLR178NODE089\FOpt\RB3LYP\Aug-CC-pVTZ\C1H3Cl1\EDUMONT\29-Jan-
 2021\0\\#n b3lyp/aug-cc-pvtz opt freq=anharm\\Energy of chloromethane 
 using the AM1 hamiltonian\\0,1\C,0.0219704487,-0.0380539335,0.01553545
 33\H,0.0098091286,-0.0169899092,1.0997551654\H,1.0401288231,-0.0169899
 092,-0.35733692\H,-0.5053507186,-0.9092729386,-0.35733692\Cl,-0.827445
 0318,1.4331768356,-0.5850919931\\Version=ES64L-G16RevB.01\State=1-A1\H
 F=-500.1658061\RMSD=6.495e-09\RMSF=6.108e-05\Dipole=0.3685189,-0.63829
 34,0.2605822\Quadrupole=-0.1434449,0.4303347,-0.2868898,-0.4969077,0.2
 028617,-0.3513668\PG=C03V [C3(C1Cl1),3SGV(H1)]\\@


     SCHOPENHAUER'S LAW OF ENTROPY
 IF YOU PUT A SPOONFUL OF WINE IN A BARREL FULL
 OF SEWAGE, YOU GET SEWAGE.
 IF YOU PUT A SPOONFUL OF SEWAGE IN A BARREL FULL
 OF WINE, YOU GET SEWAGE.
 Job cpu time:       0 days  0 hours  2 minutes 58.9 seconds.
 Elapsed time:       0 days  0 hours  2 minutes 59.1 seconds.
 File lengths (MBytes):  RWF=     23 Int=      0 D2E=      0 Chk=      3 Scr=      1
 Normal termination of Gaussian 16 at Fri Jan 29 22:07:22 2021.
 Link1:  Proceeding to internal job step number  2.
 ----------------------------------------------------------------------
 #N Geom=AllCheck Guess=TCheck SCRF=Check GenChk RB3LYP/Aug-CC-pVTZ Fre
 q
 ----------------------------------------------------------------------
 1/10=4,29=7,30=1,38=21,40=1,80=1/1,6,3;
 2/12=2,40=1/2;
 3/5=16,6=1,7=10,11=2,14=-4,25=1,30=1,70=2,71=2,74=-5,116=1,140=1/1,2,3;
 4/5=101,69=2/1;
 5/5=2,38=6,98=1/2;
 8/6=4,10=90,11=11/1;
 11/6=1,8=1,9=11,15=111,16=1/1,2,10;
 10/6=1,60=-2/2;
 6/7=2,8=2,9=2,10=2,28=1/1;
 7/10=1,25=1,71=2/1,2,3,16;
 1/38=20,80=1/6(3);
 7/8=1,25=202,44=-1,71=1,92=10/16,17;
 1/10=4,30=1,38=20,80=1/3;
 99//99;
 3/5=16,6=1,7=10,11=2,14=-2,25=1,30=1,70=5,71=2,74=-5,116=1,140=1/1,2,3;
 4/5=5,16=3,69=2/1;
 5/5=2,38=5,98=1/2;
 8/6=4,10=90,11=11/1;
 11/6=1,8=1,9=11,15=111,16=1/1,2,10;
 10/6=1,60=-2/2;
 6/7=2,8=2,9=2,10=2,28=1/1;
 7/7=1,10=1,25=1,71=1/1,2,3,16;
 1/38=20,80=1/6(-8);
 7/8=1,25=202,44=-1,71=1,92=10/16,17;
 1/10=4,30=1,38=20,80=1/3;
 99//99;
 Structure from the checkpoint file:  "/dev/shm/edumont/8178222/Gau-60145.chk"
 -------------------------------------------------
 Energy of chloromethane using the AM1 hamiltonian
 -------------------------------------------------
 Charge =  0 Multiplicity = 1
 Redundant internal coordinates found in file.  (old form).
 C,0,0.0219704487,-0.0380539335,0.0155354533
 H,0,0.0098091286,-0.0169899092,1.0997551654
 H,0,1.0401288231,-0.0169899092,-0.35733692
 H,0,-0.5053507186,-0.9092729386,-0.35733692
[...]
 9,0.01924305,-0.00893699,-0.00202629,0.00434508,-0.03332994,-0.0085503
 5,0.00093610,0.01850147,-0.03204549,-0.04213510,-0.01400338,0.02425456
 ,0.02877604,0.05608476,0.05500302,0.03376252,0.00841738,0.00037550,-0.
 00577522,-0.04295248,0.05930259,0.01094927,-0.01222997,0.00014137,-0.0
 0432256,-0.00047516,-0.04046305,-0.00066174,0.04059163,-0.00998866,-0.
 04919837,-0.00803425,-0.00068374,0.00968677,-0.03204651,0.01872872,0.0
 3329350,0.07172892,0.05027043,-0.00628979,-0.00091376,0.00552870,0.003
 29911,-0.02377591,-0.01513051,0.00174216,-0.04627646,0.04597087,-0.004
 69490,-0.03535418,0.00576283,0.00500859,0.00476391,-0.01179246,-0.0082
 3193,-0.00613737,-0.03854395,0.00266224,-0.01164538,-0.04014771,-0.049
 19837,0.00460926,0.00661599,0.00968677,0.00444404,-0.00457744,0.004440
 65,-0.00019629,0.03711745,0.03329350,0.00348357,0.00096277,-0.00040071
 ,-0.00057195,0.00467244,-0.00202198,0.00222626,-0.00385040,-0.00225303
 ,-0.00076279,-0.00139729,0.00278837,-0.00437510,0.00096276,0.00237187,
 0.00069405,0.00467244,-0.00596722,0.00350218,-0.00312301,0.00226696,-0
 .00191894,-0.00212467,0.00525601,0.00099171,-0.00038752,-0.00392763,-0
 .00113266,0.00196181,-0.00585195,-0.00181469,0.00314313,-0.00601448,-0
 .00038483,-0.00144614,0.00177746,0.00144481,-0.00038980,0.00177746,0.0
 0188736,-0.00326899,0.00831152,0.02252203,-0.01300310,-0.02252204,-0.1
 6985070,-0.09806334,0.,-0.01518863,0.00915873,0.08671739,0.00026696,0.
 00837958,0.01518863,0.05006630,-0.00015413,-0.00026696,0.07839883,0.04
 526358,0.,-0.06460103,-0.03729742,0.,0.00317107,-0.00390434,0.05200917
 ,0.01086904,-0.00024594,-0.00868987,-0.00665301,-0.00281897,0.01135132
 ,0.00355352,-0.00051881,-0.00748777,0.00039891,-0.00025598,0.00067993,
 0.05680926,0.00435220,-0.04541165,-0.01260890,-0.00006583,0.02048696,-
 0.04473776,-0.00781145,0.02386736,-0.00639498,0.00468029,0.02908202,0.
 00322971,-0.00762111,-0.00399947,-0.00103456,0.00059730,0.00146411,0.0
 0137498,0.00576567,-0.00812741,0.04326450,-0.00789398,-0.00661098,-0.0
 0772510,0.00059730,0.00103456,0.00089592,0.00330324,0.00459810,0.03217
 375,0.04702216,0.04541165,-0.00636146,-0.01088671,-0.02048696,0.001507
 94,0.00082000,0.,-0.02913380,-0.03483831,-0.02386737,-0.00410950,0.003
 06841,0.00204212,0.00082291,-0.00035840,-0.00110846,-0.00635254,0.0029
 9645,-0.00092671,0.00282484,-0.00177223,0.00181357,0.00681429,0.001676
 82,0.00410950,0.00117901,-0.00059182,-0.00082291,-0.00063997,0.0038089
 6,-0.00557804,0.00262917,-0.00095973,0.00910574,-0.00211714,-0.0039342
 3,-0.00681430,0.00246887,0.00142540,0.,-0.00314599,-0.00181634,0.,-0.0
 0008949,0.00303903,0.00105733,0.00258713,-0.00159701,-0.00105732,-0.00
 182052,-0.00105107,0.,-0.57484122,-0.29734972,-0.23149134,0.12131791,-
 0.21012879,-0.66058881,-0.05887861,0.00505580,-0.00732827,0.06337962,0
 .00505580,-0.06471655,0.01269294,-0.00163300,0.06526524,-0.01191170,0.
 02063168,0.61580154,0.01359305,-0.02354385,-0.61827294,0.53488786,0.02
 126405,-0.22189223,-0.00462489,0.00085002,0.00312291,-0.53408762,0.013
 77872,-0.06468516,0.00050216,-0.00104871,-0.00134748,0.00127438,-0.022
 87271,0.06523281,-0.21730541,-0.00214110,0.02224612,-0.02394619,-0.001
 41376,0.00273697,0.22487741,0.00634313,-0.02101878,0.10038206,0.264640
 76,0.11051124,-0.00225287,-0.00241819,-0.00266510,0.00549484,0.0180788
 1,0.01045946,-0.10440564,0.27212609,0.36982064,0.19241539,-0.00051947,
 -0.00371950,-0.00206733,-0.00211942,-0.00371932,0.00019801,-0.27094971
 ,-0.36444917,0.11050696,0.18712146,0.02224612,0.01319745,0.02003113,0.
 00273697,-0.00540121,-0.00895915,-0.00500661,-0.11793202,-0.19157799,-
 0.02101878,-0.00155009,0.00638911,-0.00260865,0.00237675,-0.00185463,-
 0.00213916,-0.00167019,-0.00793611,0.00591474,0.00078162,0.00146251,-0
 .00037118,0.00006191,0.00638911,-0.00892760,0.00451830,-0.00185463,0.0
 0451829,0.00370513,0.00287806,0.00451915,-0.00298627,-0.00935166,0.002
 06734,-0.00661545,0.00193912,-0.00217719,-0.00260775,0.00451675,0.0002
 9503,0.00448396,-0.00776645,-0.00300254,-0.00070688,0.00083949,0.00104
 230,-0.00037358,0.00103192,0.00104230,-0.00079575,0.00137828,0.0006229
 1,0.62159048,0.22681792,0.35968370,-0.07505779,0.13000391,-0.98107304,
 -0.11655303,-0.00345387,-0.00945759,0.10342411,-0.00345387,-0.11256484
 ,0.01638102,0.00163247,0.10153910,-0.00390480,0.00676332,0.94120770,0.
 00902681,-0.01563489,-0.91679550,-0.41806275,-0.01802990,0.14875218,0.
 00859959,0.00118336,-0.00219147,0.41015939,-0.01130538,0.04779404,0.00
 162011,0.00033308,-0.00111054,-0.00149022,0.01823797,-0.04647575,0.171
 11214,0.00207392,0.01412395,-0.01157863,0.00017125,-0.00921698,-0.1505
 5004,-0.00471269,-0.00766127,-0.08137271,-0.20569347,-0.07577915,0.001
 97363,0.00415858,0.00238631,-0.00324981,-0.01367375,-0.00528339,0.0834
 7758,-0.21241798,-0.28889600,-0.12801311,0.00500886,0.00551542,0.00115
 276,0.00264578,0.00311720,-0.00026908,0.20684780,0.28020606,-0.0873521
 4,-0.14715050,0.01412395,0.00564100,0.01011301,-0.00921698,0.00287472,
 0.00444101,0.00358264,0.07935633,0.12802382,-0.00766127,-0.00560199,0.
 00035932,0.01154234,0.00255569,-0.00352054,-0.00531683,0.00255358,0.00
 640808,-0.00370008,-0.00082870,-0.00208446,-0.00051991,0.00132142,0.00
 035931,-0.00601689,-0.01999193,-0.00352054,0.00662087,0.00920902,-0.00
 403721,-0.00332494,0.00273659,0.00836084,0.00005733,0.00457266,-0.0011
 6240,0.00266365,-0.00479741,0.00830935,0.01161744,0.00636840,-0.011030
 40,-0.00597823,0.00111461,0.00014179,-0.00082834,-0.00068010,-0.000894
 39,-0.00082834,-0.00200551,0.00347365,-0.00398253,-0.62292981,0.359648
 70,0.62292980,0.47101142,0.27193858,0.,0.00973500,-0.00666714,-0.00581
 365,-0.00488905,-0.00457387,-0.00973500,-0.00335651,0.00282269,0.00488
 905,-0.02842255,-0.01640977,0.,0.02168795,0.01252155,0.,0.70489416,-0.
 00415955,-0.30083499,-0.00838953,-0.00081028,0.00442843,-0.68438454,0.
 01019611,-0.10228868,-0.00918725,0.00083591,-0.00192240,0.00036394,-0.
 00608860,0.09031763,-0.29434146,-0.00521745,0.01434050,-0.01182253,0.0
 0103567,0.00732267,0.29149099,0.00513161,-0.02266002,-0.10212094,-0.35
 820739,-0.15837389,0.00352808,0.00197085,0.00252940,-0.00816648,0.0047
 1492,0.00649169,0.10863080,-0.34385173,-0.50048454,-0.25593711,0.00361
 704,0.00678384,0.00365317,0.00471492,0.00816648,0.00485187,0.33850018,
 0.48543613,-0.15168917,-0.25229846,-0.01434050,-0.00501435,-0.01075644
 ,-0.00732268,0.00744769,0.00319603,0.,0.15018959,0.24987280,0.02266002
 ,0.01042159,0.00938538,-0.00598889,0.00001550,0.00059062,-0.00022323,-
 0.00395360,-0.00965834,0.00818132,-0.00187146,-0.00298041,-0.00093376,
 -0.00461202,-0.02141921,-0.01042158,-0.00345770,-0.00060851,-0.0000154
 9,-0.00012888,0.00634351,0.00572697,-0.00580170,0.01302145,0.00009809,
 0.00998608,0.00266276,0.00461202,0.00344176,0.00198710,0.,0.00096258,0
 .00055574,0.,-0.00253212,0.00049568,0.00099684,-0.00083679,-0.00244072
 ,-0.00099684,-0.00103543,-0.00059780,0.,0.03560716,-0.04310921,0.08538
 395,0.03639286,-0.06302337,0.01353930,-0.00910042,-0.00535577,-0.00928
 663,0.00859881,-0.00535491,-0.00291576,0.01608612,0.00882328,-0.001589
 24,-0.00850153,0.01472740,-0.02686412,0.01289147,-0.02232840,0.0199223
 3,0.00026271,-0.00565629,-0.00872017,0.00049035,-0.00148511,-0.0006673
 6,-0.00096352,-0.00626277,-0.00504969,0.00145699,-0.00164332,0.0024652
 3,0.00001427,0.00451515,0.00261296,-0.00618302,0.00017975,0.00861033,-
 0.00161217,0.00025968,0.00028787,0.00575849,-0.00073827,-0.01187055,-0
 .00887446,-0.00097841,0.00309764,0.00061775,-0.00171581,0.00032061,-0.
 00068581,0.00007954,-0.00070701,0.00562684,-0.00036404,0.00410020,0.00
 828321,-0.00155734,0.00234021,0.00058352,-0.00063637,-0.00036652,-0.00
 080842,0.00070763,-0.00397998,0.00293269,0.00544241,0.00860913,0.00058
 086,0.00152574,0.00028717,0.00105667,0.00020865,0.00187931,-0.00224079
 ,-0.00535789,-0.01186920,-0.01789374,0.05513117,-0.02155420,-0.0005228
 5,-0.00022812,-0.00403965,0.00082168,0.00331180,0.00270893,0.00330980,
 0.00188633,-0.00229779,0.01428120,0.05512244,-0.08155384,0.03731916,-0
 .00022753,-0.00026220,0.00699708,0.00333848,0.00031100,0.00109081,0.00
 186778,-0.00218963,-0.00179702,-0.06020847,0.08381467,-0.02449561,0.04
 242199,-0.00362510,-0.00257855,0.00446557,0.00623968,0.00256557,-0.000
 94968,0.00108980,-0.00046008,-0.00269856,0.00109035,0.02503872,-0.0433
 6063,-0.00493015,-0.09261973,-0.08206196,0.00213585,0.06078826,-0.1052
 7744,-0.33778307,-0.04684077,0.01976930,-0.01796945,0.04805904,0.01977
 015,-0.06966804,0.03112519,-0.02131038,0.07266635,-0.01251476,0.021678
 52,0.31535991,0.02653974,-0.04596791,-0.31484573,0.11607031,0.00172169
 ,-0.06762237,-0.00086077,0.00001479,-0.00314814,-0.11196282,0.00074202
 ,-0.01498444,0.01263075,0.00001864,-0.00020439,0.00140975,-0.00324035,
 0.01901398,-0.06429766,0.01072959,0.00577649,-0.01297764,0.00155196,0.
 00184157,0.06803379,-0.00933133,-0.00927220,0.01885431,0.05687874,0.02
 287198,-0.00035313,-0.00027339,0.00035248,-0.00422847,0.00055687,0.003
 65519,-0.01653868,0.05786629,0.08224431,0.06488090,-0.00027698,-0.0007
 0967,0.00342968,-0.00250147,-0.00310795,-0.00242684,-0.05833611,-0.076
 41248,0.02285357,0.06104609,0.00577529,0.00514444,0.01201466,0.0018408
 7,0.00027715,-0.00437834,0.00131197,-0.02593663,-0.06358642,-0.0092708
 5,0.00453712,0.00372374,0.00186107,0.00007926,0.00183815,-0.01122579,0
 .00090716,0.00192322,0.00555154,0.00226008,0.00328447,-0.00230690,-0.0
 0778753,0.00371500,0.00023718,-0.00323730,0.00183874,-0.00204601,0.019
 44384,0.00408120,-0.00074421,-0.00053984,0.00113463,-0.00210993,-0.005
 07410,-0.01087699,0.00478309,-0.00668403,0.01157141,0.01114092,-0.0007
 4213,0.00128480,-0.00432368,0.00245277,-0.00033889,0.00033893,-0.00093
 265,-0.00229545,0.00033948,0.00597613,-0.01034326,-0.00763104,-0.25336
 264,-0.14911164,-0.08118489,0.07074472,-0.12252240,-0.09421372,-0.0161
 2312,-0.00588008,-0.01054813,0.02163902,-0.00587975,-0.00933334,0.0182
 7081,0.01185331,0.00795202,-0.01191106,0.02063365,0.04576571,0.0150274
 3,-0.02602794,-0.05270162,0.24176320,0.00782749,-0.09955691,-0.0042997
 5,-0.00024433,0.00034384,-0.23530053,0.01172481,-0.06827914,0.00752442
 ,-0.00190745,0.00305228,0.00101138,-0.02311989,0.06996328,-0.10028957,
 0.00834978,0.02288787,-0.00713004,-0.00054538,-0.00089967,0.10005789,-
 0.00830349,-0.02270356,0.01770572,0.14109322,0.04326141,0.00028317,-0.
 00455281,-0.00104871,0.00514555,0.01316408,0.00167864,-0.02637783,0.13
 720549,0.15579137,0.08998471,-0.00288895,-0.00152899,0.00020623,0.0035
 3956,-0.00450148,-0.00011502,-0.14374464,-0.13896127,0.04290936,0.0910
 2555,0.02288654,0.00403694,0.00590191,-0.00090043,-0.00073669,-0.00151
 037,-0.00075483,-0.04283860,-0.09080693,-0.02270184,0.01001807,0.00610
 251,-0.00397159,-0.00141569,-0.00113711,-0.00240796,-0.00738307,0.0001
 3885,0.00564832,0.00323750,0.00592475,-0.00333937,-0.00446078,0.006092
 59,0.00297088,0.00686457,-0.00113750,-0.00010374,0.00417055,0.01207303
 ,-0.00026195,0.00059767,-0.00599911,-0.01089536,-0.00458827,-0.0111363
 4,0.00841014,-0.00130806,0.00226159,0.00294315,-0.00139122,0.00240932,
 0.00860894,-0.00011492,0.00127001,0.00146695,-0.00104236,0.00073287,0.
 00146731,0.00392663,-0.00679516,-0.01462189,-0.21995551,-0.11061752,-0
 .09222681,0.06379860,-0.11049152,-0.26146596,-0.02445661,0.00937646,0.
 00420390,0.02879388,0.00937731,-0.03528326,-0.00728017,-0.00682830,0.0
 3667871,-0.00304039,0.00526843,0.21904426,0.00509471,-0.00882402,-0.21
 178897,0.22258238,-0.00940242,-0.08742320,-0.00485115,-0.00114021,0.00
 517729,-0.20904944,-0.02312276,-0.03739120,0.02305539,0.00340133,0.002
 90920,-0.00141891,0.01174724,0.04084030,-0.07683194,0.01715469,0.01613
 468,-0.00961567,0.00548603,-0.00427945,0.07879757,-0.01989663,-0.01458
 585,0.01352661,0.09758466,0.02374439,0.00194909,-0.00052373,-0.0013605
 4,-0.00529666,0.00947945,0.00086135,-0.01146097,0.11131288,0.17167729,
 0.08724124,-0.00506501,-0.00388868,-0.00519470,-0.00725962,-0.00658046
 ,-0.00221374,-0.10233313,-0.15675048,0.02355641,0.07511365,0.01613348,
 0.00005645,0.01107015,-0.00428015,0.00148954,-0.00185225,0.00324797,-0
 .02216870,-0.07819079,-0.01458450,0.00830437,0.01309032,-0.00439420,-0
 .00135157,-0.00084575,-0.00586753,-0.00345972,-0.00150485,0.00675392,0
 .00127604,0.00338109,-0.00290207,-0.00477330,0.01308159,-0.00681115,0.
 00759716,-0.00084517,-0.00037774,0.01016308,0.00613088,0.00019515,-0.0
 0054681,-0.00424650,-0.00455338,-0.00611886,-0.01422811,0.01166685,-0.
 00733729,0.01270292,0.01042309,0.00025557,-0.00044328,0.00117725,0.001
 95200,0.00010435,-0.00052060,-0.00106613,-0.00164015,-0.00052005,0.006
 26589,-0.01084517,-0.01069538,-0.31007827,-0.11664677,-0.17538762,0.05
 823265,-0.10085097,-0.10443971,0.00783124,0.00670105,-0.00173724,0.006
 50544,0.00670189,0.00009389,0.00301019,0.00832396,-0.00310604,-0.00545
 875,0.00945715,0.02652430,0.01010882,-0.01750871,-0.03136299,0.2526025
 5,0.00885899,-0.11593423,-0.00677582,-0.00513752,0.00672711,-0.2312416
 3,-0.02311278,-0.02307814,-0.00396026,-0.00846131,0.00020473,0.0042360
 2,0.01782948,0.02618670,-0.13306279,-0.01783455,0.03963259,-0.00762134
 ,0.00383810,-0.00100687,0.11782066,0.01193181,-0.03575995,0.03967817,0
 .09982815,0.06139616,-0.00742798,-0.00808372,-0.00703277,-0.01075638,0
 .01322228,0.01656508,-0.02273183,0.13180784,0.18985893,0.09842471,-0.0
 0475967,0.00085926,-0.00370941,-0.02500003,-0.00395868,0.00304958,-0.1
 0255635,-0.18232525,0.08197342,0.10631637,0.03963139,0.00048644,0.0085
 1904,-0.00100757,-0.01092049,-0.01282043,-0.00298787,-0.06924448,-0.09
 607157,-0.03575860,0.00996754,0.00129008,-0.00202784,-0.00004925,-0.00
 176530,-0.00434088,-0.00390331,0.00052272,0.00626361,0.00123214,0.0005
 4442,-0.00226324,-0.00725133,0.00128131,0.00847779,0.00349843,-0.00176
 471,0.00198639,0.00751883,0.00352495,0.00061837,-0.00100139,-0.0024496
 3,-0.00452999,-0.00592152,-0.00069931,-0.00643275,-0.00153915,0.002660
 18,-0.00107902,-0.00124171,0.00215009,0.00672606,0.00230016,0.00060481
 ,0.00011887,-0.00167361,-0.00169144,0.00011941,0.00222443,-0.00384508,
 -0.00602124,-0.12314756,-0.04164153,-0.07506557,0.04291374,-0.07431764
 ,-0.39398544,-0.04494022,-0.02061919,-0.01365866,0.04980449,-0.0206188
 7,-0.02113120,0.02365839,0.02518005,0.02072909,-0.02433637,0.04215494,
 0.35911717,0.01597852,-0.02767528,-0.33535691,0.13149447,0.00055485,-0
 .05660402,-0.00410336,-0.00009167,0.01922878,-0.12569756,0.00532163,-0
 .00249518,0.00517811,-0.00118475,0.00279595,-0.00437805,-0.00498604,0.
 00007932,-0.01842229,0.00729393,0.01200759,-0.01964818,-0.00928545,-0.
 01142123,0.03333866,0.00230274,0.00205047,0.03355471,0.06187593,0.0238
 1690,0.00051906,-0.00385290,-0.00582380,-0.00188879,0.00091570,0.00033
 527,-0.03568568,0.05711875,0.09545762,0.05161331,-0.00275908,-0.001824
 84,-0.01884329,-0.00006407,-0.00238367,-0.00095515,-0.05695760,-0.0899
 3442,0.00289010,0.01959848,0.01200626,0.01786512,0.01237290,-0.0114220
 0,0.00066256,-0.00076703,-0.00310348,-0.01866425,-0.02772329,0.0020522
 0,0.00303984,-0.00013856,0.00346154,-0.00119632,-0.00057729,-0.0050435
 9,0.00012066,-0.00006614,0.00436176,0.00349481,0.00269821,-0.00272189,
 -0.00546299,-0.00014847,0.00319920,-0.00601007,-0.00057771,-0.00053076
 ,0.00873556,0.00466279,0.00197657,0.00062748,-0.00202039,-0.00141040,-
 0.00345917,-0.00202363,-0.00311457,-0.00289979,0.00501846,0.01112397,-
 0.00054184,0.00093816,-0.00104411,0.00336723,-0.00234383,0.00046340,0.
 00034626,-0.00408972,0.00046377,-0.00020176,0.00035552,-0.01114257,0.7
 9691974,0.53094338,0.18383770,-0.19925530,0.34513121,0.93883940,0.1761
 3156,-0.01135292,0.00532917,-0.18872498,-0.01135207,0.18924115,-0.0092
 2919,0.01267577,-0.20336151,0.01609232,-0.02787040,-1.03318258,-0.0109
 2915,0.01893012,1.01167111,-0.86556283,-0.04647659,0.38706865,0.010041
 28,-0.00295957,-0.01175904,0.84792318,-0.03072094,0.18681825,0.0035383
 8,-0.00073096,0.00488387,-0.00193569,0.04325287,-0.19890775,0.37966844
 ,0.00805045,0.04788603,0.02026551,0.00174675,0.00603968,-0.38752967,-0
 .01011146,-0.06087749,-0.10969631,-0.46711167,-0.19659930,0.00457606,0
 .00242545,0.00755517,0.00332753,-0.01567579,-0.01297463,0.10025584,-0.
 48285943,-0.56903556,-0.33343928,0.00019710,0.01035145,0.00921422,0.00
 812019,0.00768758,-0.00208071,0.47491616,0.54875739,-0.19680928,-0.324
 77941,0.04788482,-0.01164582,-0.01667736,0.00603898,0.00829232,0.01019
 657,0.00759121,0.20252071,0.33055302,-0.06087614,0.00220907,-0.0059707
 0,0.00338629,-0.00194029,-0.00075026,-0.00095577,0.00419624,0.00387523
 ,0.00053556,0.00153099,-0.00033782,-0.00232630,-0.00600010,-0.00597944
 ,0.00910332,-0.00587901,-0.00074967,-0.00107672,0.00165564,-0.00186103
 ,-0.00050896,0.00237852,0.00540659,0.00214341,0.00072907,0.00307623,-0
 .00954122,0.00044921,-0.00078367,-0.00115811,-0.00302474,0.00523839,0.
 00930574,0.00392094,-0.00169584,-0.00064266,-0.00049159,-0.00424537,-0
 .00064211,-0.00078369,0.00136504,-0.00699884,0.10530540,0.31702221,-0.
 26076181,-0.08694623,0.15060621,2.14485250,0.47306042,-0.00087319,-0.0
 0568012,-0.46187115,-0.00087234,0.47406905,0.00983946,0.00559784,-0.46
 833478,-0.00312268,0.00541099,-2.27314300,0.00919951,-0.01593375,2.242
 23850,-0.50544871,-0.03223504,0.18495093,-0.00727354,-0.00146079,-0.01
 011660,0.50566177,-0.02143971,0.10150039,0.00387628,-0.00194331,0.0015
 0092,0.00057166,0.02806728,-0.10828460,0.17776985,0.00597942,0.0672815
 8,0.00062051,-0.00109753,0.00928877,-0.17936294,-0.00616538,-0.0848630
 0,-0.07347054,-0.27083344,-0.09583306,-0.00216582,-0.00489119,0.004562
 51,0.00352430,-0.00800218,-0.00226349,0.06950675,-0.28162086,-0.330465
 13,-0.15823120,-0.00440841,-0.00360443,0.00904549,0.00483940,0.0053481
 4,-0.00097648,0.27987880,0.32786871,-0.09406641,-0.15096561,0.06728038
 ,0.00063990,-0.00108644,0.00928807,0.00198045,0.00147256,0.00779449,0.
 09501995,0.15224834,-0.08486164,0.00055467,-0.01304904,0.00343798,-0.0
 0166627,0.00166579,-0.00051921,0.00346159,0.00331832,0.00320129,0.0025
 9942,0.00134727,-0.00354226,-0.00495342,-0.01305781,0.01562236,-0.0059
 6865,0.00166638,-0.00359254,0.00089949,0.00086501,-0.00009187,0.002243
 52,0.00380875,0.00075697,-0.00164696,0.00661035,-0.01257503,0.00651087
 ,-0.01128283,-0.00600191,-0.00478484,0.00828697,0.01220059,0.00254135,
 0.00023683,0.00049492,-0.00147554,-0.00208428,0.00049546,-0.00272178,0
 .00472196,-0.00732466,1.55044151,0.78432164,0.64478336,-0.32748263,0.5
 6722776,-0.19377696,-0.02214460,-0.00736613,-0.01320027,0.00676383,-0.
 00736581,-0.01363890,0.02286442,0.00831465,-0.00283708,-0.00295360,0.0
 0511891,-0.02365640,0.01260688,-0.02183542,0.02050212,-1.44122569,0.00
 609525,0.66233294,0.01014516,-0.00013676,-0.00999526,1.42215773,0.0125
 8447,0.35398420,-0.00012662,-0.00347379,0.00581555,0.00153233,-0.01621
 129,-0.35388281,0.66344741,0.00175800,0.11124337,0.00147792,-0.0011303
 6,-0.00203535,-0.66183422,0.00028189,-0.10611610,-0.08672183,-0.769429
 93,-0.33105756,0.00533518,-0.00069615,0.00366968,0.00362544,0.00185835
 ,-0.00180700,0.07608518,-0.77590953,-1.00050660,-0.57365670,0.00264162
 ,0.01062716,0.00942065,0.01073630,-0.00364928,-0.00523666,0.76094091,0
 .99218779,-0.33325050,-0.57368598,0.11124203,0.00023957,-0.00184529,-0
 .00203612,0.00544158,-0.00105252,-0.00391067,0.33067230,0.57330368,-0.
 10611437,-0.00034815,-0.01358932,0.00933702,-0.00001593,-0.00007661,-0
 .00332417,0.00522277,0.00524267,-0.00131889,0.00167015,0.00162690,-0.0
 0307131,-0.00653289,-0.01359927,0.01534281,-0.01618677,-0.00007703,0.0
 0007150,0.00575741,-0.00040762,-0.00229467,0.00431069,0.00728756,0.001
 24521,0.00330200,0.00668901,-0.01424494,0.00038471,-0.00067051,-0.0047
 8249,-0.00112912,0.00195536,0.00709868,0.00404816,-0.00064313,0.000815
 52,-0.00146706,-0.00382911,0.00081589,-0.00176660,0.00306599,-0.004083
 31\\@


 WOE UNTO THEM THAT CALL EVIL GOOD, AND GOOD EVIL      
 Job cpu time:       0 days  2 hours 43 minutes 60.0 seconds.
 Elapsed time:       0 days  2 hours 44 minutes 20.4 seconds.
 File lengths (MBytes):  RWF=     59 Int=      0 D2E=      0 Chk=     42 Scr=      1
 Normal termination of Gaussian 16 at Sat Jan 30 00:51:48 2021.
