 Entering Gaussian System, Link 0=g09
 Input=/scratch/mverot/dedoubl-s-opt-pm6-freq/dedoubl-s-opt-pm6-freq.com
 Output=/scratch/mverot/dedoubl-s-opt-pm6-freq/dedoubl-s-opt-pm6-freq.log
 Initial command:
 /opt/g09/l1.exe "/scratch/mverot/dedoubl-s-opt-pm6-freq/Gau-1961214.inp" -scrdir="/scratch/mverot/dedoubl-s-opt-pm6-freq/"
 Entering Link 1 = /opt/g09/l1.exe PID=   1961216.
  
 Copyright (c) 1988,1990,1992,1993,1995,1998,2003,2009,2013,
            Gaussian, Inc.  All Rights Reserved.
  
 This is part of the Gaussian(R) 09 program.  It is based on
 the Gaussian(R) 03 system (copyright 2003, Gaussian, Inc.),
 the Gaussian(R) 98 system (copyright 1998, Gaussian, Inc.),
 the Gaussian(R) 94 system (copyright 1995, Gaussian, Inc.),
 the Gaussian 92(TM) system (copyright 1992, Gaussian, Inc.),
 the Gaussian 90(TM) system (copyright 1990, Gaussian, Inc.),
 the Gaussian 88(TM) system (copyright 1988, Gaussian, Inc.),
 the Gaussian 86(TM) system (copyright 1986, Carnegie Mellon
 University), and the Gaussian 82(TM) system (copyright 1983,
 Carnegie Mellon University). Gaussian is a federally registered
 trademark of Gaussian, Inc.
  
 This software contains proprietary and confidential information,
 including trade secrets, belonging to Gaussian, Inc.
  
 This software is provided under written license and may be
 used, copied, transmitted, or stored only in accord with that
 written license.
  
 The following legend is applicable only to US Government
 contracts under FAR:
  
                    RESTRICTED RIGHTS LEGEND
  
 Use, reproduction and disclosure by the US Government is
 subject to restrictions as set forth in subparagraphs (a)
 and (c) of the Commercial Computer Software - Restricted
 Rights clause in FAR 52.227-19.
  
 Gaussian, Inc.
 340 Quinnipiac St., Bldg. 40, Wallingford CT 06492
  
  
 ---------------------------------------------------------------
 Warning -- This program may not be used in any manner that
 competes with the business of Gaussian, Inc. or will provide
 assistance to any competitor of Gaussian, Inc.  The licensee
 of this program is prohibited from giving any competitor of
 Gaussian, Inc. access to this program.  By using this program,
 the user acknowledges that Gaussian, Inc. is engaged in the
 business of creating and licensing software in the field of
 computational chemistry and represents and warrants to the
 licensee that it is not a competitor of Gaussian, Inc. and that
 it will not use this program in any manner prohibited above.
 ---------------------------------------------------------------
  

 Cite this work as:
 Gaussian 09, Revision D.01,
 M. J. Frisch, G. W. Trucks, H. B. Schlegel, G. E. Scuseria, 
 M. A. Robb, J. R. Cheeseman, G. Scalmani, V. Barone, B. Mennucci, 
 G. A. Petersson, H. Nakatsuji, M. Caricato, X. Li, H. P. Hratchian, 
 A. F. Izmaylov, J. Bloino, G. Zheng, J. L. Sonnenberg, M. Hada, 
 M. Ehara, K. Toyota, R. Fukuda, J. Hasegawa, M. Ishida, T. Nakajima, 
 Y. Honda, O. Kitao, H. Nakai, T. Vreven, J. A. Montgomery, Jr., 
 J. E. Peralta, F. Ogliaro, M. Bearpark, J. J. Heyd, E. Brothers, 
 K. N. Kudin, V. N. Staroverov, T. Keith, R. Kobayashi, J. Normand, 
 K. Raghavachari, A. Rendell, J. C. Burant, S. S. Iyengar, J. Tomasi, 
 M. Cossi, N. Rega, J. M. Millam, M. Klene, J. E. Knox, J. B. Cross, 
 V. Bakken, C. Adamo, J. Jaramillo, R. Gomperts, R. E. Stratmann, 
 O. Yazyev, A. J. Austin, R. Cammi, C. Pomelli, J. W. Ochterski, 
 R. L. Martin, K. Morokuma, V. G. Zakrzewski, G. A. Voth, 
 P. Salvador, J. J. Dannenberg, S. Dapprich, A. D. Daniels, 
 O. Farkas, J. B. Foresman, J. V. Ortiz, J. Cioslowski, 
 and D. J. Fox, Gaussian, Inc., Wallingford CT, 2013.
 
 ******************************************
 Gaussian 09:  AM64L-G09RevD.01 24-Apr-2013
                18-Apr-2022 
 ******************************************
 %chk=dedoubl-s-opt-freq
 -----------
 #n PM6 freq
 -----------
 1/10=4,30=1,38=1/1,3;
 2/12=2,17=6,18=5,40=1/2;
 3/5=2,16=1,25=1,41=3900000,71=2,140=1/1,2,3;
 4/35=1/1;
 5/5=2,35=1,38=5,98=1/2;
 8/6=4,10=90,11=11/1;
 11/6=1,8=1,9=11,15=111,16=1/1,2,10;
 10/6=1/2;
 6/7=2,8=2,9=2,10=2,18=1,28=1/1;
 7/8=1,10=1,25=1/1,2,3,16;
 1/10=4,30=1/3;
 99//99;
 ----------
 UV-spectra
 ----------
 Symbolic Z-matrix:
 Charge =  0 Multiplicity = 1
 O                    -2.78164  -5.54961  -3.68201 
 O                    -0.96699  -8.93406  -3.86667 
 C                    -1.63282  -5.47953  -4.34385 
 C                    -1.61922  -4.67475  -5.54148 
 C                    -0.49403  -4.60548  -6.30937 
 C                     0.69017  -5.32359  -5.94034 
 C                     1.86721  -5.25924  -6.7465 
 C                     3.00552  -5.93489  -6.38116 
 C                     3.01801  -6.70624  -5.18425 
 C                     1.90024  -6.78669  -4.39228 
 C                     0.693    -6.09983  -4.74982 
 C                    -0.49031  -6.16897  -3.94082 
 C                    -0.45533  -6.94222  -2.68939 
 C                    -0.61219  -8.31951  -2.67734 
 C                    -0.44934  -9.10755  -1.4992 
 C                    -0.1667   -8.48111  -0.31343 
 C                    -0.04519  -7.05754  -0.25254 
 C                     0.22486  -6.39598   0.98837 
 C                     0.34346  -5.03076   1.03941 
 C                     0.20019  -4.2542   -0.1484 
 C                    -0.05564  -4.86172  -1.35053 
 C                    -0.18857  -6.28657  -1.43768 
 H                    -2.52303  -4.12348  -5.7934 
 H                    -0.47381  -3.99997  -7.2154 
 H                     1.84325  -4.66135  -7.65599 
 H                     3.90485  -5.89032  -6.98879 
 H                     3.93248  -7.22858  -4.90909 
 H                     1.91317  -7.37342  -3.47453 
 H                    -0.55623  -10.18771  -1.55794 
 H                     0.33322  -6.99991   1.88717 
 H                     0.54694  -4.5194    1.97779 
 H                     0.29618  -3.17143  -0.081 
 H                    -0.16755  -4.27374  -2.26473 
 H                    -3.44252  -4.32235  -3.6091 
 H                    -0.87556  -9.91636  -3.79966 
 Cl                   -4.33572  -3.23131  -3.67624 
 O                    -3.85673  -7.02255  -1.96996 
 N                    -5.8218   -7.25832  -4.26028 
 N                    -3.16549  -11.57594  -0.06495 
 C                    -7.1177   -7.73188  -4.94124 
 C                    -8.16295  -8.12615  -3.88594 
 C                    -7.70245  -7.62374  -2.50316 
 C                    -6.42109  -8.37382  -2.1005 
 C                    -5.40177  -8.36686  -3.26021 
 C                    -7.38044  -6.10966  -2.62275 
 C                    -6.10821  -5.96324  -3.48992 
 C                    -7.21968  -5.45075  -1.27634 
 C                    -6.76043  -4.21275  -1.11232 
 C                    -4.73303  -7.02548  -5.30664 
 C                    -5.23427  -6.42876  -6.59114 
 C                    -5.47316  -7.26132  -7.69789 
 C                    -5.90787  -6.71109  -8.90555 
 C                    -6.10466  -5.33017  -9.01883 
 C                    -5.85602  -4.49981  -7.92246 
 C                    -5.41852  -5.04488  -6.71155 
 C                    -3.93899  -8.21332  -2.72752 
 C                    -3.64827  -9.39946  -1.81724 
 C                    -3.38148  -10.70159  -2.3635 
 C                    -3.30175  -10.987   -3.76211 
 C                    -3.0511   -12.26182  -4.20473 
 C                    -2.86166  -13.33011  -3.27852 
 C                    -2.90856  -13.09448  -1.92949 
 C                    -3.15959  -11.76763  -1.44373 
 C                    -3.3814   -10.34815   0.39712 
 C                    -3.63273  -9.22543  -0.4539 
 H                    -7.5017   -6.90573  -5.58335 
 H                    -6.88984  -8.57996  -5.61935 
 H                    -9.14994  -7.6995   -4.14788 
 H                    -8.30877  -9.22271  -3.86529 
 H                    -8.50099  -7.79288  -1.74823 
 H                    -6.6377   -9.41318  -1.79726 
 H                    -5.96977  -7.88074  -1.20667 
 H                    -8.23441  -5.60068  -3.14058 
 H                    -5.20846  -5.74695  -2.8371 
 H                    -6.2017   -5.1128   -4.19772 
 H                    -7.52551  -6.05823  -0.42394 
 H                    -6.42651  -3.56956  -1.92023 
 H                    -6.65751  -3.74424  -0.14267 
 H                    -5.30306  -8.33352  -7.62752 
 H                    -6.08602  -7.35746  -9.76418 
 H                    -6.44086  -4.90276  -9.96275 
 H                    -5.9923   -3.42098  -8.00954 
 H                    -5.20374  -4.37977  -5.86796 
 H                    -3.18617  -8.17552  -3.5584 
 H                    -3.41493  -10.17148  -4.47546 
 H                    -2.98608  -12.47999  -5.27045 
 H                    -2.67256  -14.3316  -3.66517 
 H                    -2.75607  -13.88946  -1.19598 
 H                    -3.36529  -10.21344   1.48702 
 H                    -3.78721  -8.23064  -0.02155 
 H                    -3.06838  -6.42266  -2.3402 
 H                    -5.46026  -9.33952  -3.81624 
 H                    -3.93457  -6.33583  -4.84118 
 H                    -4.19257  -7.9765   -5.50658 
 H                    -0.03263  -9.05904   0.60069 
 

 GradGradGradGradGradGradGradGradGradGradGradGradGradGradGradGradGradGrad
 Berny optimization.
 Initialization pass.
 Trust Radius=3.00D-01 FncErr=1.00D-07 GrdErr=1.00D-07
 Number of steps in this run=      2 maximum allowed number of steps=      2.
 GradGradGradGradGradGradGradGradGradGradGradGradGradGradGradGradGradGrad

 Stoichiometry    C46H43ClN2O3
 Framework group  C1[X(C46H43ClN2O3)]
 Deg. of freedom   279
 Full point group                 C1      NOp   1
 Largest Abelian subgroup         C1      NOp   1
 Largest concise Abelian subgroup C1      NOp   1
                         Standard orientation:                         
 ---------------------------------------------------------------------
 Center     Atomic      Atomic             Coordinates (Angstroms)
 Number     Number       Type             X           Y           Z
 ---------------------------------------------------------------------
      1          8           0       -0.016123   -1.420931    0.897850
      2          8           0       -1.897265    0.446563   -1.886990
      3          6           0       -0.867869   -2.200850    0.242884
      4          6           0       -0.421556   -3.537961   -0.065475
      5          6           0       -1.215548   -4.376510   -0.791386
      6          6           0       -2.502427   -3.948447   -1.254957
      7          6           0       -3.332608   -4.821453   -2.021844
      8          6           0       -4.572151   -4.414143   -2.450046
      9          6           0       -5.040367   -3.109233   -2.124904
     10          6           0       -4.262229   -2.249611   -1.390982
     11          6           0       -2.959769   -2.641233   -0.935692
     12          6           0       -2.124999   -1.761207   -0.168754
     13          6           0       -2.632782   -0.427325    0.189186
     14          6           0       -2.586672    0.634629   -0.700652
     15          6           0       -3.190986    1.898518   -0.430597
     16          6           0       -3.810585    2.095616    0.775886
     17          6           0       -3.844739    1.054713    1.755870
     18          6           0       -4.468561    1.263712    3.027729
     19          6           0       -4.500785    0.260328    3.961903
     20          6           0       -3.912424   -1.006551    3.673271
     21          6           0       -3.311173   -1.235113    2.462526
     22          6           0       -3.257560   -0.206380    1.465372
     23          1           0        0.550857   -3.848579    0.311574
     24          1           0       -0.887464   -5.388375   -1.028926
     25          1           0       -2.962403   -5.817643   -2.258017
     26          1           0       -5.209575   -5.072642   -3.033192
     27          1           0       -6.028562   -2.808395   -2.468094
     28          1           0       -4.624056   -1.253443   -1.139171
     29          1           0       -3.147065    2.684617   -1.180086
     30          1           0       -4.914879    2.234328    3.235126
     31          1           0       -4.971052    0.410444    4.931327
     32          1           0       -3.948829   -1.786177    4.432872
     33          1           0       -2.857478   -2.202584    2.234157
     34          1           0        0.666695   -2.093634    1.912484
     35          1           0       -2.074949    1.183889   -2.521463
     36         17           0        1.605146   -2.688849    2.782939
     37          8           0        0.314613    1.019562    1.335008
     38          7           0        2.913032    0.316673   -0.049494
     39          7           0       -1.295802    5.351909   -0.529824
     40          6           0        4.325541    0.600920   -0.589259
     41          6           0        4.924966    1.834097    0.104711
     42          6           0        4.063381    2.195154    1.331031
     43          6           0        2.671688    2.640632    0.850009
     44          6           0        2.104367    1.634206   -0.174320
     45          6           0        3.907926    0.920381    2.203511
     46          6           0        3.014623   -0.077066    1.429486
     47          6           0        3.351129    1.227000    3.570544
     48          6           0        2.952026    0.292746    4.429806
     49          6           0        2.258336   -0.804511   -0.854979
     50          6           0        3.202714   -1.900206   -1.261020
     51          6           0        3.740137   -1.909127   -2.559559
     52          6           0        4.592934   -2.941465   -2.956013
     53          6           0        4.913246   -3.970917   -2.063757
     54          6           0        4.369997   -3.969526   -0.776029
     55          6           0        3.513849   -2.939727   -0.374359
     56          6           0        0.562348    1.446750    0.010337
     57          6           0       -0.100169    2.801383   -0.204335
     58          6           0       -0.259114    3.344674   -1.525196
     59          6           0        0.115691    2.664919   -2.725773
     60          6           0       -0.060986    3.256891   -3.951447
     61          6           0       -0.625420    4.562937   -4.054684
     62          6           0       -1.017917    5.239403   -2.929536
     63          6           0       -0.851704    4.636087   -1.638064
     64          6           0       -1.161609    4.796895    0.670816
     65          6           0       -0.560472    3.514652    0.876678
     66          1           0        4.960191   -0.297353   -0.408668
     67          1           0        4.279484    0.739927   -1.689056
     68          1           0        5.970085    1.631782    0.407361
     69          1           0        4.977630    2.692243   -0.591668
     70          1           0        4.547876    3.008520    1.914037
     71          1           0        2.699955    3.651609    0.406977
     72          1           0        1.982316    2.707914    1.725213
     73          1           0        4.919870    0.462134    2.353349
     74          1           0        1.965501   -0.080201    1.855907
     75          1           0        3.400197   -1.114332    1.520988
     76          1           0        3.309181    2.286148    3.826665
     77          1           0        2.955162   -0.772805    4.223651
     78          1           0        2.562680    0.521542    5.412848
     79          1           0        3.481093   -1.125508   -3.268324
     80          1           0        5.003091   -2.950033   -3.965204
     81          1           0        5.576261   -4.776853   -2.376143
     82          1           0        4.603359   -4.777739   -0.081505
     83          1           0        3.075660   -2.964383    0.629395
     84          1           0        0.137046    0.695362   -0.705954
     85          1           0        0.519162    1.655294   -2.657801
     86          1           0        0.220551    2.738253   -4.867593
     87          1           0       -0.743795    5.006013   -5.043567
     88          1           0       -1.463632    6.235567   -2.977319
     89          1           0       -1.533369    5.369333    1.531287
     90          1           0       -0.490429    3.095244    1.886434
     91          1           0       -0.259148    0.131338    1.317740
     92          1           0        2.277465    2.019662   -1.213610
     93          1           0        1.400687   -1.243267   -0.221150
     94          1           0        1.750786   -0.380011   -1.748680
     95          1           0       -4.284358    3.049535    1.006495
 ---------------------------------------------------------------------
 Rotational constants (GHZ):      0.0609661      0.0549807      0.0435667
 Standard basis: VSTO-6G (5D, 7F)
 There are   257 symmetry adapted cartesian basis functions of A   symmetry.
 There are   256 symmetry adapted basis functions of A   symmetry.
   256 basis functions,  1542 primitive gaussians,   257 cartesian basis functions
   131 alpha electrons      131 beta electrons
       nuclear repulsion energy      3793.6535658848 Hartrees.
 Integral buffers will be    131072 words long.
 Regular integral format.
 Two-electron integral symmetry is turned off.
 Do NDO integrals.
 One-electron integrals computed using PRISM.
 NBasis=   256 RedAO= F EigKep=  0.00D+00  NBF=   256
 NBsUse=   256 1.00D-04 EigRej=  0.00D+00 NBFU=   256
 Nonelectrostatic core Hamiltonian diagonalized for initial guess.
 Overlap will be assumed to be unity.
 Keep J ints in memory in canonical form, NReq=2312328.
 Requested convergence on RMS density matrix=1.00D-08 within 128 cycles.
 Requested convergence on MAX density matrix=1.00D-06.
 Requested convergence on             energy=1.00D-06.
 No special actions if energy rises.
 SCF Done:  E(RPM6) = -0.343796416018E-02 A.U. after   29 cycles
            NFock= 28  Conv=0.58D-08     -V/T= 1.0000
 Range of M.O.s used for correlation:     1   256
 NBasis=   256 NAE=   131 NBE=   131 NFC=     0 NFV=     0
 NROrb=    256 NOA=   131 NOB=   131 NVA=   125 NVB=   125
 Symmetrizing basis deriv contribution to polar:
 IMax=3 JMax=2 DiffMx= 0.00D+00
 G2DrvN: will do    96 centers at a time, making    1 passes.
 Calling FoFCou, ICntrl=  3107 FMM=F I1Cent=   0 AccDes= 0.00D+00.
 End of G2Drv F.D. properties file   721 does not exist.
 End of G2Drv F.D. properties file   722 does not exist.
 End of G2Drv F.D. properties file   788 does not exist.
          IDoAtm=11111111111111111111111111111111111111111111111111
          IDoAtm=111111111111111111111111111111111111111111111
          Differentiating once with respect to electric field.
                with respect to dipole field.
          Differentiating once with respect to nuclear coordinates.
          Electric field/nuclear overlap derivatives assumed to be zero.
 Keep J ints in memory in canonical form, NReq=2127692.
          There are   288 degrees of freedom in the 1st order CPHF.  IDoFFX=5 NUNeed=   288.
 LinEq1:  Iter=  0 NonCon=   288 RMS=1.21D-01 Max=5.50D+00 NDo=   288
 AX will form   288 AO Fock derivatives at one time.
 LinEq1:  Iter=  1 NonCon=   288 RMS=2.46D-02 Max=6.68D-01 NDo=   288
 LinEq1:  Iter=  2 NonCon=   288 RMS=5.95D-03 Max=2.68D-01 NDo=   288
 LinEq1:  Iter=  3 NonCon=   288 RMS=2.30D-03 Max=1.51D-01 NDo=   288
 LinEq1:  Iter=  4 NonCon=   288 RMS=8.13D-04 Max=3.91D-02 NDo=   288
 LinEq1:  Iter=  5 NonCon=   288 RMS=2.16D-04 Max=9.14D-03 NDo=   288
 LinEq1:  Iter=  6 NonCon=   288 RMS=6.49D-05 Max=2.13D-03 NDo=   288
 LinEq1:  Iter=  7 NonCon=   288 RMS=2.07D-05 Max=9.67D-04 NDo=   288
 LinEq1:  Iter=  8 NonCon=   283 RMS=5.66D-06 Max=1.70D-04 NDo=   288
 LinEq1:  Iter=  9 NonCon=   163 RMS=1.57D-06 Max=4.95D-05 NDo=   288
 LinEq1:  Iter= 10 NonCon=    42 RMS=3.79D-07 Max=1.44D-05 NDo=   288
 LinEq1:  Iter= 11 NonCon=     3 RMS=1.07D-07 Max=4.97D-06 NDo=   288
 LinEq1:  Iter= 12 NonCon=     3 RMS=2.71D-08 Max=1.05D-06 NDo=   288
 LinEq1:  Iter= 13 NonCon=     3 RMS=6.99D-09 Max=2.74D-07 NDo=   288
 LinEq1:  Iter= 14 NonCon=     0 RMS=1.80D-09 Max=5.11D-08 NDo=   288
 Linear equations converged to 1.000D-08 1.000D-07 after    14 iterations.
 Isotropic polarizability for W=    0.000000      429.25 Bohr**3.
 End of Minotr F.D. properties file   721 does not exist.
 End of Minotr F.D. properties file   722 does not exist.
 End of Minotr F.D. properties file   788 does not exist.

 **********************************************************************

            Population analysis using the SCF density.

 **********************************************************************

 Orbital symmetries:
       Occupied  (A) (A) (A) (A) (A) (A) (A) (A) (A) (A) (A) (A)
                 (A) (A) (A) (A) (A) (A) (A) (A) (A) (A) (A) (A)
                 (A) (A) (A) (A) (A) (A) (A) (A) (A) (A) (A) (A)
                 (A) (A) (A) (A) (A) (A) (A) (A) (A) (A) (A) (A)
                 (A) (A) (A) (A) (A) (A) (A) (A) (A) (A) (A) (A)
                 (A) (A) (A) (A) (A) (A) (A) (A) (A) (A) (A) (A)
                 (A) (A) (A) (A) (A) (A) (A) (A) (A) (A) (A) (A)
                 (A) (A) (A) (A) (A) (A) (A) (A) (A) (A) (A) (A)
                 (A) (A) (A) (A) (A) (A) (A) (A) (A) (A) (A) (A)
                 (A) (A) (A) (A) (A) (A) (A) (A) (A) (A) (A) (A)
                 (A) (A) (A) (A) (A) (A) (A) (A) (A) (A) (A)
       Virtual   (A) (A) (A) (A) (A) (A) (A) (A) (A) (A) (A) (A)
                 (A) (A) (A) (A) (A) (A) (A) (A) (A) (A) (A) (A)
                 (A) (A) (A) (A) (A) (A) (A) (A) (A) (A) (A) (A)
                 (A) (A) (A) (A) (A) (A) (A) (A) (A) (A) (A) (A)
                 (A) (A) (A) (A) (A) (A) (A) (A) (A) (A) (A) (A)
                 (A) (A) (A) (A) (A) (A) (A) (A) (A) (A) (A) (A)
                 (A) (A) (A) (A) (A) (A) (A) (A) (A) (A) (A) (A)
                 (A) (A) (A) (A) (A) (A) (A) (A) (A) (A) (A) (A)
                 (A) (A) (A) (A) (A) (A) (A) (A) (A) (A) (A) (A)
                 (A) (A) (A) (A) (A) (A) (A) (A) (A) (A) (A) (A)
                 (A) (A) (A) (A) (A)
 The electronic state is 1-A.
 Alpha  occ. eigenvalues --   -1.24890  -1.18447  -1.12380  -1.12278  -1.10500
 Alpha  occ. eigenvalues --   -1.10268  -1.09718  -1.09485  -1.08279  -1.06090
 Alpha  occ. eigenvalues --   -1.04668  -1.04386  -1.02939  -1.01600  -1.00948
 Alpha  occ. eigenvalues --   -0.99585  -0.99339  -0.97701  -0.97099  -0.96244
 Alpha  occ. eigenvalues --   -0.96043  -0.95624  -0.94636  -0.92226  -0.91499
 Alpha  occ. eigenvalues --   -0.90785  -0.90210  -0.89932  -0.88000  -0.85291
 Alpha  occ. eigenvalues --   -0.84837  -0.83730  -0.82564  -0.80870  -0.80227
 Alpha  occ. eigenvalues --   -0.80044  -0.79216  -0.77901  -0.77582  -0.76715
 Alpha  occ. eigenvalues --   -0.75803  -0.75216  -0.73288  -0.71458  -0.69824
 Alpha  occ. eigenvalues --   -0.68685  -0.68140  -0.67664  -0.66847  -0.66450
 Alpha  occ. eigenvalues --   -0.66352  -0.64579  -0.63852  -0.63633  -0.63275
 Alpha  occ. eigenvalues --   -0.62487  -0.61370  -0.60143  -0.59985  -0.59827
 Alpha  occ. eigenvalues --   -0.58781  -0.57985  -0.57893  -0.57604  -0.57248
 Alpha  occ. eigenvalues --   -0.57061  -0.56729  -0.56596  -0.56138  -0.55312
 Alpha  occ. eigenvalues --   -0.54966  -0.54753  -0.54460  -0.54237  -0.54083
 Alpha  occ. eigenvalues --   -0.53585  -0.53455  -0.52777  -0.52650  -0.52490
 Alpha  occ. eigenvalues --   -0.52075  -0.52050  -0.52003  -0.51542  -0.51424
 Alpha  occ. eigenvalues --   -0.50742  -0.50498  -0.50306  -0.50057  -0.49734
 Alpha  occ. eigenvalues --   -0.49279  -0.48454  -0.48147  -0.47811  -0.47579
 Alpha  occ. eigenvalues --   -0.47337  -0.47157  -0.46789  -0.46596  -0.46260
 Alpha  occ. eigenvalues --   -0.46123  -0.46027  -0.45699  -0.44812  -0.44477
 Alpha  occ. eigenvalues --   -0.44262  -0.43766  -0.43385  -0.43168  -0.42284
 Alpha  occ. eigenvalues --   -0.41840  -0.41616  -0.40713  -0.40369  -0.38968
 Alpha  occ. eigenvalues --   -0.38934  -0.38225  -0.37931  -0.37816  -0.37655
 Alpha  occ. eigenvalues --   -0.37464  -0.37381  -0.36936  -0.36431  -0.35919
 Alpha  occ. eigenvalues --   -0.35539  -0.35416  -0.32642  -0.31352  -0.30141
 Alpha  occ. eigenvalues --   -0.28218
 Alpha virt. eigenvalues --   -0.03855  -0.02517  -0.02362  -0.00927  -0.00450
 Alpha virt. eigenvalues --    0.00184   0.00889   0.01224   0.01301   0.03024
 Alpha virt. eigenvalues --    0.03701   0.04650   0.04707   0.05855   0.06222
 Alpha virt. eigenvalues --    0.06530   0.07518   0.07719   0.07789   0.08545
 Alpha virt. eigenvalues --    0.08817   0.09156   0.09350   0.09469   0.09885
 Alpha virt. eigenvalues --    0.10093   0.10386   0.10843   0.10994   0.11126
 Alpha virt. eigenvalues --    0.11549   0.11810   0.11978   0.12285   0.12986
 Alpha virt. eigenvalues --    0.13179   0.13646   0.13672   0.13733   0.14254
 Alpha virt. eigenvalues --    0.14425   0.14520   0.14671   0.15057   0.15106
 Alpha virt. eigenvalues --    0.15146   0.15456   0.15598   0.15713   0.16193
 Alpha virt. eigenvalues --    0.16225   0.16352   0.16577   0.16704   0.16776
 Alpha virt. eigenvalues --    0.16851   0.16892   0.17022   0.17162   0.17337
 Alpha virt. eigenvalues --    0.17631   0.17696   0.17988   0.18110   0.18189
 Alpha virt. eigenvalues --    0.18395   0.18435   0.18539   0.18560   0.18734
 Alpha virt. eigenvalues --    0.18789   0.18953   0.19038   0.19145   0.19210
 Alpha virt. eigenvalues --    0.19263   0.19285   0.19421   0.19593   0.19751
 Alpha virt. eigenvalues --    0.20088   0.20193   0.20211   0.20217   0.20257
 Alpha virt. eigenvalues --    0.20438   0.20493   0.20672   0.20697   0.20784
 Alpha virt. eigenvalues --    0.20864   0.20890   0.20996   0.21219   0.21339
 Alpha virt. eigenvalues --    0.21411   0.21466   0.21620   0.21689   0.21751
 Alpha virt. eigenvalues --    0.22002   0.22316   0.22382   0.22648   0.22714
 Alpha virt. eigenvalues --    0.22792   0.23089   0.23273   0.23357   0.23707
 Alpha virt. eigenvalues --    0.23985   0.24015   0.24054   0.24265   0.24340
 Alpha virt. eigenvalues --    0.24610   0.25015   0.25170   0.25389   0.25568
 Alpha virt. eigenvalues --    3.47933   3.48169   3.48410   3.50649   3.50668
          Condensed to atoms (all electrons):
 Mulliken charges:
               1
     1  O   -0.784843
     2  O   -0.489369
     3  C    0.431955
     4  C   -0.343545
     5  C   -0.047751
     6  C   -0.121158
     7  C   -0.102845
     8  C   -0.206378
     9  C   -0.104847
    10  C   -0.210505
    11  C    0.154355
    12  C   -0.264920
    13  C   -0.055789
    14  C    0.248864
    15  C   -0.303653
    16  C   -0.082286
    17  C   -0.053738
    18  C   -0.148222
    19  C   -0.154412
    20  C   -0.134315
    21  C   -0.149662
    22  C    0.061754
    23  H    0.174445
    24  H    0.137146
    25  H    0.136842
    26  H    0.143624
    27  H    0.136253
    28  H    0.159665
    29  H    0.164781
    30  H    0.143263
    31  H    0.144079
    32  H    0.147145
    33  H    0.171670
    34  H    0.371941
    35  H    0.320849
    36  Cl  -0.546753
    37  O   -0.604597
    38  N    0.139303
    39  N   -0.319410
    40  C   -0.208327
    41  C   -0.311479
    42  C   -0.073296
    43  C   -0.313085
    44  C   -0.071454
    45  C   -0.105122
    46  C   -0.231137
    47  C   -0.152571
    48  C   -0.305627
    49  C   -0.304492
    50  C    0.002003
    51  C   -0.185437
    52  C   -0.129720
    53  C   -0.141552
    54  C   -0.122569
    55  C   -0.163427
    56  C    0.141289
    57  C    0.012653
    58  C   -0.102675
    59  C   -0.164954
    60  C   -0.144960
    61  C   -0.137640
    62  C   -0.146452
    63  C    0.138758
    64  C    0.045099
    65  C   -0.230277
    66  H    0.177428
    67  H    0.158323
    68  H    0.156059
    69  H    0.153430
    70  H    0.141497
    71  H    0.153756
    72  H    0.192239
    73  H    0.143464
    74  H    0.238036
    75  H    0.180085
    76  H    0.141235
    77  H    0.174884
    78  H    0.154388
    79  H    0.146229
    80  H    0.149129
    81  H    0.152229
    82  H    0.157156
    83  H    0.184962
    84  H    0.161405
    85  H    0.148068
    86  H    0.151263
    87  H    0.154290
    88  H    0.175768
    89  H    0.169122
    90  H    0.200267
    91  H    0.394337
    92  H    0.148041
    93  H    0.271532
    94  H    0.172857
    95  H    0.146034
 Sum of Mulliken charges =  -0.00000
 Mulliken charges with hydrogens summed into heavy atoms:
               1
     1  O   -0.412902
     2  O   -0.168519
     3  C    0.431955
     4  C   -0.169100
     5  C    0.089396
     6  C   -0.121158
     7  C    0.033997
     8  C   -0.062754
     9  C    0.031406
    10  C   -0.050841
    11  C    0.154355
    12  C   -0.264920
    13  C   -0.055789
    14  C    0.248864
    15  C   -0.138873
    16  C    0.063748
    17  C   -0.053738
    18  C   -0.004959
    19  C   -0.010333
    20  C    0.012831
    21  C    0.022009
    22  C    0.061754
    36  Cl  -0.546753
    37  O   -0.210260
    38  N    0.139303
    39  N   -0.319410
    40  C    0.127424
    41  C   -0.001989
    42  C    0.068200
    43  C    0.032910
    44  C    0.076587
    45  C    0.038342
    46  C    0.186984
    47  C   -0.011336
    48  C    0.023645
    49  C    0.139898
    50  C    0.002003
    51  C   -0.039208
    52  C    0.019409
    53  C    0.010677
    54  C    0.034586
    55  C    0.021534
    56  C    0.302694
    57  C    0.012653
    58  C   -0.102675
    59  C   -0.016886
    60  C    0.006304
    61  C    0.016650
    62  C    0.029316
    63  C    0.138758
    64  C    0.214221
    65  C   -0.030010
 APT charges:
               1
     1  O   -1.889100
     2  O   -0.734749
     3  C    1.130326
     4  C   -0.493450
     5  C    0.161285
     6  C   -0.401098
     7  C    0.047012
     8  C   -0.421300
     9  C   -0.008716
    10  C   -0.270822
    11  C    0.341241
    12  C   -0.610104
    13  C   -0.056327
    14  C    0.468426
    15  C   -0.326836
    16  C   -0.013144
    17  C   -0.161118
    18  C   -0.146685
    19  C   -0.225217
    20  C   -0.116444
    21  C   -0.208928
    22  C    0.122138
    23  H    0.206485
    24  H    0.157510
    25  H    0.157971
    26  H    0.194635
    27  H    0.159547
    28  H    0.164324
    29  H    0.182799
    30  H    0.167901
    31  H    0.189623
    32  H    0.176277
    33  H    0.178835
    34  H    1.167445
    35  H    0.339926
    36  Cl  -0.942331
    37  O   -0.807849
    38  N    0.021115
    39  N   -0.435014
    40  C   -0.200069
    41  C   -0.343592
    42  C    0.012766
    43  C   -0.350564
    44  C   -0.017197
    45  C   -0.042266
    46  C   -0.279827
    47  C   -0.129125
    48  C   -0.376956
    49  C   -0.309754
    50  C    0.017121
    51  C   -0.202383
    52  C   -0.176722
    53  C   -0.174751
    54  C   -0.147289
    55  C   -0.229397
    56  C    0.439405
    57  C    0.079492
    58  C   -0.189370
    59  C   -0.175750
    60  C   -0.176452
    61  C   -0.178670
    62  C   -0.186149
    63  C    0.139590
    64  C    0.212496
    65  C   -0.416521
    66  H    0.156159
    67  H    0.138994
    68  H    0.158322
    69  H    0.149005
    70  H    0.124290
    71  H    0.139014
    72  H    0.187427
    73  H    0.102993
    74  H    0.263883
    75  H    0.180038
    76  H    0.136493
    77  H    0.208363
    78  H    0.190622
    79  H    0.157298
    80  H    0.179335
    81  H    0.200697
    82  H    0.188126
    83  H    0.231299
    84  H    0.122091
    85  H    0.169527
    86  H    0.185660
    87  H    0.206805
    88  H    0.221052
    89  H    0.192350
    90  H    0.224613
    91  H    0.631224
    92  H    0.097515
    93  H    0.466288
    94  H    0.156213
    95  H    0.170211
 Sum of APT charges =  -0.00044
 APT charges with hydrogens summed into heavy atoms:
               1
     1  O   -0.721656
     2  O   -0.394823
     3  C    1.130326
     4  C   -0.286965
     5  C    0.318795
     6  C   -0.401098
     7  C    0.204983
     8  C   -0.226665
     9  C    0.150830
    10  C   -0.106498
    11  C    0.341241
    12  C   -0.610104
    13  C   -0.056327
    14  C    0.468426
    15  C   -0.144038
    16  C    0.157068
    17  C   -0.161118
    18  C    0.021217
    19  C   -0.035594
    20  C    0.059834
    21  C   -0.030093
    22  C    0.122138
    36  Cl  -0.942331
    37  O   -0.176625
    38  N    0.021115
    39  N   -0.435014
    40  C    0.095084
    41  C   -0.036266
    42  C    0.137056
    43  C   -0.024123
    44  C    0.080318
    45  C    0.060727
    46  C    0.164094
    47  C    0.007368
    48  C    0.022028
    49  C    0.312746
    50  C    0.017121
    51  C   -0.045085
    52  C    0.002613
    53  C    0.025946
    54  C    0.040837
    55  C    0.001902
    56  C    0.561496
    57  C    0.079492
    58  C   -0.189370
    59  C   -0.006223
    60  C    0.009208
    61  C    0.028134
    62  C    0.034902
    63  C    0.139590
    64  C    0.404846
    65  C   -0.191908
 Charge=             -0.0000 electrons
 Dipole moment (field-independent basis, Debye):
    X=              9.4138    Y=              5.7555    Z=             -5.5736  Tot=             12.3617
 N-N= 3.793653565885D+03 E-N=-7.208666811927D+03  KE=-2.089711794640D+02
  Exact polarizability: 362.103 -72.371 463.190 -11.486  -0.783 462.450
 Approx polarizability: 260.274 -76.311 380.236 -17.078  -7.908 406.232
 Calling FoFJK, ICntrl=    100127 FMM=F ISym2X=0 I1Cent= 0 IOpClX= 0 NMat=1 NMatS=1 NMatT=0.
 Full mass-weighted force constant matrix:
 Low frequencies ---   -0.4344   -0.1965   -0.1253    0.5580    0.8648    1.4170
 Low frequencies ---   10.2867   13.7602   16.9475
 Diagonal vibrational polarizability:
      277.3459180     157.2836838     233.8324240
 Harmonic frequencies (cm**-1), IR intensities (KM/Mole), Raman scattering
 activities (A**4/AMU), depolarization ratios for plane and unpolarized
 incident light, reduced masses (AMU), force constants (mDyne/A),
 and normal coordinates:
                      1                      2                      3
                      A                      A                      A
 Frequencies --     10.2866                13.7599                16.9474
 Red. masses --      6.2313                 5.8422                 6.1088
 Frc consts  --      0.0004                 0.0007                 0.0010
 IR Inten    --      0.4616                 0.4399                 0.0850
  Atom  AN      X      Y      Z        X      Y      Z        X      Y      Z
     1   8     0.00   0.02  -0.03     0.02  -0.02  -0.04     0.02   0.01  -0.05
     2   8    -0.09   0.07   0.05    -0.02  -0.06  -0.08     0.06   0.01   0.06
     3   6    -0.00   0.03  -0.04    -0.00  -0.02  -0.03     0.01   0.01  -0.02
     4   6     0.00   0.04  -0.09    -0.02  -0.03  -0.02     0.01   0.01  -0.03
     5   6    -0.00   0.06  -0.10    -0.04  -0.03   0.01    -0.02  -0.01   0.02
     6   6    -0.01   0.06  -0.07    -0.05  -0.02   0.03    -0.04  -0.03   0.07
     7   6    -0.02   0.08  -0.08    -0.08  -0.03   0.07    -0.07  -0.05   0.13
     8   6    -0.03   0.08  -0.04    -0.08  -0.02   0.09    -0.10  -0.07   0.19
     9   6    -0.04   0.07   0.01    -0.06  -0.01   0.08    -0.09  -0.07   0.18
    10   6    -0.03   0.05   0.02    -0.03  -0.00   0.04    -0.06  -0.05   0.13
    11   6    -0.02   0.05  -0.02    -0.03  -0.01   0.02    -0.04  -0.03   0.07
    12   6    -0.01   0.03  -0.00    -0.00  -0.01  -0.01    -0.01  -0.01   0.02
    13   6    -0.02   0.01   0.05     0.02   0.01  -0.04    -0.02  -0.01   0.02
    14   6    -0.05   0.04   0.08     0.01  -0.02  -0.08     0.02   0.00   0.04
    15   6    -0.04   0.03   0.14     0.01  -0.01  -0.11     0.02   0.00   0.04
    16   6    -0.01  -0.01   0.16     0.04   0.03  -0.10    -0.03  -0.01   0.02
    17   6     0.02  -0.04   0.13     0.07   0.07  -0.06    -0.08  -0.03  -0.00
    18   6     0.06  -0.08   0.15     0.12   0.12  -0.04    -0.14  -0.05  -0.03
    19   6     0.09  -0.10   0.12     0.15   0.15  -0.00    -0.19  -0.07  -0.05
    20   6     0.09  -0.09   0.07     0.14   0.14   0.02    -0.18  -0.07  -0.05
    21   6     0.05  -0.06   0.04     0.10   0.09   0.01    -0.12  -0.05  -0.02
    22   6     0.02  -0.03   0.07     0.06   0.06  -0.03    -0.07  -0.03  -0.00
    23   1     0.01   0.04  -0.12    -0.02  -0.03  -0.04     0.03   0.02  -0.07
    24   1     0.00   0.07  -0.14    -0.06  -0.03   0.02    -0.02  -0.01   0.01
    25   1    -0.01   0.09  -0.12    -0.09  -0.03   0.08    -0.08  -0.05   0.13
    26   1    -0.04   0.09  -0.05    -0.11  -0.02   0.12    -0.12  -0.09   0.23
    27   1    -0.05   0.07   0.04    -0.07  -0.01   0.10    -0.11  -0.08   0.23
    28   1    -0.04   0.04   0.06    -0.02   0.00   0.03    -0.06  -0.04   0.12
    29   1    -0.06   0.05   0.16    -0.01  -0.04  -0.14     0.06   0.02   0.05
    30   1     0.07  -0.08   0.20     0.12   0.12  -0.07    -0.14  -0.06  -0.03
    31   1     0.12  -0.13   0.14     0.18   0.19   0.01    -0.23  -0.09  -0.07
    32   1     0.11  -0.12   0.05     0.16   0.17   0.06    -0.22  -0.08  -0.06
    33   1     0.05  -0.05   0.00     0.09   0.09   0.03    -0.11  -0.05  -0.02
    34   1    -0.02  -0.00  -0.03     0.01  -0.04  -0.05     0.02   0.01  -0.05
    35   1    -0.08   0.11   0.09    -0.02  -0.08  -0.10     0.08   0.02   0.06
    36  17    -0.04  -0.02  -0.02    -0.00  -0.07  -0.05     0.01  -0.01  -0.06
    37   8    -0.02   0.02  -0.02    -0.03  -0.02   0.01     0.01   0.01  -0.03
    38   7     0.00   0.00   0.01    -0.00   0.01   0.02     0.02   0.02  -0.01
    39   7     0.01  -0.01  -0.13    -0.04  -0.03  -0.00     0.05   0.03  -0.04
    40   6     0.01   0.01   0.05     0.00   0.04   0.05     0.03   0.02   0.01
    41   6    -0.00   0.01   0.06    -0.02   0.02   0.10     0.02   0.01   0.04
    42   6    -0.03   0.00   0.05    -0.05  -0.01   0.09     0.01  -0.00   0.03
    43   6    -0.02   0.00   0.01    -0.04  -0.02   0.07     0.02   0.01   0.02
    44   6     0.00   0.00   0.00    -0.02   0.00   0.04     0.03   0.02   0.00
    45   6    -0.05  -0.00   0.04    -0.05  -0.04   0.06    -0.00  -0.01   0.01
    46   6    -0.03  -0.00   0.01    -0.03  -0.03   0.01     0.01  -0.00  -0.01
    47   6    -0.08  -0.01   0.03    -0.08  -0.08   0.05    -0.02  -0.04   0.01
    48   6    -0.10  -0.01   0.01    -0.06  -0.11   0.03    -0.01  -0.05  -0.00
    49   6     0.02   0.00  -0.00     0.02   0.02  -0.02     0.03   0.03  -0.03
    50   6     0.04   0.01   0.01     0.04   0.04  -0.03     0.04   0.04  -0.04
    51   6     0.06   0.02   0.02     0.08   0.09  -0.01     0.06   0.07  -0.03
    52   6     0.08   0.02   0.03     0.10   0.11  -0.02     0.06   0.08  -0.04
    53   6     0.06   0.02   0.04     0.08   0.08  -0.04     0.05   0.06  -0.06
    54   6     0.04   0.01   0.03     0.04   0.03  -0.06     0.03   0.03  -0.07
    55   6     0.02   0.01   0.01     0.02   0.01  -0.05     0.02   0.02  -0.06
    56   6    -0.00  -0.00  -0.02    -0.02  -0.02   0.02     0.03   0.02  -0.02
    57   6     0.00  -0.01  -0.06    -0.03  -0.02   0.01     0.03   0.02  -0.03
    58   6     0.01  -0.04  -0.07    -0.02  -0.03   0.01     0.06   0.03  -0.03
    59   6     0.02  -0.07  -0.06    -0.02  -0.03   0.01     0.07   0.03  -0.02
    60   6     0.03  -0.10  -0.07    -0.01  -0.04   0.01     0.10   0.04  -0.02
    61   6     0.03  -0.10  -0.11    -0.02  -0.04   0.00     0.11   0.04  -0.03
    62   6     0.03  -0.07  -0.13    -0.03  -0.04   0.00     0.09   0.04  -0.03
    63   6     0.02  -0.04  -0.11    -0.03  -0.03   0.00     0.07   0.03  -0.03
    64   6     0.00   0.02  -0.12    -0.04  -0.03   0.00     0.02   0.02  -0.04
    65   6    -0.00   0.02  -0.08    -0.04  -0.02   0.01     0.01   0.02  -0.03
    66   1     0.01   0.01   0.05     0.01   0.04   0.04     0.03   0.02   0.01
    67   1     0.04   0.01   0.05     0.02   0.07   0.06     0.05   0.04   0.02
    68   1    -0.01   0.00   0.09    -0.02   0.02   0.11     0.02   0.01   0.05
    69   1     0.01   0.01   0.07    -0.01   0.04   0.12     0.03   0.02   0.05
    70   1    -0.05  -0.00   0.06    -0.07  -0.02   0.12     0.00  -0.01   0.05
    71   1    -0.01   0.00   0.01    -0.04  -0.01   0.10     0.02   0.01   0.04
    72   1    -0.04   0.00  -0.00    -0.06  -0.04   0.06     0.00  -0.01   0.01
    73   1    -0.05   0.00   0.06    -0.05  -0.03   0.06    -0.01  -0.02   0.02
    74   1    -0.04  -0.01  -0.01    -0.03  -0.05  -0.00     0.00  -0.01  -0.03
    75   1    -0.02  -0.00   0.02    -0.01  -0.03  -0.01     0.01  -0.00  -0.02
    76   1    -0.09  -0.01   0.03    -0.13  -0.08   0.07    -0.05  -0.04   0.02
    77   1    -0.09  -0.01   0.01    -0.02  -0.10   0.01     0.01  -0.05  -0.01
    78   1    -0.13  -0.01   0.00    -0.09  -0.14   0.03    -0.03  -0.07  -0.00
    79   1     0.08   0.02   0.02     0.10   0.11   0.01     0.07   0.08  -0.02
    80   1     0.10   0.03   0.04     0.13   0.15  -0.01     0.08   0.10  -0.04
    81   1     0.07   0.02   0.05     0.10   0.10  -0.05     0.06   0.06  -0.06
    82   1     0.03   0.01   0.03     0.03   0.01  -0.08     0.02   0.01  -0.08
    83   1     0.00  -0.00   0.00    -0.01  -0.02  -0.07     0.01  -0.00  -0.07
    84   1     0.01  -0.02  -0.02     0.00  -0.02   0.01     0.03   0.02  -0.03
    85   1     0.01  -0.07  -0.03    -0.01  -0.03   0.02     0.07   0.03  -0.02
    86   1     0.03  -0.12  -0.06    -0.01  -0.04   0.01     0.12   0.04  -0.02
    87   1     0.04  -0.12  -0.12    -0.02  -0.04   0.00     0.14   0.05  -0.03
    88   1     0.03  -0.07  -0.15    -0.03  -0.04  -0.01     0.10   0.04  -0.04
    89   1    -0.00   0.04  -0.13    -0.05  -0.03  -0.00     0.01   0.02  -0.04
    90   1    -0.01   0.04  -0.07    -0.04  -0.02   0.01    -0.00   0.01  -0.03
    91   1    -0.01   0.01  -0.02    -0.01  -0.04  -0.00     0.01   0.01  -0.04
    92   1     0.02   0.00   0.00    -0.00   0.03   0.05     0.04   0.03   0.01
    93   1     0.01  -0.00  -0.02     0.01  -0.00  -0.05     0.02   0.02  -0.05
    94   1     0.04   0.01  -0.01     0.04   0.04  -0.02     0.04   0.04  -0.03
    95   1    -0.00  -0.01   0.20     0.04   0.04  -0.12    -0.03  -0.01   0.01
                      4                      5                      6
                      A                      A                      A
 Frequencies --     23.8438                26.4679                28.6131
 Red. masses --      5.7659                 5.2354                 4.7205
 Frc consts  --      0.0019                 0.0022                 0.0023
 IR Inten    --      0.3932                 0.1643                 0.2581
  Atom  AN      X      Y      Z        X      Y      Z        X      Y      Z
     1   8     0.01   0.02   0.09     0.02  -0.00  -0.05     0.02   0.04  -0.03
     2   8     0.02  -0.01   0.02    -0.01  -0.01  -0.02     0.01   0.03   0.00
     3   6     0.03   0.01   0.08     0.02  -0.02  -0.03     0.01   0.04  -0.02
     4   6     0.04   0.01   0.10     0.03  -0.02  -0.02     0.02   0.04  -0.03
     5   6     0.07   0.00   0.08     0.02  -0.03  -0.00     0.02   0.04  -0.03
     6   6     0.08  -0.00   0.04     0.01  -0.04   0.01     0.01   0.03  -0.01
     7   6     0.12  -0.01   0.01     0.01  -0.06   0.04     0.01   0.03  -0.01
     8   6     0.13  -0.01  -0.04    -0.00  -0.07   0.05    -0.00   0.03   0.00
     9   6     0.11  -0.02  -0.06    -0.00  -0.07   0.04    -0.01   0.02   0.02
    10   6     0.08  -0.01  -0.03     0.00  -0.06   0.01    -0.00   0.02   0.01
    11   6     0.07  -0.01   0.02     0.01  -0.04  -0.00     0.00   0.03  -0.00
    12   6     0.04   0.00   0.04     0.02  -0.03  -0.02     0.01   0.03  -0.01
    13   6     0.02  -0.00   0.03     0.02  -0.03  -0.02     0.00   0.03  -0.00
    14   6     0.01  -0.01   0.02     0.00  -0.02  -0.01     0.01   0.03   0.00
    15   6     0.00  -0.01   0.00     0.01  -0.02   0.01     0.00   0.03   0.00
    16   6    -0.01  -0.01  -0.00     0.03  -0.03   0.02    -0.02   0.02  -0.01
    17   6    -0.01  -0.00   0.01     0.05  -0.03   0.02    -0.03   0.01  -0.01
    18   6    -0.02   0.00   0.00     0.09  -0.04   0.03    -0.06  -0.00  -0.03
    19   6    -0.02   0.01   0.01     0.11  -0.04   0.03    -0.08  -0.01  -0.04
    20   6    -0.00   0.02   0.02     0.10  -0.04   0.01    -0.06  -0.00  -0.03
    21   6     0.01   0.01   0.03     0.06  -0.04  -0.01    -0.03   0.01  -0.02
    22   6     0.01   0.00   0.02     0.04  -0.03  -0.00    -0.02   0.02  -0.01
    23   1     0.03   0.01   0.13     0.03  -0.00  -0.03     0.02   0.04  -0.04
    24   1     0.08   0.00   0.10     0.03  -0.03   0.00     0.02   0.04  -0.04
    25   1     0.13  -0.01   0.02     0.01  -0.06   0.04     0.01   0.04  -0.02
    26   1     0.15  -0.02  -0.06    -0.01  -0.09   0.07    -0.00   0.03   0.01
    27   1     0.12  -0.02  -0.09    -0.01  -0.08   0.05    -0.01   0.02   0.03
    28   1     0.07  -0.02  -0.04     0.00  -0.05   0.00    -0.01   0.02   0.02
    29   1    -0.00  -0.02  -0.00    -0.00  -0.02   0.01     0.01   0.03   0.01
    30   1    -0.03   0.00  -0.01     0.10  -0.04   0.05    -0.07  -0.00  -0.03
    31   1    -0.03   0.02   0.00     0.14  -0.04   0.04    -0.10  -0.02  -0.04
    32   1    -0.00   0.02   0.03     0.12  -0.04   0.01    -0.08  -0.01  -0.04
    33   1     0.02   0.01   0.04     0.05  -0.04  -0.02    -0.02   0.01  -0.02
    34   1     0.03   0.01   0.08    -0.01   0.02   0.01    -0.00   0.04  -0.01
    35   1     0.01  -0.03   0.01    -0.02  -0.01  -0.01     0.01   0.04   0.00
    36  17     0.03  -0.03   0.04    -0.06   0.03   0.06    -0.03   0.04   0.02
    37   8    -0.04   0.06   0.03    -0.03   0.01  -0.07     0.04   0.01   0.02
    38   7    -0.04   0.01   0.01    -0.02   0.02  -0.04     0.04   0.01  -0.02
    39   7     0.04   0.05  -0.09     0.03   0.06   0.03    -0.06  -0.04  -0.00
    40   6    -0.04   0.01   0.02    -0.01   0.02  -0.02     0.03   0.03  -0.02
    41   6    -0.02  -0.02   0.06    -0.01   0.01   0.01     0.03   0.02  -0.00
    42   6    -0.03  -0.04   0.06    -0.03   0.00  -0.01     0.04  -0.01   0.02
    43   6    -0.02  -0.01   0.06    -0.02   0.02  -0.03     0.03  -0.01   0.04
    44   6    -0.02   0.02   0.04    -0.01   0.02  -0.04     0.03   0.02   0.02
    45   6    -0.05  -0.05   0.03    -0.06  -0.01  -0.02     0.06  -0.04  -0.02
    46   6    -0.05  -0.03  -0.00    -0.05   0.00  -0.05     0.04  -0.02  -0.02
    47   6    -0.06  -0.09   0.03    -0.09  -0.02  -0.03     0.09  -0.09   0.01
    48   6     0.04  -0.12   0.04    -0.02  -0.03  -0.02     0.19  -0.13   0.01
    49   6    -0.06   0.04  -0.02    -0.01   0.03  -0.07     0.03   0.03  -0.04
    50   6    -0.08   0.04  -0.06    -0.02  -0.00  -0.01     0.02   0.01  -0.00
    51   6    -0.07   0.08  -0.05     0.10   0.00   0.04     0.14   0.04   0.05
    52   6    -0.10   0.07  -0.09     0.08  -0.03   0.10     0.14   0.02   0.08
    53   6    -0.14   0.02  -0.14    -0.06  -0.08   0.10     0.00  -0.04   0.06
    54   6    -0.15  -0.02  -0.14    -0.18  -0.08   0.05    -0.12  -0.07   0.01
    55   6    -0.12  -0.01  -0.10    -0.17  -0.04  -0.01    -0.11  -0.05  -0.02
    56   6    -0.03   0.04   0.03    -0.02   0.03  -0.06     0.03   0.01   0.02
    57   6    -0.01   0.04  -0.01    -0.01   0.04  -0.03     0.02   0.00   0.01
    58   6     0.01   0.00  -0.03     0.00   0.07  -0.02    -0.02  -0.03   0.01
    59   6     0.00  -0.04  -0.00    -0.01   0.10  -0.03    -0.03  -0.04   0.01
    60   6     0.03  -0.07  -0.02     0.01   0.13  -0.02    -0.10  -0.07   0.00
    61   6     0.05  -0.06  -0.06     0.04   0.15   0.01    -0.16  -0.10  -0.01
    62   6     0.06  -0.02  -0.08     0.05   0.12   0.03    -0.14  -0.09  -0.01
    63   6     0.03   0.01  -0.07     0.03   0.09   0.01    -0.07  -0.05  -0.00
    64   6     0.01   0.08  -0.07     0.01   0.03   0.02    -0.00  -0.00   0.00
    65   6    -0.01   0.07  -0.03    -0.00   0.02  -0.01     0.04   0.01   0.01
    66   1    -0.05  -0.01   0.00    -0.02   0.01  -0.02     0.04   0.03  -0.04
    67   1    -0.03   0.04   0.03     0.01   0.03  -0.02     0.02   0.05  -0.02
    68   1    -0.03  -0.04   0.06    -0.02  -0.01   0.03     0.04   0.02  -0.02
    69   1    -0.01  -0.00   0.08     0.01   0.01   0.02     0.01   0.04   0.02
    70   1    -0.02  -0.06   0.08    -0.04  -0.01   0.01     0.04  -0.03   0.03
    71   1    -0.00   0.00   0.09     0.00   0.02  -0.03     0.02   0.00   0.07
    72   1    -0.02  -0.02   0.06    -0.03   0.02  -0.04     0.04  -0.04   0.05
    73   1    -0.05  -0.07   0.03    -0.06  -0.01  -0.00     0.06  -0.04  -0.05
    74   1    -0.05  -0.03  -0.00    -0.05  -0.00  -0.06     0.05  -0.01  -0.01
    75   1    -0.05  -0.03  -0.03    -0.05   0.00  -0.05     0.03  -0.02  -0.04
    76   1    -0.17  -0.09   0.02    -0.19  -0.01  -0.06     0.01  -0.09   0.02
    77   1     0.15  -0.12   0.05     0.08  -0.04   0.01     0.26  -0.12  -0.00
    78   1     0.02  -0.16   0.04    -0.05  -0.05  -0.03     0.20  -0.17   0.02
    79   1    -0.04   0.12  -0.02     0.21   0.03   0.04     0.25   0.09   0.06
    80   1    -0.09   0.10  -0.09     0.18  -0.03   0.14     0.23   0.05   0.12
    81   1    -0.16   0.01  -0.17    -0.07  -0.10   0.15    -0.00  -0.05   0.09
    82   1    -0.18  -0.06  -0.17    -0.30  -0.11   0.05    -0.23  -0.12  -0.01
    83   1    -0.12  -0.04  -0.10    -0.26  -0.04  -0.05    -0.21  -0.08  -0.07
    84   1    -0.03   0.03   0.04    -0.01   0.05  -0.08     0.03   0.00   0.03
    85   1    -0.02  -0.04   0.03    -0.03   0.09  -0.06     0.02  -0.02   0.02
    86   1     0.02  -0.10  -0.01     0.00   0.15  -0.03    -0.10  -0.08   0.01
    87   1     0.07  -0.08  -0.07     0.06   0.18   0.03    -0.21  -0.13  -0.02
    88   1     0.07  -0.01  -0.11     0.07   0.13   0.05    -0.18  -0.11  -0.02
    89   1     0.02   0.11  -0.09     0.02   0.01   0.03     0.01   0.01   0.00
    90   1    -0.02   0.10  -0.02    -0.01  -0.01  -0.02     0.07   0.04   0.02
    91   1    -0.01   0.04   0.04    -0.01  -0.01  -0.09     0.03   0.02   0.03
    92   1    -0.01   0.05   0.05    -0.00   0.03  -0.04     0.03   0.04   0.03
    93   1    -0.06   0.04  -0.02    -0.05   0.06  -0.11     0.00   0.05  -0.06
    94   1    -0.06   0.07  -0.00     0.05   0.04  -0.10     0.08   0.04  -0.05
    95   1    -0.02  -0.01  -0.01     0.04  -0.03   0.03    -0.02   0.02  -0.01
                      7                      8                      9
                      A                      A                      A
 Frequencies --     35.8790                38.2439                41.5357
 Red. masses --      4.8209                 4.7133                 5.0586
 Frc consts  --      0.0037                 0.0041                 0.0051
 IR Inten    --      0.0417                 0.2512                 0.1033
  Atom  AN      X      Y      Z        X      Y      Z        X      Y      Z
     1   8    -0.02  -0.01   0.01     0.01  -0.03   0.06    -0.05  -0.03   0.02
     2   8    -0.04   0.01   0.00     0.04   0.01   0.05    -0.05  -0.03  -0.01
     3   6    -0.02  -0.00   0.01    -0.00  -0.02   0.06    -0.05  -0.04   0.03
     4   6    -0.03  -0.01   0.02    -0.04  -0.04   0.09    -0.08  -0.06   0.08
     5   6    -0.03  -0.00   0.02    -0.05  -0.02   0.08    -0.08  -0.06   0.08
     6   6    -0.02   0.01   0.00    -0.02   0.01   0.04    -0.05  -0.04   0.02
     7   6    -0.02   0.02  -0.01    -0.02   0.04   0.01    -0.04  -0.03   0.00
     8   6    -0.01   0.03  -0.03     0.01   0.08  -0.04    -0.01  -0.00  -0.06
     9   6    -0.00   0.03  -0.03     0.04   0.09  -0.06     0.01   0.02  -0.10
    10   6    -0.01   0.02  -0.02     0.04   0.07  -0.03    -0.00   0.01  -0.08
    11   6    -0.02   0.01  -0.00     0.01   0.03   0.02    -0.03  -0.02  -0.02
    12   6    -0.02   0.01   0.01     0.01   0.01   0.04    -0.04  -0.03   0.00
    13   6    -0.02   0.00   0.01     0.02   0.01   0.04    -0.03  -0.02  -0.00
    14   6    -0.04   0.00   0.00     0.03   0.01   0.04    -0.03  -0.02  -0.00
    15   6    -0.07  -0.01  -0.01     0.01   0.00   0.02    -0.00  -0.01   0.01
    16   6    -0.07  -0.01  -0.00    -0.01   0.00   0.01     0.02  -0.00   0.02
    17   6    -0.03  -0.00   0.01    -0.02   0.01   0.01     0.01  -0.01   0.01
    18   6    -0.02  -0.00   0.01    -0.04   0.01   0.00     0.02  -0.00   0.02
    19   6     0.02   0.01   0.03    -0.05   0.01   0.01    -0.00  -0.01   0.01
    20   6     0.05   0.02   0.04    -0.03   0.02   0.02    -0.03  -0.02  -0.00
    21   6     0.03   0.02   0.03    -0.01   0.02   0.03    -0.04  -0.02  -0.01
    22   6    -0.01   0.01   0.01     0.00   0.01   0.03    -0.02  -0.02   0.00
    23   1    -0.04  -0.01   0.03    -0.06  -0.07   0.12    -0.10  -0.07   0.12
    24   1    -0.04  -0.01   0.02    -0.07  -0.04   0.11    -0.10  -0.07   0.12
    25   1    -0.02   0.01  -0.01    -0.04   0.03   0.02    -0.05  -0.04   0.04
    26   1    -0.01   0.03  -0.04     0.02   0.10  -0.07     0.00   0.00  -0.08
    27   1     0.00   0.04  -0.04     0.06   0.12  -0.10     0.04   0.04  -0.16
    28   1    -0.00   0.02  -0.02     0.06   0.08  -0.04     0.01   0.02  -0.11
    29   1    -0.09  -0.02  -0.01     0.01   0.00   0.02     0.01  -0.01   0.01
    30   1    -0.04  -0.01   0.01    -0.06   0.00  -0.01     0.04   0.01   0.03
    31   1     0.03   0.01   0.03    -0.07   0.01  -0.00     0.01  -0.00   0.02
    32   1     0.08   0.03   0.05    -0.04   0.02   0.03    -0.05  -0.03  -0.01
    33   1     0.05   0.02   0.03     0.01   0.02   0.05    -0.07  -0.03  -0.01
    34   1    -0.01   0.00   0.01     0.04  -0.03   0.04    -0.02  -0.01   0.01
    35   1    -0.02   0.02   0.01     0.06   0.01   0.04    -0.09  -0.05  -0.02
    36  17     0.01   0.04   0.02     0.07  -0.04   0.00     0.01   0.02  -0.01
    37   8    -0.02  -0.02   0.03     0.03  -0.02  -0.03    -0.03  -0.02   0.01
    38   7    -0.02   0.00  -0.02     0.02  -0.02  -0.01    -0.03  -0.01  -0.01
    39   7    -0.09  -0.06  -0.03    -0.09  -0.07   0.01     0.19   0.09   0.01
    40   6    -0.04   0.04  -0.05     0.02  -0.03  -0.01    -0.04   0.01  -0.03
    41   6    -0.06   0.06  -0.07     0.03  -0.04  -0.01    -0.05   0.03  -0.06
    42   6    -0.02   0.02  -0.03     0.00   0.00  -0.04    -0.02   0.02  -0.04
    43   6    -0.05  -0.01   0.02     0.02   0.01  -0.07    -0.04  -0.01  -0.01
    44   6    -0.04  -0.01   0.01     0.02  -0.02  -0.04    -0.04  -0.02  -0.00
    45   6     0.05   0.00  -0.05    -0.03   0.03  -0.00     0.01   0.02  -0.03
    46   6     0.02   0.00  -0.02     0.01  -0.00  -0.01     0.00   0.01  -0.00
    47   6     0.12  -0.04  -0.01    -0.09   0.08  -0.04     0.05   0.02  -0.02
    48   6     0.23  -0.08   0.00    -0.17   0.12  -0.03     0.07   0.02  -0.01
    49   6    -0.01  -0.01  -0.00     0.01  -0.03   0.00    -0.03  -0.03   0.02
    50   6    -0.00  -0.00   0.00     0.02  -0.03  -0.02     0.00  -0.00   0.01
    51   6     0.02   0.01   0.01     0.12   0.07   0.03     0.08   0.08   0.04
    52   6     0.04   0.02   0.03     0.13   0.08   0.01     0.15   0.13   0.04
    53   6     0.03   0.02   0.02     0.03  -0.00  -0.05     0.13   0.10   0.02
    54   6     0.00   0.01   0.01    -0.08  -0.10  -0.09     0.04   0.02  -0.02
    55   6    -0.01  -0.01   0.00    -0.08  -0.11  -0.08    -0.02  -0.03  -0.02
    56   6    -0.04  -0.03   0.02     0.02  -0.02  -0.03    -0.04  -0.02   0.01
    57   6    -0.06  -0.05   0.00     0.00  -0.03  -0.02    -0.01  -0.01   0.01
    58   6     0.01  -0.03  -0.00     0.01  -0.01  -0.01    -0.02  -0.02   0.01
    59   6     0.09   0.00   0.01     0.05   0.03  -0.02    -0.12  -0.07   0.01
    60   6     0.20   0.04   0.01     0.05   0.05  -0.01    -0.11  -0.08   0.01
    61   6     0.21   0.05   0.00    -0.01   0.03   0.01     0.01  -0.02   0.00
    62   6     0.12   0.01  -0.01    -0.05  -0.01   0.02     0.12   0.03   0.01
    63   6     0.01  -0.03  -0.01    -0.04  -0.03   0.01     0.10   0.04   0.01
    64   6    -0.16  -0.09  -0.03    -0.07  -0.08   0.01     0.16   0.08   0.02
    65   6    -0.14  -0.08  -0.02    -0.03  -0.06  -0.01     0.06   0.04   0.02
    66   1    -0.01   0.06  -0.05     0.01  -0.04   0.00    -0.02   0.02  -0.03
    67   1    -0.06   0.03  -0.05     0.03  -0.03  -0.01    -0.06  -0.00  -0.03
    68   1    -0.04   0.10  -0.11     0.02  -0.05   0.02    -0.03   0.05  -0.08
    69   1    -0.12   0.06  -0.07     0.06  -0.05  -0.02    -0.08   0.02  -0.07
    70   1    -0.03   0.03  -0.04     0.00   0.01  -0.05    -0.03   0.03  -0.05
    71   1    -0.10  -0.00   0.04     0.04  -0.01  -0.11    -0.07  -0.01  -0.02
    72   1    -0.03  -0.06   0.04     0.01   0.05  -0.09    -0.02  -0.02  -0.00
    73   1     0.07   0.02  -0.12    -0.04   0.04   0.06     0.02   0.03  -0.06
    74   1     0.03   0.01   0.01     0.00  -0.03  -0.02     0.01   0.01   0.02
    75   1     0.02   0.00  -0.03     0.04   0.01   0.00     0.01   0.01  -0.00
    76   1     0.07  -0.05   0.00    -0.05   0.09  -0.07     0.07   0.02  -0.01
    77   1     0.28  -0.07  -0.02    -0.21   0.12  -0.00     0.05   0.02  -0.02
    78   1     0.28  -0.12   0.03    -0.21   0.17  -0.06     0.10   0.02   0.00
    79   1     0.03   0.01   0.01     0.19   0.13   0.07     0.09   0.10   0.06
    80   1     0.06   0.03   0.03     0.22   0.16   0.05     0.21   0.19   0.07
    81   1     0.05   0.03   0.03     0.04   0.01  -0.06     0.19   0.14   0.02
    82   1    -0.00   0.00   0.01    -0.15  -0.16  -0.14     0.03  -0.01  -0.04
    83   1    -0.03  -0.02  -0.01    -0.16  -0.18  -0.11    -0.09  -0.10  -0.05
    84   1    -0.03  -0.05   0.03     0.01  -0.02  -0.03    -0.05  -0.02   0.01
    85   1     0.08  -0.00   0.01     0.10   0.05  -0.03    -0.22  -0.11   0.01
    86   1     0.26   0.06   0.02     0.08   0.08  -0.02    -0.20  -0.12   0.00
    87   1     0.30   0.08   0.01    -0.01   0.04   0.02     0.03  -0.03   0.00
    88   1     0.12   0.01  -0.02    -0.09  -0.03   0.03     0.21   0.08   0.01
    89   1    -0.24  -0.12  -0.04    -0.10  -0.11   0.01     0.23   0.12   0.02
    90   1    -0.19  -0.09  -0.02    -0.02  -0.08  -0.02     0.05   0.04   0.02
    91   1    -0.02  -0.02   0.04     0.03  -0.02  -0.02    -0.03  -0.02   0.01
    92   1    -0.05   0.01   0.01     0.01  -0.05  -0.05    -0.06  -0.02  -0.01
    93   1    -0.01  -0.01   0.01     0.03  -0.03   0.01    -0.00  -0.04   0.03
    94   1    -0.02  -0.02  -0.00    -0.00  -0.04   0.00    -0.05  -0.05   0.02
    95   1    -0.09  -0.02  -0.01    -0.03  -0.00  -0.00     0.04   0.01   0.03
                     10                     11                     12
                      A                      A                      A
 Frequencies --     46.1314                50.2811                59.8029
 Red. masses --      4.4661                 4.8919                 4.5905
 Frc consts  --      0.0056                 0.0073                 0.0097
 IR Inten    --      0.2984                 1.2983                 0.6958
  Atom  AN      X      Y      Z        X      Y      Z        X      Y      Z
     1   8    -0.03   0.02  -0.02    -0.03  -0.00  -0.05    -0.04  -0.02   0.03
     2   8    -0.04  -0.02  -0.03     0.01   0.05  -0.03     0.04  -0.09   0.04
     3   6    -0.01   0.01  -0.04    -0.03  -0.02  -0.02    -0.03  -0.03   0.02
     4   6     0.03   0.04  -0.09    -0.08  -0.06   0.07     0.00  -0.01  -0.03
     5   6     0.05   0.03  -0.10    -0.10  -0.08   0.12     0.03   0.01  -0.08
     6   6     0.02  -0.00  -0.06    -0.07  -0.06   0.06     0.02  -0.01  -0.06
     7   6     0.02  -0.02  -0.04    -0.10  -0.08   0.11     0.06   0.01  -0.12
     8   6    -0.01  -0.05   0.01    -0.06  -0.04   0.03     0.04  -0.01  -0.09
     9   6    -0.05  -0.08   0.06     0.00   0.01  -0.10    -0.02  -0.06   0.02
    10   6    -0.05  -0.06   0.04     0.02   0.03  -0.14    -0.05  -0.08   0.07
    11   6    -0.02  -0.02  -0.01    -0.02  -0.01  -0.05    -0.03  -0.05   0.02
    12   6    -0.02  -0.01  -0.02    -0.01  -0.01  -0.06    -0.05  -0.05   0.04
    13   6    -0.03  -0.01  -0.02     0.00  -0.00  -0.05    -0.03  -0.04   0.04
    14   6    -0.03  -0.01  -0.03     0.03   0.03  -0.02     0.04  -0.05   0.04
    15   6    -0.03  -0.01  -0.02     0.07   0.04   0.04     0.14   0.00   0.04
    16   6    -0.01  -0.01  -0.02     0.11   0.02   0.06     0.19   0.06   0.05
    17   6    -0.00  -0.00  -0.01     0.08  -0.02   0.02     0.10   0.06   0.04
    18   6     0.02   0.01  -0.00     0.12  -0.04   0.04     0.14   0.11   0.05
    19   6     0.03   0.01   0.00     0.08  -0.08  -0.00     0.02   0.10   0.03
    20   6     0.02   0.01  -0.00    -0.00  -0.10  -0.07    -0.16   0.03   0.00
    21   6     0.00  -0.00  -0.01    -0.03  -0.08  -0.09    -0.18  -0.02   0.00
    22   6    -0.01  -0.01  -0.02     0.02  -0.03  -0.04    -0.04  -0.00   0.03
    23   1     0.05   0.06  -0.12    -0.09  -0.07   0.10     0.01   0.01  -0.04
    24   1     0.08   0.05  -0.14    -0.15  -0.11   0.21     0.07   0.03  -0.13
    25   1     0.05   0.00  -0.08    -0.15  -0.12   0.21     0.10   0.04  -0.20
    26   1    -0.01  -0.07   0.03    -0.08  -0.06   0.07     0.07   0.00  -0.14
    27   1    -0.07  -0.11   0.11     0.04   0.04  -0.18    -0.04  -0.09   0.05
    28   1    -0.08  -0.08   0.08     0.07   0.07  -0.24    -0.10  -0.11   0.15
    29   1    -0.03  -0.02  -0.03     0.08   0.06   0.06     0.19  -0.01   0.03
    30   1     0.03   0.01  -0.00     0.18  -0.02   0.09     0.27   0.17   0.08
    31   1     0.05   0.02   0.01     0.11  -0.10   0.01     0.04   0.14   0.04
    32   1     0.03   0.01   0.00    -0.04  -0.14  -0.11    -0.27   0.01  -0.02
    33   1    -0.01  -0.00  -0.02    -0.09  -0.09  -0.14    -0.30  -0.07  -0.02
    34   1    -0.03   0.02  -0.03    -0.03   0.03  -0.04    -0.03  -0.01   0.03
    35   1    -0.04  -0.02  -0.03     0.04   0.09   0.00     0.07  -0.09   0.03
    36  17    -0.01   0.04  -0.03    -0.03   0.07  -0.01    -0.01   0.01   0.01
    37   8     0.03  -0.01   0.07     0.01   0.00  -0.01    -0.02  -0.00  -0.03
    38   7     0.02   0.01   0.04     0.03   0.02   0.04    -0.02  -0.01   0.01
    39   7     0.04  -0.01   0.01    -0.07  -0.03  -0.03    -0.06  -0.01  -0.02
    40   6     0.01   0.02   0.01     0.03   0.02   0.04    -0.02  -0.02   0.00
    41   6     0.01   0.04  -0.02     0.02   0.02   0.03    -0.02  -0.01  -0.02
    42   6     0.02   0.05  -0.01     0.03   0.02   0.04    -0.01  -0.01  -0.01
    43   6     0.01   0.03   0.01     0.02   0.02   0.05    -0.01  -0.01  -0.00
    44   6     0.00   0.00   0.04     0.03   0.03   0.04    -0.01  -0.01  -0.01
    45   6     0.05   0.07   0.02     0.04   0.02   0.04     0.00  -0.00  -0.01
    46   6     0.05   0.04   0.05     0.02   0.03   0.04    -0.02   0.00   0.01
    47   6     0.08   0.11   0.02     0.06   0.02   0.05     0.03  -0.00   0.01
    48   6    -0.08   0.16  -0.00     0.04   0.03   0.04     0.06  -0.01   0.01
    49   6     0.01   0.00   0.07     0.01   0.03   0.04    -0.03  -0.02   0.02
    50   6    -0.01   0.00   0.03    -0.00   0.03   0.02    -0.02  -0.01   0.01
    51   6     0.02   0.07   0.04    -0.04   0.03   0.00    -0.01   0.03   0.01
    52   6    -0.02   0.05  -0.01    -0.07   0.02  -0.03     0.02   0.05   0.01
    53   6    -0.11  -0.03  -0.08    -0.08  -0.00  -0.06     0.04   0.05  -0.00
    54   6    -0.14  -0.10  -0.10    -0.04  -0.00  -0.04     0.02   0.01  -0.01
    55   6    -0.09  -0.08  -0.04    -0.00   0.01  -0.00    -0.01  -0.02  -0.00
    56   6     0.01  -0.02   0.06     0.03   0.02   0.00    -0.01   0.01  -0.03
    57   6    -0.00  -0.03   0.05     0.03   0.02  -0.00    -0.00   0.01  -0.02
    58   6     0.01  -0.04   0.04     0.02   0.01  -0.01     0.00   0.02  -0.02
    59   6     0.01  -0.07   0.05     0.07   0.02  -0.00     0.04   0.04  -0.02
    60   6     0.04  -0.08   0.05     0.05   0.00  -0.01     0.03   0.05  -0.02
    61   6     0.08  -0.06   0.02    -0.03  -0.03  -0.02    -0.01   0.03  -0.02
    62   6     0.08  -0.04   0.01    -0.07  -0.04  -0.03    -0.05   0.01  -0.01
    63   6     0.04  -0.03   0.02    -0.04  -0.02  -0.02    -0.03   0.00  -0.02
    64   6     0.01  -0.01   0.01    -0.05  -0.01  -0.02    -0.04  -0.01  -0.02
    65   6    -0.01  -0.01   0.04     0.00   0.01  -0.01    -0.01  -0.00  -0.02
    66   1     0.02   0.03   0.01     0.03   0.02   0.06    -0.02  -0.02   0.02
    67   1    -0.02   0.00   0.01     0.03   0.00   0.04    -0.02  -0.04   0.00
    68   1     0.01   0.05  -0.04     0.03   0.03   0.03    -0.01  -0.01  -0.02
    69   1    -0.02   0.03  -0.04     0.01   0.02   0.03    -0.03  -0.02  -0.02
    70   1     0.03   0.07  -0.04     0.03   0.03   0.04    -0.00  -0.00  -0.02
    71   1    -0.02   0.02  -0.00     0.01   0.03   0.06    -0.02  -0.01   0.00
    72   1     0.03   0.03   0.03     0.02   0.00   0.05    -0.01  -0.02  -0.00
    73   1     0.06   0.08   0.02     0.04   0.02   0.02     0.00  -0.01  -0.02
    74   1     0.06   0.03   0.07     0.02   0.04   0.05    -0.02   0.02   0.02
    75   1     0.07   0.05   0.06     0.01   0.03   0.05    -0.03  -0.00   0.02
    76   1     0.26   0.11   0.05     0.10   0.02   0.06     0.02  -0.00   0.00
    77   1    -0.26   0.16  -0.02    -0.00   0.03   0.03     0.06  -0.01   0.01
    78   1    -0.05   0.21  -0.00     0.06   0.03   0.05     0.08  -0.01   0.02
    79   1     0.08   0.13   0.09    -0.04   0.05   0.02    -0.02   0.03   0.02
    80   1     0.00   0.10  -0.00    -0.10   0.02  -0.05     0.04   0.08   0.01
    81   1    -0.15  -0.05  -0.13    -0.11  -0.02  -0.09     0.07   0.07  -0.01
    82   1    -0.20  -0.16  -0.15    -0.04  -0.02  -0.06     0.03   0.01  -0.02
    83   1    -0.11  -0.13  -0.05     0.03   0.01   0.01    -0.03  -0.04  -0.01
    84   1     0.00  -0.03   0.08     0.05   0.03  -0.01    -0.00   0.01  -0.04
    85   1    -0.03  -0.08   0.07     0.13   0.05   0.01     0.08   0.06  -0.03
    86   1     0.04  -0.10   0.06     0.09   0.01   0.00     0.06   0.07  -0.02
    87   1     0.12  -0.07   0.02    -0.05  -0.05  -0.03    -0.02   0.03  -0.01
    88   1     0.11  -0.03  -0.01    -0.12  -0.07  -0.04    -0.08  -0.01  -0.01
    89   1     0.00   0.01   0.00    -0.07  -0.01  -0.03    -0.05  -0.02  -0.02
    90   1    -0.02   0.00   0.04     0.01   0.02  -0.01    -0.01  -0.01  -0.02
    91   1    -0.01   0.02   0.08    -0.00   0.01  -0.04    -0.02  -0.01  -0.04
    92   1    -0.02  -0.01   0.03     0.05   0.03   0.04     0.01  -0.01  -0.01
    93   1     0.03   0.00   0.10     0.02   0.02   0.05    -0.01  -0.02   0.04
    94   1    -0.03  -0.00   0.08    -0.00   0.04   0.06    -0.05  -0.03   0.03
    95   1    -0.01  -0.00  -0.02     0.15   0.03   0.10     0.28   0.10   0.06
                     13                     14                     15
                      A                      A                      A
 Frequencies --     66.1998                69.2712                72.2430
 Red. masses --      5.6364                 4.8899                 3.9265
 Frc consts  --      0.0146                 0.0138                 0.0121
 IR Inten    --      1.5468                 1.7548                 1.8750
  Atom  AN      X      Y      Z        X      Y      Z        X      Y      Z
     1   8     0.06  -0.13  -0.01    -0.03  -0.02  -0.01     0.03   0.03  -0.03
     2   8     0.12  -0.07   0.03    -0.02  -0.03   0.01    -0.04   0.01  -0.03
     3   6     0.03  -0.10  -0.01    -0.03  -0.02  -0.01     0.02   0.03  -0.01
     4   6    -0.02  -0.11  -0.05    -0.03  -0.02  -0.02     0.01   0.02  -0.00
     5   6    -0.06  -0.05  -0.07    -0.02  -0.01  -0.04     0.01   0.02   0.01
     6   6    -0.06   0.00  -0.04    -0.02  -0.01  -0.03     0.01   0.02   0.01
     7   6    -0.10   0.07  -0.08    -0.01   0.01  -0.06     0.01   0.01   0.02
     8   6    -0.09   0.13  -0.04    -0.02   0.00  -0.05     0.01   0.01   0.02
     9   6    -0.05   0.13   0.04    -0.04  -0.01   0.00     0.01   0.01   0.00
    10   6    -0.01   0.07   0.07    -0.05  -0.03   0.02     0.01   0.02  -0.01
    11   6    -0.01   0.00   0.02    -0.04  -0.02  -0.00     0.01   0.02  -0.00
    12   6     0.04  -0.05   0.02    -0.03  -0.02   0.00     0.01   0.02  -0.01
    13   6     0.08  -0.04   0.03    -0.03  -0.02   0.00     0.01   0.02  -0.01
    14   6     0.10  -0.05   0.02    -0.04  -0.03  -0.00     0.00   0.02  -0.01
    15   6     0.09  -0.05  -0.01    -0.07  -0.04  -0.02     0.04   0.04   0.02
    16   6     0.05  -0.04  -0.03    -0.09  -0.04  -0.03     0.07   0.05   0.03
    17   6     0.03  -0.03  -0.02    -0.06  -0.03  -0.02     0.05   0.03   0.02
    18   6    -0.03  -0.03  -0.05    -0.06  -0.02  -0.01     0.05   0.02   0.02
    19   6    -0.05  -0.02  -0.04     0.01   0.01   0.02    -0.02  -0.00  -0.02
    20   6    -0.01  -0.01  -0.00     0.07   0.03   0.05    -0.08  -0.03  -0.05
    21   6     0.04  -0.01   0.03     0.05   0.02   0.04    -0.07  -0.01  -0.05
    22   6     0.06  -0.03   0.01    -0.02  -0.01   0.01     0.00   0.02  -0.01
    23   1    -0.03  -0.15  -0.07    -0.03  -0.02  -0.02     0.02   0.03  -0.01
    24   1    -0.10  -0.06  -0.11    -0.02  -0.00  -0.06     0.01   0.02   0.01
    25   1    -0.13   0.07  -0.13     0.00   0.02  -0.10     0.00   0.01   0.03
    26   1    -0.12   0.18  -0.06    -0.01   0.02  -0.07     0.00   0.00   0.03
    27   1    -0.05   0.17   0.07    -0.05  -0.02   0.02     0.01   0.01   0.00
    28   1     0.02   0.06   0.13    -0.06  -0.04   0.06     0.02   0.02  -0.02
    29   1     0.10  -0.06  -0.02    -0.08  -0.05  -0.03     0.04   0.04   0.02
    30   1    -0.05  -0.03  -0.08    -0.10  -0.03  -0.04     0.10   0.04   0.05
    31   1    -0.10  -0.02  -0.07     0.02   0.02   0.02    -0.02  -0.01  -0.02
    32   1    -0.03  -0.00   0.01     0.13   0.06   0.08    -0.14  -0.05  -0.08
    33   1     0.08  -0.00   0.06     0.09   0.03   0.07    -0.11  -0.03  -0.07
    34   1     0.08  -0.13  -0.01    -0.04   0.03   0.03     0.04   0.04  -0.01
    35   1     0.07  -0.12  -0.01    -0.01  -0.02   0.01    -0.05   0.02  -0.02
    36  17     0.11  -0.02   0.02     0.00   0.17   0.08     0.05   0.12   0.02
    37   8    -0.05  -0.05  -0.05     0.01  -0.03  -0.07     0.03  -0.02   0.06
    38   7     0.01   0.05   0.02     0.03  -0.04   0.04     0.00   0.00  -0.04
    39   7     0.04   0.02  -0.02     0.03  -0.01   0.01     0.02  -0.04   0.03
    40   6    -0.00   0.09   0.03     0.05  -0.07   0.08     0.00   0.03  -0.02
    41   6    -0.05   0.12   0.02     0.05  -0.07   0.07     0.00   0.00   0.03
    42   6    -0.06   0.09   0.03     0.02  -0.02   0.03    -0.04   0.01  -0.00
    43   6    -0.07   0.04   0.04     0.04  -0.01  -0.03    -0.02   0.02  -0.06
    44   6    -0.02   0.03   0.02     0.05  -0.03  -0.02    -0.03  -0.02  -0.02
    45   6    -0.01   0.08   0.02    -0.03   0.01   0.06    -0.08   0.02   0.00
    46   6     0.01   0.06   0.02    -0.01  -0.00   0.06    -0.00  -0.02  -0.04
    47   6    -0.00   0.04   0.03    -0.08   0.02   0.03    -0.22   0.01  -0.05
    48   6     0.08   0.02   0.04     0.13   0.01   0.11     0.00  -0.03   0.01
    49   6     0.03   0.05   0.02     0.02  -0.05   0.06     0.03   0.00  -0.06
    50   6     0.02   0.03   0.03     0.02  -0.02   0.01     0.03  -0.00  -0.04
    51   6    -0.00  -0.00   0.02    -0.01   0.03  -0.00     0.02  -0.04  -0.05
    52   6    -0.08  -0.06   0.01    -0.01   0.05  -0.07    -0.01  -0.06  -0.04
    53   6    -0.12  -0.08   0.01     0.02   0.03  -0.11    -0.01  -0.05  -0.02
    54   6    -0.08  -0.03   0.02     0.05  -0.03  -0.10     0.01  -0.00  -0.01
    55   6    -0.01   0.03   0.04     0.05  -0.05  -0.03     0.03   0.02  -0.02
    56   6    -0.02  -0.01  -0.03     0.04  -0.01  -0.06    -0.02  -0.05   0.04
    57   6    -0.03  -0.01  -0.02     0.05  -0.00  -0.04    -0.04  -0.06   0.04
    58   6    -0.02  -0.01  -0.02     0.03   0.02  -0.03    -0.02  -0.06   0.04
    59   6    -0.05  -0.03  -0.02     0.02   0.04  -0.05    -0.05  -0.08   0.04
    60   6    -0.05  -0.03  -0.02    -0.02   0.05  -0.04    -0.01  -0.07   0.04
    61   6    -0.01  -0.01  -0.02    -0.05   0.04  -0.01     0.06  -0.04   0.04
    62   6     0.03   0.01  -0.02    -0.04   0.02   0.01     0.07  -0.03   0.04
    63   6     0.02   0.01  -0.02     0.01   0.01  -0.00     0.02  -0.04   0.04
    64   6     0.02   0.02  -0.02     0.05  -0.02   0.00    -0.02  -0.05   0.03
    65   6    -0.02  -0.00  -0.02     0.06  -0.02  -0.03    -0.04  -0.06   0.04
    66   1     0.02   0.11   0.04     0.02  -0.08   0.11     0.01   0.02  -0.06
    67   1     0.00   0.07   0.03     0.08  -0.09   0.07     0.00   0.07  -0.02
    68   1    -0.04   0.17   0.01     0.03  -0.09   0.11    -0.02  -0.03   0.07
    69   1    -0.09   0.12   0.02     0.10  -0.09   0.05     0.05   0.01   0.04
    70   1    -0.08   0.10   0.03     0.01  -0.01   0.03    -0.06   0.01   0.01
    71   1    -0.12   0.05   0.06     0.07  -0.02  -0.06     0.01  -0.01  -0.11
    72   1    -0.08  -0.01   0.04     0.01   0.03  -0.05    -0.04   0.08  -0.08
    73   1     0.01   0.10   0.00    -0.03   0.00   0.10    -0.08   0.05   0.08
    74   1     0.01   0.03   0.02    -0.02   0.02   0.03    -0.01  -0.07  -0.06
    75   1     0.03   0.06   0.02    -0.01  -0.00   0.08     0.05   0.00  -0.05
    76   1    -0.07   0.04   0.03    -0.32   0.04  -0.07    -0.54   0.02  -0.16
    77   1     0.14   0.02   0.03     0.36  -0.01   0.19     0.32  -0.04   0.10
    78   1     0.09  -0.01   0.05     0.08   0.00   0.10    -0.12  -0.05  -0.03
    79   1     0.03   0.01   0.03    -0.04   0.05   0.03     0.02  -0.05  -0.06
    80   1    -0.10  -0.09   0.00    -0.04   0.10  -0.08    -0.02  -0.09  -0.04
    81   1    -0.19  -0.12  -0.01     0.02   0.04  -0.16    -0.03  -0.06  -0.01
    82   1    -0.11  -0.03   0.02     0.08  -0.05  -0.13     0.01   0.01   0.01
    83   1     0.02   0.06   0.05     0.07  -0.09  -0.02     0.04   0.05  -0.01
    84   1     0.01   0.00  -0.06     0.05   0.01  -0.08    -0.03  -0.07   0.07
    85   1    -0.09  -0.04  -0.02     0.05   0.05  -0.07    -0.11  -0.11   0.05
    86   1    -0.08  -0.04  -0.02    -0.02   0.07  -0.05    -0.03  -0.09   0.04
    87   1    -0.01  -0.01  -0.02    -0.09   0.05  -0.00     0.10  -0.03   0.04
    88   1     0.06   0.02  -0.02    -0.06   0.01   0.03     0.12  -0.01   0.03
    89   1     0.04   0.03  -0.02     0.07  -0.03   0.02    -0.03  -0.05   0.03
    90   1    -0.03  -0.01  -0.02     0.07  -0.04  -0.03    -0.05  -0.06   0.04
    91   1     0.04  -0.11  -0.08    -0.01  -0.02  -0.09     0.01  -0.01   0.09
    92   1    -0.01   0.05   0.02     0.08  -0.06  -0.02    -0.07  -0.03  -0.03
    93   1     0.02   0.04   0.01     0.04  -0.06   0.09     0.01   0.00  -0.08
    94   1     0.04   0.04   0.01    -0.03  -0.05   0.09     0.05   0.01  -0.07
    95   1     0.04  -0.04  -0.06    -0.13  -0.06  -0.05     0.11   0.06   0.06
                     16                     17                     18
                      A                      A                      A
 Frequencies --     79.2570                86.8818                96.8241
 Red. masses --      6.4727                 6.0513                 5.9845
 Frc consts  --      0.0240                 0.0269                 0.0331
 IR Inten    --      1.5267                 2.0638                 1.0019
  Atom  AN      X      Y      Z        X      Y      Z        X      Y      Z
     1   8     0.03  -0.05   0.06    -0.02   0.02   0.11    -0.07  -0.02   0.04
     2   8     0.09   0.06  -0.03    -0.12   0.08  -0.08     0.08   0.02   0.02
     3   6     0.05  -0.01  -0.01     0.01   0.05   0.02    -0.04  -0.02   0.00
     4   6     0.04  -0.00  -0.06     0.04   0.07  -0.01    -0.03  -0.02  -0.02
     5   6     0.03   0.03  -0.08     0.06   0.07  -0.03    -0.02  -0.00  -0.04
     6   6     0.02   0.04  -0.04     0.05   0.04  -0.00    -0.02  -0.01  -0.04
     7   6    -0.04   0.04   0.03     0.03  -0.00   0.07    -0.03  -0.01  -0.03
     8   6    -0.07   0.04   0.12     0.00  -0.04   0.11    -0.04  -0.02  -0.00
     9   6    -0.03   0.05   0.12     0.01  -0.02   0.06    -0.05  -0.03   0.02
    10   6     0.03   0.06   0.04     0.03   0.02  -0.02    -0.04  -0.02  -0.00
    11   6     0.05   0.05  -0.03     0.05   0.05  -0.03    -0.03  -0.01  -0.03
    12   6     0.08   0.03  -0.04     0.03   0.06  -0.03    -0.03  -0.02  -0.03
    13   6     0.10   0.03  -0.04     0.01   0.06  -0.04    -0.01  -0.01  -0.03
    14   6     0.09   0.04  -0.03    -0.04   0.06  -0.04     0.02  -0.00  -0.01
    15   6     0.08   0.03  -0.01    -0.03   0.06   0.00     0.00  -0.01  -0.02
    16   6     0.06   0.00  -0.01     0.02   0.05   0.03    -0.03  -0.03  -0.03
    17   6     0.06  -0.02  -0.03     0.03   0.03   0.00    -0.02  -0.03  -0.03
    18   6     0.01  -0.06  -0.05     0.04   0.00   0.01     0.01  -0.03  -0.01
    19   6    -0.01  -0.09  -0.08     0.00  -0.04  -0.03     0.05  -0.02  -0.00
    20   6     0.03  -0.07  -0.09    -0.04  -0.04  -0.08     0.07  -0.01  -0.00
    21   6     0.08  -0.02  -0.07    -0.02  -0.00  -0.08     0.03  -0.02  -0.02
    22   6     0.08   0.00  -0.04     0.01   0.03  -0.04    -0.01  -0.02  -0.03
    23   1     0.04  -0.02  -0.07     0.05   0.08  -0.01    -0.04  -0.03  -0.01
    24   1     0.03   0.03  -0.12     0.09   0.08  -0.04    -0.01   0.00  -0.06
    25   1    -0.07   0.03   0.02     0.03  -0.01   0.10    -0.02  -0.01  -0.05
    26   1    -0.12   0.03   0.18    -0.02  -0.08   0.19    -0.05  -0.03   0.01
    27   1    -0.06   0.05   0.18    -0.01  -0.05   0.09    -0.06  -0.04   0.04
    28   1     0.06   0.07   0.03     0.04   0.04  -0.06    -0.04  -0.02   0.00
    29   1     0.08   0.05   0.01    -0.05   0.07   0.01     0.01  -0.01  -0.01
    30   1    -0.02  -0.08  -0.03     0.07   0.01   0.05    -0.01  -0.04  -0.01
    31   1    -0.05  -0.13  -0.09     0.00  -0.06  -0.03     0.08  -0.01   0.01
    32   1     0.03  -0.09  -0.11    -0.07  -0.07  -0.11     0.11  -0.00   0.01
    33   1     0.11  -0.01  -0.08    -0.05  -0.01  -0.11     0.03  -0.01  -0.03
    34   1    -0.04  -0.07   0.12     0.03  -0.05   0.05     0.04  -0.03  -0.06
    35   1     0.06   0.05  -0.03    -0.10   0.12  -0.04     0.09   0.02   0.01
    36  17    -0.08  -0.00   0.19     0.13  -0.08  -0.08     0.18   0.04  -0.14
    37   8    -0.04   0.00   0.03    -0.06   0.00  -0.04    -0.00   0.05   0.07
    38   7    -0.07  -0.05   0.00    -0.02  -0.05   0.06    -0.05  -0.01  -0.00
    39   7    -0.02  -0.00  -0.01     0.01   0.01   0.00    -0.03   0.04  -0.02
    40   6    -0.07  -0.08  -0.03    -0.02  -0.05   0.07    -0.05  -0.05  -0.03
    41   6    -0.04  -0.08  -0.07    -0.06   0.00   0.01     0.02  -0.10  -0.01
    42   6    -0.01  -0.04  -0.06    -0.07   0.02   0.01     0.03  -0.04  -0.02
    43   6    -0.01  -0.02  -0.04    -0.07  -0.03  -0.01     0.06   0.02  -0.04
    44   6    -0.05  -0.04  -0.01    -0.03  -0.05  -0.01    -0.01   0.01   0.01
    45   6    -0.02  -0.02  -0.03    -0.02   0.04   0.04    -0.03  -0.01  -0.00
    46   6    -0.05  -0.02   0.01    -0.03   0.01   0.08    -0.02  -0.02  -0.01
    47   6     0.02   0.03  -0.03     0.02   0.02   0.06    -0.11   0.01  -0.04
    48   6     0.02   0.07   0.01     0.14  -0.00   0.08     0.04   0.01   0.02
    49   6    -0.10  -0.05   0.03     0.00  -0.10   0.11    -0.09  -0.00   0.01
    50   6    -0.09  -0.02  -0.01     0.03  -0.07   0.08    -0.10  -0.02   0.02
    51   6    -0.08   0.04  -0.00     0.02  -0.02   0.08    -0.06  -0.01   0.04
    52   6     0.02   0.13  -0.01     0.00  -0.01   0.02     0.01   0.03   0.09
    53   6     0.09   0.14  -0.02    -0.01  -0.06  -0.03     0.03   0.06   0.12
    54   6     0.05   0.05  -0.04     0.01  -0.11  -0.03    -0.04   0.03   0.09
    55   6    -0.05  -0.03  -0.03     0.03  -0.11   0.03    -0.10  -0.00   0.04
    56   6    -0.05  -0.01   0.03    -0.04  -0.03  -0.05    -0.01   0.06   0.06
    57   6    -0.02  -0.00   0.02    -0.02  -0.02  -0.06     0.02   0.07   0.06
    58   6    -0.01  -0.01   0.02    -0.02   0.01  -0.05     0.03   0.04   0.05
[...]
 00033555,-0.00005677,-0.00003940,-0.00009544,0.00000777,0.00002676,0.0
 0004876,-0.00000599,-0.00003531,-0.00000382,0.00000362,0.00000019,0.00
 003159,-0.00000220,-0.00001706,-0.00000511,0.00000265,0.00001063,-0.00
 000025,0.00000222,-0.00000059,0.00002386,-0.00000159,-0.00002773,0.000
 03487,-0.00005548,-0.00007033,-0.00001003,-0.00000222,-0.00001507,0.00
 001118,-0.00000178,-0.00000194,0.00000929,-0.00002047,0.00000127,0.000
 01734,-0.00001266,0.00001257,-0.00000462,0.00000490,0.00001980,-0.0000
 2508,0.00002411,0.00003166,0.00000356,0.00000111,0.00000711,-0.0000082
 2,0.00000006,0.00000109,0.00000032,-0.00000154,-0.00000208,-0.00000229
 ,-0.00000341,0.00000098,-0.00003115,0.00013611,-0.00038865,-0.00012702
 ,0.00012744,0.00010981,0.00006524,-0.00010263,0.00019125,0.00003157,-0
 .00006900,-0.00055034,0.00010902,0.00468593,0.00311140,-0.00443491,-0.
 00000449,-0.00003139,-0.00006597,-0.00026806,-0.00019368,0.00060397,-0
 .00019937,-0.00016564,-0.00015914,0.00000538,0.00005447,-0.00001315,0.
 00008290,-0.00030713,0.00012004,-0.00068604,0.00050869,0.00049661,0.00
 003045,0.00027468,0.00010737,-0.00068896,-0.00036925,0.00065050,-0.000
 06701,-0.00003233,0.00002872,-0.00001288,0.00001425,0.00004700,0.07886
 632,-0.16370824,-0.02863314,0.01278960,-0.01786032,0.01150158,0.000351
 96,0.00028160,0.00042229,-0.00010600,-0.00012590,-0.00019552,-0.000035
 53,-0.00006122,-0.00008489,-0.00010226,-0.00013178,0.00011288,0.000369
 39,-0.00023498,0.00057137,0.00003201,0.00059213,0.00040701,-0.00003133
 ,0.00001222,0.00005895,-0.00000174,0.00003201,-0.00000797,-0.00008690,
 0.00011381,-0.00005995,-0.00000570,-0.00001821,-0.00007482,-0.00000627
 ,0.00002579,-0.00003318,-0.00000727,0.00001724,-0.00005194,-0.00000313
 ,0.00007215,0.00002805,0.00000974,-0.00002479,0.00001013,0.00002164,-0
 .00005597,-0.00007850,0.00001339,0.00000516,0.00006192,-0.00014783,0.0
 0018768,0.00011658,-0.00000157,-0.00000050,0.00004192,-0.00002801,0.00
 005480,0.00001915,0.00001702,-0.00000111,-0.00001403,-0.00003564,0.000
 04354,0.00002838,-0.00001682,0.00003856,-0.00002578,0.00000606,-0.0000
 2051,0.00002120,-0.00001708,-0.00001693,-0.00007845,0.00001566,-0.0001
 2348,0.00001751,0.00000820,0.00002006,-0.00000269,0.00000452,-0.000012
 14,-0.00001211,0.00000422,-0.00000816,-0.00002017,0.00004322,0.0003269
 2,-0.00001367,-0.00000400,0.00006501,-0.00000945,0.00003797,-0.0000175
 7,0.00003309,0.00001211,-0.00001762,0.00001143,0.00007578,0.00002173,-
 0.00002133,-0.00006883,0.00041790,-0.00048078,0.00016177,-0.00032933,0
 .00025416,0.00002427,-0.00005031,0.00001354,0.00000736,-0.00001529,-0.
 00001152,0.00000995,-0.00003821,0.00003366,0.00000414,-0.00000179,0.00
 003724,-0.00001104,0.00006913,0.00000335,0.00007121,0.00019938,-0.0003
 7604,-0.00031468,-0.00000813,0.00027187,-0.00120587,-0.01901874,-0.007
 92040,-0.09422507,0.19656290,0.00061420,0.00074625,-0.00009364,0.00015
 630,-0.00006362,-0.00005621,-0.00070002,-0.00007419,0.00034261,0.00002
 693,0.00003401,-0.00016071,0.00000006,0.00000217,-0.00000087,0.0000001
 7,0.00002674,-0.00007176,-0.00001100,-0.00000443,0.00000358,0.00001131
 ,0.00000578,-0.00003223,-0.00001572,-0.00001052,0.00002346,0.00005906,
 -0.00002026,-0.00001986,-0.00013967,-0.00000147,0.00010382,0.00026247,
 -0.00006404,-0.00003708,0.00002660,0.00004298,-0.00001579,-0.00006765,
 -0.00001725,-0.00003513,0.00003476,-0.00000786,0.00000176,0.00000436,0
 .00000026,0.00000752,0.00000302,-0.00000672,0.00000369,0.00000511,0.00
 000334,0.00000239,0.00000383,0.00000526,0.00001093,0.00000114,0.000010
 24,-0.00000284,0.00000749,0.00001647,0.00000590,-0.00000916,-0.0000215
 5,-0.00001983,0.00002062,-0.00000012,0.00002782,0.00001006,-0.00000020
 ,0.00001876,0.00000406,-0.00000025,0.00001229,-0.00000767,0.00000202,0
 .00000995,-0.00000305,0.00000482,0.00000030,-0.00000469,0.00000343,0.0
 0000530,-0.00001786,0.00000453,0.00000405,-0.00000405,0.00000192,-0.00
 000532,-0.00000350,-0.00000508,-0.00000969,-0.00000227,-0.00001217,0.0
 0000038,-0.00000256,-0.00000800,0.00000639,0.00021059,-0.00038023,-0.0
 0003340,-0.00004132,0.00003414,0.00005527,-0.00014505,0.00014635,-0.00
 001510,0.00002325,0.00028629,0.00027602,0.02020816,-0.01555089,-0.0110
 0974,0.00001433,-0.00009951,0.00000736,0.00040486,-0.00015292,-0.00026
 117,-0.00003092,0.00004389,-0.00003643,0.00002145,-0.00007502,0.000081
 13,-0.00008638,-0.00000208,-0.00000831,0.00166026,0.00058206,-0.003067
 72,-0.00003334,-0.00050760,-0.00026602,0.00161909,0.00099272,-0.001223
 57,0.00008230,0.00003861,-0.00004044,-0.00001232,-0.00000717,-0.000034
 62,0.01425217,-0.02511844,-0.03514346,-0.01226874,0.02183978,-0.002486
 07,-0.00121926,0.00083516,-0.00202305,0.00016616,-0.00017164,0.0001871
 8,-0.00002504,0.00018411,0.00007422,0.00023990,0.00039947,-0.00041887,
 -0.00078314,0.00043953,-0.00181949,-0.00012866,0.00012339,-0.00225317,
 -0.00004201,0.00009009,0.00001500,0.00000731,-0.00004564,0.00003029,0.
 00000824,-0.00001585,-0.00002670,0.00000596,-0.00004679,-0.00004364,0.
 00000072,-0.00000825,-0.00003636,0.00000104,-0.00001030,0.00001102,0.0
 0000353,-0.00000352,-0.00001649,-0.00001907,0.00014254,-0.00001402,0.0
 0002069,-0.00011373,0.00012611,-0.00006934,0.00000537,-0.00001913,-0.0
 0018731,0.00001532,0.00010942,0.00000255,-0.00000029,-0.00000892,0.000
 01879,-0.00000561,0.00001261,-0.00001052,0.00000487,-0.00000786,0.0000
 0292,0.00003908,0.00002542,0.00000876,-0.00003241,-0.00000742,0.000009
 76,0.00002246,-0.00001913,0.00027620,-0.00005361,0.00009213,0.00004732
 ,0.00014286,-0.00002535,0.00000263,-0.00002543,-0.00000903,0.00001757,
 0.00001177,0.00000148,0.00000264,0.00000267,0.00001142,-0.00046835,-0.
 00023106,-0.00069939,-0.00001717,-0.00001618,0.00000392,-0.00002636,-0
 .00001142,0.00001151,-0.00003777,0.00004561,-0.00007920,-0.00005419,-0
 .00013109,0.00001921,-0.00059293,0.00031252,-0.00009206,-0.00007016,0.
 00022989,0.00009826,0.00000480,-0.00001147,0.00007355,-0.00000303,0.00
 002292,0.00001099,-0.00000229,0.00001585,-0.00001338,0.00000098,-0.000
 00975,-0.00002129,0.00000724,-0.00002077,-0.00003041,-0.00018803,-0.00
 022716,-0.00004374,0.00044015,0.00051711,-0.00017384,0.00031995,-0.010
 72541,0.00045082,-0.02380409,0.02564821,0.05972143,-0.00011969,-0.0000
 9000,0.00012951,-0.00034597,0.00003728,-0.00003144,0.00015101,0.000085
 80,-0.00016447,-0.00004924,-0.00000617,0.00002899,0.00001693,-0.000006
 81,0.00000096,-0.00004447,-0.00000014,0.00003279,0.00002515,-0.0000032
 9,-0.00001039,-0.00002480,0.00001463,-0.00001231,-0.00001513,0.0000004
 4,0.00000493,-0.00001139,0.00001388,-0.00003849,0.00006771,-0.00006702
 ,0.00005675,-0.00089977,0.00012327,0.00010472,0.00036156,0.00013135,0.
 00010886,0.00643689,-0.00119688,-0.00155376,0.00392606,0.00137434,-0.0
 1003051,-0.04432708,0.01295915,-0.01732563,0.00650192,-0.00102486,0.00
 039934,-0.00090676,-0.00002477,0.00032626,-0.00011340,-0.00010267,0.00
 005286,-0.00007815,0.00000406,-0.00010600,-0.00046428,0.00009882,0.000
 15763,0.00314230,-0.00056295,-0.00064972,0.00000681,0.00000157,-0.0000
 0227,0.00000029,0.00000158,-0.00000158,-0.00000030,-0.00000048,0.00000
 363,0.00000520,0.00000107,-0.00000170,0.00000900,-0.00000780,0.0000129
 1,0.00001347,-0.00002464,0.00005363,-0.00183580,0.00009709,0.00023528,
 0.00028508,-0.00012628,-0.00009075,0.00010738,-0.00001237,-0.00001079,
 0.00005840,0.00000532,-0.00001072,0.00016354,-0.00002338,-0.00003571,0
 .00000149,0.00002375,-0.00001012,0.00008046,0.00003822,-0.00002824,-0.
 00000309,-0.00002130,0.00001246,0.00004496,-0.00010670,0.00009772,0.00
 000638,0.00000245,0.00000002,0.00002779,0.00009410,0.00001494,-0.00000
 320,-0.00001817,0.00001668,0.00001533,-0.00000469,0.00000782,-0.000002
 53,0.00000522,-0.00000890,0.00001854,-0.00000858,0.00001961,0.00000034
 ,0.00001381,-0.00001218,0.00000277,-0.00000152,0.00000611,0.00001036,-
 0.00001039,0.00002749,0.00000603,-0.00000612,0.00000157,0.00000732,-0.
 00001154,0.00000289,0.00001764,-0.00001394,-0.00000638,-0.00000339,0.0
 0000095,0.00000235,-0.00000133,-0.00000527,0.00000322,0.00000086,-0.00
 000281,0.00000467,0.00000115,-0.00000026,0.00000492,-0.00000046,-0.000
 00271,0.00000087,-0.00000047,-0.00000269,0.00000661,-0.00008551,0.0000
 5201,-0.00004480,-0.00000350,-0.00002038,-0.00004424,-0.00001405,0.000
 03449,0.00003465,0.00000058,-0.00000957,-0.00001327,-0.00001183,0.0000
 3753,0.00002232,-0.00000801,0.00001326,0.00003530,-0.00000193,-0.00000
 014,-0.00000148,-0.00002703,-0.00003450,0.00000780,-0.00000565,0.00004
 396,-0.00008874,0.00016471,-0.00005798,0.00016613,0.00000104,0.0000065
 2,-0.00000550,-0.00000158,0.00000134,-0.00000652,-0.00000609,0.0000013
 2,-0.00000081,-0.00000606,-0.00000019,-0.00000274,-0.00000353,-0.00000
 052,0.00000282,-0.00000955,-0.00000021,-0.00000099,-0.00001698,0.00000
 193,-0.00000698,-0.00000435,0.00000217,-0.00000137,-0.00001465,0.00001
 474,-0.00001769,0.00000249,0.00000772,-0.00000785,-0.00000610,0.000003
 68,-0.00000247,-0.00000147,0.00000787,-0.00000520,-0.00000359,0.000005
 92,0.00000185,0.00000061,0.00000224,-0.00000345,0.00000029,-0.00000156
 ,-0.00000341,-0.00000083,0.00000234,-0.00000497,0.00000058,0.00000470,
 -0.00000089,0.00000244,0.00000277,-0.00000233,0.00003074,0.00000710,-0
 .00002266,0.00000256,0.00001270,-0.00001419,0.00000504,-0.00000394,-0.
 00002894,0.00000975,-0.00002906,-0.00000756,0.00001032,-0.00002500,0.0
 0001847,-0.00007579,-0.00003663,0.00000181,-0.00010701,-0.00002157,-0.
 00003792,0.00003784,0.00011609,-0.00013038,-0.00000273,-0.00000214,-0.
 00000556,0.00001269,0.00001858,-0.00000171,-0.00000297,0.00000600,-0.0
 0000801,0.02787017,-0.00047540,0.00009275,0.00009118,-0.00006454,-0.00
 007426,-0.00047711,0.00029249,-0.00001888,-0.00010781,-0.00007550,-0.0
 0002081,0.00006032,0.00009818,-0.00000895,-0.00004806,-0.00006185,0.00
 004924,-0.00004629,0.00004387,0.00000039,-0.00003061,-0.00000429,0.000
 02511,-0.00003998,0.00000868,-0.00003570,0.00004576,0.00009546,-0.0000
 1349,-0.00005011,-0.00012559,0.00004609,0.00004560,0.00010797,-0.00000
 391,-0.00001288,-0.00015683,-0.00013962,-0.00009608,-0.00067055,-0.000
 34005,-0.00071782,-0.00130449,0.00687299,-0.00752645,0.01274836,-0.086
 36198,0.08267996,0.00183790,-0.03098574,0.02427672,-0.00008703,-0.0018
 7028,-0.00012513,0.00005095,0.00020280,0.00017851,0.00001402,-0.000032
 00,0.00007919,0.00007952,-0.00032133,0.00048622,-0.00057465,-0.0026971
 0,-0.00074174,0.00002187,-0.00000732,0.00000347,0.00000209,-0.00001493
 ,0.00002521,-0.00000031,-0.00000869,0.00001501,-0.00001573,0.00000023,
 0.00001149,-0.00002363,0.00001833,-0.00001023,-0.00004215,0.00000726,0
 .00002145,0.00003324,0.00063176,-0.00080681,-0.00017224,-0.00049399,-0
 .00067269,-0.00001975,-0.00000336,-0.00007228,-0.00000390,-0.00001890,
 -0.00000152,-0.00002738,-0.00012932,-0.00000126,0.00019755,-0.00022723
 ,0.00000188,-0.00002008,0.00019459,0.00003202,-0.00011385,0.00009556,-
 0.00000905,-0.00018463,-0.00019795,-0.00000590,0.00001551,0.00000211,0
 .00000643,0.00021811,-0.00006788,0.00002660,0.00000640,-0.00000779,0.0
 0001066,-0.00000595,-0.00001069,-0.00000218,-0.00000616,0.00000214,0.0
 0000701,-0.00000236,-0.00002698,0.00000791,-0.00003441,-0.00000860,-0.
 00002467,0.00000225,0.00000251,-0.00000205,-0.00002723,-0.00001632,-0.
 00000103,-0.00000707,-0.00000643,0.00000552,-0.00001400,-0.00000287,0.
 00000751,-0.00005240,-0.00004798,-0.00003712,0.00000053,-0.00000304,0.
 00001242,-0.00000552,-0.00000591,-0.00000371,-0.00000264,-0.00000300,-
 0.00000420,-0.00000319,0.00000002,-0.00000416,-0.00000386,-0.00000063,
 -0.00000348,-0.00000952,-0.00000397,-0.00000675,0.00002767,0.00017011,
 0.00005981,-0.00001211,-0.00000776,-0.00006772,-0.00002750,-0.00002440
 ,0.00005775,-0.00001116,-0.00003889,0.00000394,-0.00000459,0.00000203,
 0.00001057,0.00000300,-0.00000228,0.00001700,0.00002745,0.00000048,0.0
 0003900,-0.00003609,-0.00004245,-0.00005534,-0.00004675,0.00026722,-0.
 00008095,-0.00001731,-0.00015119,0.00019472,0.00000313,0.00000141,-0.0
 0000014,-0.00000021,0.00000539,-0.00000053,0.00000283,0.00000180,0.000
 00091,0.00000120,0.00000601,-0.00000163,0.00000301,0.00000191,-0.00000
 330,-0.00000437,0.00001082,-0.00000561,0.00000126,0.00001423,-0.000005
 60,0.00000245,-0.00000096,0.00000032,0.00003164,0.00000897,0.00000683,
 0.00001122,0.00000513,0.00000030,0.00000452,0.00000377,-0.00000557,0.0
 0001144,0.00000369,-0.00000823,0.00000575,0.00000006,-0.00000109,0.000
 00306,0.00000659,-0.00000018,0.00000289,0.00000453,0.00000471,0.000003
 65,-0.00000176,0.00000465,0.00000388,-0.00000133,0.00000103,0.00001268
 ,0.00000773,0.00001153,0.00005645,0.00000963,-0.00001106,0.00001363,0.
 00002987,-0.00001462,0.00000278,0.00000266,-0.00001179,-0.00000318,-0.
 00000285,-0.00000416,-0.00002430,0.00000736,-0.00003152,-0.00007213,0.
 00000974,-0.00003815,0.00001817,0.00005759,-0.00000536,0.00022020,0.00
 010096,-0.00009228,-0.00000644,0.00001384,-0.00000269,0.00009960,0.000
 06044,0.00005907,0.00001085,0.00001409,0.00000433,-0.01179409,0.115439
 81,0.00064615,-0.00013413,-0.00014161,-0.00006081,0.00026276,-0.000619
 32,-0.00042624,0.00000138,0.00018485,0.00011195,0.00002364,-0.00008390
 ,-0.00013453,0.00001328,0.00006374,0.00009422,-0.00006813,0.00005387,-
 0.00006597,-0.00000043,0.00004412,0.00001179,-0.00004142,0.00005811,-0
 .00000565,0.00004505,-0.00006504,-0.00012870,0.00000593,0.00008179,0.0
 0015733,-0.00004055,-0.00007838,0.00012601,-0.00002332,0.00002183,0.00
 016920,0.00054311,0.00034494,-0.00185714,-0.00220314,-0.00146683,-0.00
 859702,0.00702760,-0.04098254,-0.01734512,0.08246102,-0.16346850,-0.00
 061166,0.01007010,-0.00051728,0.00026773,-0.00023646,0.00055482,-0.000
 03220,-0.00027040,-0.00020297,-0.00002010,0.00002802,-0.00019384,0.000
 11296,0.00002053,0.00010765,-0.00071745,-0.00020555,-0.00019383,-0.000
 03095,0.00001093,-0.00000348,-0.00000270,0.00002071,-0.00003349,0.0000
 0099,0.00001316,-0.00002170,0.00002109,0.00000091,-0.00001453,0.000030
 34,-0.00001852,0.00001043,0.00005392,0.00000807,-0.00005219,0.00023378
 ,-0.00060993,-0.00045700,-0.00007781,-0.00037311,0.00001485,-0.0000040
 4,-0.00000314,0.00009512,-0.00000897,0.00004941,-0.00000573,-0.0000334
 8,0.00000246,-0.00002871,-0.00027527,0.00032257,0.00000460,-0.00001937
 ,0.00003099,-0.00002006,0.00015791,-0.00013802,0.00000421,0.00021984,0
 .00020485,-0.00002141,-0.00001623,-0.00000288,-0.00000655,-0.00008254,
 0.00006080,-0.00006917,-0.00000716,0.00000237,-0.00001292,0.00001043,0
 .00000849,0.00000181,0.00001066,-0.00000002,-0.00001072,0.00000366,0.0
 0002292,-0.00001440,0.00003601,0.00000534,0.00002390,-0.00000342,-0.00
 000282,0.00000243,0.00003451,0.00002204,0.00000478,0.00000840,0.000009
 09,-0.00000575,0.00001552,0.00000172,-0.00002183,0.00007067,0.00005611
 ,0.00004803,-0.00000095,0.00000437,-0.00001591,0.00000743,0.00000549,0
 .00000482,0.00000385,0.00000296,0.00000567,0.00000464,-0.00000046,0.00
 000591,0.00000533,-0.00000034,0.00000411,0.00001325,0.00000372,0.00000
 847,-0.00003634,-0.00016183,-0.00007394,-0.00000129,0.00001920,0.00005
 989,0.00003689,0.00000130,-0.00005271,0.00001612,0.00003172,0.00000746
 ,0.00000961,-0.00000724,-0.00000233,0.00000250,0.00000903,-0.00001893,
 -0.00000242,0.00002586,-0.00002812,-0.00000875,0.00001327,-0.00000142,
 -0.00000892,-0.00020681,0.00007489,0.00002051,0.00007667,-0.00024940,-
 0.00000400,0.00000025,0.00000037,-0.00000097,-0.00000483,0.00000047,-0
 .00000484,-0.00000121,-0.00000052,-0.00000314,-0.00000584,0.00000175,-
 0.00000457,-0.00000197,0.00000711,0.00000208,-0.00001024,0.00000847,-0
 .00000244,-0.00000934,0.00001570,-0.00000330,0.00000108,-0.00000019,-0
 .00004127,-0.00000783,-0.00000467,-0.00001446,-0.00000617,-0.00000029,
 -0.00000434,-0.00000469,0.00000992,-0.00001440,-0.00000462,0.00001353,
 -0.00000488,0.00000047,0.00000880,-0.00000452,-0.00000634,-0.00000015,
 -0.00000405,-0.00000540,-0.00000604,-0.00000527,0.00000282,-0.00000670
 ,-0.00000553,0.00000339,-0.00000120,-0.00001680,-0.00000835,-0.0000132
 5,-0.00005653,-0.00001759,0.00000767,-0.00001434,-0.00002046,0.0000085
 5,-0.00000652,-0.00000403,0.00000424,-0.00000334,-0.00000517,0.0000009
 1,0.00000331,-0.00001440,0.00003042,0.00009374,0.00003182,0.00013779,-
 0.00000110,0.00000199,0.00006766,-0.00027564,-0.00012234,0.00012706,0.
 00000440,-0.00001195,0.00000266,-0.00012927,-0.00007680,-0.00007694,-0
 .00001303,-0.00001536,-0.00000686,0.02843228,-0.09647828,0.20702291\\0
 .00001523,0.00000447,-0.00000721,-0.00000462,0.00000091,-0.00000221,-0
 .00000826,-0.00000025,-0.00000392,0.00000310,-0.00000237,0.00000311,0.
 00000049,0.00000057,0.00000116,-0.00000205,0.00000289,-0.00000343,0.00
 000158,-0.00000055,0.00000027,-0.00000095,-0.00000031,0.00000093,-0.00
 000050,0.00000053,0.00000017,0.00000359,-0.00000124,0.00000039,-0.0000
 0365,-0.00000065,0.00000051,0.00000105,-0.00000035,0.00000053,0.000000
 96,-0.00000301,-0.00000273,0.00000488,0.00000467,0.00000233,0.00000003
 ,0.00000038,0.00000159,-0.00000007,-0.00000192,-0.00000254,0.00000012,
 0.00000051,0.00000379,0.00000145,-0.00000006,-0.00000158,-0.00000110,0
 .00000073,-0.00000241,0.00000067,-0.00000082,0.00000162,0.00000049,-0.
 00000003,-0.00000048,-0.00000163,0.00000197,0.00000215,-0.00000013,-0.
 00000107,-0.00000145,-0.00000055,-0.00000087,0.00000033,0.00000063,0.0
 0000002,0.00000003,0.00000011,0.00000050,-0.00000109,-0.00000040,-0.00
 000022,0.00000048,0.00000023,0.00000003,-0.00000016,-0.00000032,-0.000
 00115,0.00000101,-0.00000014,0.00000038,0.00000030,0.00000101,-0.00000
 054,0.00000122,-0.00000033,0.00000020,-0.00000080,-0.00000144,0.000000
 26,0.00000006,-0.00000706,0.00000110,0.00000374,0.00000323,-0.00000173
 ,-0.00000060,0.00000070,0.00000027,0.00000267,-0.00001711,0.00000239,0
 .00001207,0.00000029,0.00000292,-0.00000080,-0.00000346,0.00000089,0.0
 0000392,-0.00000289,-0.00000214,-0.00000256,-0.00000024,0.00000041,-0.
 00000258,-0.00000023,0.00000087,0.00000063,0.00000048,0.00000071,-0.00
 000059,0.00000189,0.00000084,0.00000704,-0.00000476,0.00000127,0.00000
 208,0.00000565,-0.00000054,0.00000441,-0.00000030,-0.00000214,0.000002
 13,-0.00000054,0.00000483,-0.00000068,0.00001286,0.00000129,-0.0000008
 7,-0.00000177,0.00000421,0.00000096,0.00000208,-0.00000180,0.00000315,
 -0.00000147,0.00000144,-0.00000149,-0.00000061,-0.00000269,-0.00000222
 ,0.00000202,0.00000012,0.00000455,-0.00000247,-0.00000362,-0.00000907,
 0.00000730,-0.00000829,-0.00001030,-0.00000278,0.00000409,0.00000357,0
 .00000121,-0.00000122,-0.00000112,-0.00000078,-0.00000047,0.00000073,0
 .00000075,0.00000007,0.00000065,-0.00000105,0.00000128,0.00000076,0.00
 000047,0.00000020,-0.00000153,-0.00000051,-0.00000251,-0.00000190,0.00
 001045,0.00000243,-0.00000291,-0.00000660,-0.00000454,0.00000153,0.000
 00026,0.00000052,-0.00000065,-0.00000054,0.00000012,-0.00000023,0.0000
 0006,-0.00000040,0.00000003,-0.00000006,-0.00000085,0.00000033,0.00000
 039,0.00000020,0.00000042,-0.00000096,-0.00000177,0.00000098,0.0000007
 7,-0.00000025,0.00000010,-0.00000015,0.00000027,-0.00000131,-0.0000013
 3,-0.00000023,0.00000143,-0.00000042,0.00000465,0.00000021,0.00000310,
 -0.00000018,-0.00000155,0.00000006,-0.00000220,-0.00000058,0.00000004,
 -0.00000156,-0.00000074,-0.00000126,0.00000020,-0.00000102,0.00000105,
 -0.00000055,-0.00000004,0.00000001,0.00000070,0.,-0.00000118,0.0000002
 9,-0.00000066,0.00000084,0.00000288,0.00000389,-0.00000399,0.00000170,
 0.00000150,-0.00000027,0.00000080,-0.00000048,-0.00000074,0.00000015,-
 0.00000018,0.00000102,-0.00000038,0.00000002,-0.00000009,-0.00000032,0
 .00000014,-0.00000276,-0.00000163,0.00000159,0.00000169,0.00000238,-0.
 00000056,0.00000928,0.00000002,-0.00000438,0.00000066,-0.00000398,-0.0
 0000186,-0.00000507,0.00000003,-0.00000101,-0.00000291,-0.00000383,-0.
 00000319,-0.00000173,-0.00000036,0.00000044\\\@


 NEVER TEACH A PIG TO SING.
 IT WASTES YOUR TIME AND ANNOYS THE PIG.
     -- SEEN ON A GREETING CARD
 Job cpu time:       0 days  0 hours  0 minutes 38.6 seconds.
 File lengths (MBytes):  RWF=   2772 Int=      0 D2E=      0 Chk=      7 Scr=      2
 Normal termination of Gaussian 09 at Mon Apr 18 12:48:27 2022.
