 Entering Gaussian System, Link 0=g09
 Input=/scratch/mverot/1-2-ethanediol-opt/1-2-ethanediol-opt.com
 Output=/scratch/mverot/1-2-ethanediol-opt/1-2-ethanediol-opt.log
 Initial command:
 /opt/g09/l1.exe "/scratch/mverot/1-2-ethanediol-opt/Gau-1474083.inp" -scrdir="/scratch/mverot/1-2-ethanediol-opt/"
 Entering Link 1 = /opt/g09/l1.exe PID=   1474085.
  
 Copyright (c) 1988,1990,1992,1993,1995,1998,2003,2009,2013,
            Gaussian, Inc.  All Rights Reserved.
  
 This is part of the Gaussian(R) 09 program.  It is based on
 the Gaussian(R) 03 system (copyright 2003, Gaussian, Inc.),
 the Gaussian(R) 98 system (copyright 1998, Gaussian, Inc.),
 the Gaussian(R) 94 system (copyright 1995, Gaussian, Inc.),
 the Gaussian 92(TM) system (copyright 1992, Gaussian, Inc.),
 the Gaussian 90(TM) system (copyright 1990, Gaussian, Inc.),
 the Gaussian 88(TM) system (copyright 1988, Gaussian, Inc.),
 the Gaussian 86(TM) system (copyright 1986, Carnegie Mellon
 University), and the Gaussian 82(TM) system (copyright 1983,
 Carnegie Mellon University). Gaussian is a federally registered
 trademark of Gaussian, Inc.
  
 This software contains proprietary and confidential information,
 including trade secrets, belonging to Gaussian, Inc.
  
 This software is provided under written license and may be
 used, copied, transmitted, or stored only in accord with that
 written license.
  
 The following legend is applicable only to US Government
 contracts under FAR:
  
                    RESTRICTED RIGHTS LEGEND
  
 Use, reproduction and disclosure by the US Government is
 subject to restrictions as set forth in subparagraphs (a)
 and (c) of the Commercial Computer Software - Restricted
 Rights clause in FAR 52.227-19.
  
 Gaussian, Inc.
 340 Quinnipiac St., Bldg. 40, Wallingford CT 06492
  
  
 ---------------------------------------------------------------
 Warning -- This program may not be used in any manner that
 competes with the business of Gaussian, Inc. or will provide
 assistance to any competitor of Gaussian, Inc.  The licensee
 of this program is prohibited from giving any competitor of
 Gaussian, Inc. access to this program.  By using this program,
 the user acknowledges that Gaussian, Inc. is engaged in the
 business of creating and licensing software in the field of
 computational chemistry and represents and warrants to the
 licensee that it is not a competitor of Gaussian, Inc. and that
 it will not use this program in any manner prohibited above.
 ---------------------------------------------------------------
  

 Cite this work as:
 Gaussian 09, Revision D.01,
 M. J. Frisch, G. W. Trucks, H. B. Schlegel, G. E. Scuseria, 
 M. A. Robb, J. R. Cheeseman, G. Scalmani, V. Barone, B. Mennucci, 
 G. A. Petersson, H. Nakatsuji, M. Caricato, X. Li, H. P. Hratchian, 
 A. F. Izmaylov, J. Bloino, G. Zheng, J. L. Sonnenberg, M. Hada, 
 M. Ehara, K. Toyota, R. Fukuda, J. Hasegawa, M. Ishida, T. Nakajima, 
 Y. Honda, O. Kitao, H. Nakai, T. Vreven, J. A. Montgomery, Jr., 
 J. E. Peralta, F. Ogliaro, M. Bearpark, J. J. Heyd, E. Brothers, 
 K. N. Kudin, V. N. Staroverov, T. Keith, R. Kobayashi, J. Normand, 
 K. Raghavachari, A. Rendell, J. C. Burant, S. S. Iyengar, J. Tomasi, 
 M. Cossi, N. Rega, J. M. Millam, M. Klene, J. E. Knox, J. B. Cross, 
 V. Bakken, C. Adamo, J. Jaramillo, R. Gomperts, R. E. Stratmann, 
 O. Yazyev, A. J. Austin, R. Cammi, C. Pomelli, J. W. Ochterski, 
 R. L. Martin, K. Morokuma, V. G. Zakrzewski, G. A. Voth, 
 P. Salvador, J. J. Dannenberg, S. Dapprich, A. D. Daniels, 
 O. Farkas, J. B. Foresman, J. V. Ortiz, J. Cioslowski, 
 and D. J. Fox, Gaussian, Inc., Wallingford CT, 2013.
 
 ******************************************
 Gaussian 09:  AM64L-G09RevD.01 24-Apr-2013
                17-Apr-2022 
 ******************************************
 %chk=1-2-ethanediol-opt
 ---------------
 # hf/6-31G* opt
 ---------------
 1/18=20,19=15,38=1/1,3;
 2/9=110,12=2,17=6,18=5,40=1/2;
 3/5=1,6=6,7=1,11=9,16=1,25=1,30=1,71=1/1,2,3;
 4//1;
 5/5=2,38=5/2;
 6/7=2,8=2,9=2,10=2,28=1/1;
 7//1,2,3,16;
 1/18=20,19=15/3(2);
 2/9=110/2;
 99//99;
 2/9=110/2;
 3/5=1,6=6,7=1,11=9,16=1,25=1,30=1,71=1/1,2,3;
 4/5=5,16=3,69=1/1;
 5/5=2,38=5/2;
 7//1,2,3,16;
 1/18=20,19=15/3(-5);
 2/9=110/2;
 6/7=2,8=2,9=2,10=2,19=2,28=1/1;
 99/9=1/99;
 -------------------------
 Optimisation de geometrie
 -------------------------
 Symbolic Z-matrix:
 Charge =  0 Multiplicity = 1
 C                     1.0379    2.1554    1.623 
 O                     1.6569    2.075     2.9094 
 C                     1.3393    0.836     0.929 
 O                     2.7356    0.6333    0.8072 
 H                     1.4617    2.9816    1.0336 
 H                    -0.0497    2.3075    1.709 
 H                     1.6972    2.965     3.2882 
 H                     0.9208    0.8398   -0.083 
 H                     0.8609    0.0177    1.4923 
 H                     3.0927    0.8053    1.6951 
 

 GradGradGradGradGradGradGradGradGradGradGradGradGradGradGradGradGradGrad
 Berny optimization.
 Initialization pass.
                           ----------------------------
                           !    Initial Parameters    !
                           ! (Angstroms and Degrees)  !
 --------------------------                            --------------------------
 ! Name  Definition              Value          Derivative Info.                !
 --------------------------------------------------------------------------------
 ! R1    R(1,2)                  1.4298         estimate D2E/DX2                !
 ! R2    R(1,3)                  1.521          estimate D2E/DX2                !
 ! R3    R(1,5)                  1.0998         estimate D2E/DX2                !
 ! R4    R(1,6)                  1.1015         estimate D2E/DX2                !
 ! R5    R(2,7)                  0.9681         estimate D2E/DX2                !
 ! R6    R(3,4)                  1.4162         estimate D2E/DX2                !
 ! R7    R(3,8)                  1.0951         estimate D2E/DX2                !
 ! R8    R(3,9)                  1.1026         estimate D2E/DX2                !
 ! R9    R(4,10)                 0.9724         estimate D2E/DX2                !
 ! A1    A(2,1,3)              106.0187         estimate D2E/DX2                !
 ! A2    A(2,1,5)              110.9508         estimate D2E/DX2                !
 ! A3    A(2,1,6)              111.405          estimate D2E/DX2                !
 ! A4    A(3,1,5)              109.3158         estimate D2E/DX2                !
 ! A5    A(3,1,6)              110.5522         estimate D2E/DX2                !
 ! A6    A(5,1,6)              108.5765         estimate D2E/DX2                !
 ! A7    A(1,2,7)              108.5636         estimate D2E/DX2                !
 ! A8    A(1,3,4)              111.026          estimate D2E/DX2                !
 ! A9    A(1,3,8)              110.0549         estimate D2E/DX2                !
 ! A10   A(1,3,9)              108.9477         estimate D2E/DX2                !
 ! A11   A(4,3,8)              107.3256         estimate D2E/DX2                !
 ! A12   A(4,3,9)              111.4381         estimate D2E/DX2                !
 ! A13   A(8,3,9)              107.9908         estimate D2E/DX2                !
 ! A14   A(3,4,10)             104.9658         estimate D2E/DX2                !
 ! D1    D(3,1,2,7)            164.9577         estimate D2E/DX2                !
 ! D2    D(5,1,2,7)             46.3753         estimate D2E/DX2                !
 ! D3    D(6,1,2,7)            -74.7213         estimate D2E/DX2                !
 ! D4    D(2,1,3,4)            -59.4136         estimate D2E/DX2                !
 ! D5    D(2,1,3,8)           -178.0964         estimate D2E/DX2                !
 ! D6    D(2,1,3,9)             63.6768         estimate D2E/DX2                !
 ! D7    D(5,1,3,4)             60.2449         estimate D2E/DX2                !
 ! D8    D(5,1,3,8)            -58.4379         estimate D2E/DX2                !
 ! D9    D(5,1,3,9)           -176.6647         estimate D2E/DX2                !
 ! D10   D(6,1,3,4)            179.7124         estimate D2E/DX2                !
 ! D11   D(6,1,3,8)             61.0297         estimate D2E/DX2                !
 ! D12   D(6,1,3,9)            -57.1972         estimate D2E/DX2                !
 ! D13   D(1,3,4,10)            49.1359         estimate D2E/DX2                !
 ! D14   D(8,3,4,10)           169.4508         estimate D2E/DX2                !
 ! D15   D(9,3,4,10)           -72.5093         estimate D2E/DX2                !
 --------------------------------------------------------------------------------
 Trust Radius=3.00D-01 FncErr=1.00D-07 GrdErr=1.00D-07
 Number of steps in this run=     48 maximum allowed number of steps=    100.
 GradGradGradGradGradGradGradGradGradGradGradGradGradGradGradGradGradGrad

                          Input orientation:                          
 ---------------------------------------------------------------------
 Center     Atomic      Atomic             Coordinates (Angstroms)
 Number     Number       Type             X           Y           Z
 ---------------------------------------------------------------------
      1          6           0        1.037900    2.155400    1.623000
      2          8           0        1.656900    2.075000    2.909400
      3          6           0        1.339300    0.836000    0.929000
      4          8           0        2.735600    0.633300    0.807200
      5          1           0        1.461700    2.981600    1.033600
      6          1           0       -0.049700    2.307500    1.709000
      7          1           0        1.697200    2.965000    3.288200
      8          1           0        0.920800    0.839800   -0.083000
      9          1           0        0.860900    0.017700    1.492300
     10          1           0        3.092700    0.805300    1.695100
 ---------------------------------------------------------------------
                    Distance matrix (angstroms):
                    1          2          3          4          5
     1  C    0.000000
     2  O    1.429843   0.000000
     3  C    1.520952   2.357536   0.000000
     4  O    2.421674   2.767912   1.416184   0.000000
     5  H    1.099821   2.092523   2.151632   2.681155   0.000000
     6  H    1.101546   2.099405   2.168648   3.372549   1.787430
     7  H    1.965457   0.968098   3.197899   3.559559   2.266927
     8  H    2.157534   3.319943   1.095126   2.031895   2.475212
     9  H    2.148993   2.621883   1.102628   2.088738   3.058769
    10  H    2.459710   2.268961   1.913704   0.972353   2.798933
                    6          7          8          9         10
     6  H    0.000000
     7  H    2.444962   0.000000
     8  H    2.511429   4.060081   0.000000
     9  H    2.473729   3.551230   1.777922   0.000000
    10  H    3.483027   3.024846   2.807130   2.375368   0.000000
 Stoichiometry    C2H6O2
 Framework group  C1[X(C2H6O2)]
 Deg. of freedom    24
 Full point group                 C1      NOp   1
 Largest Abelian subgroup         C1      NOp   1
 Largest concise Abelian subgroup C1      NOp   1
                         Standard orientation:                         
 ---------------------------------------------------------------------
 Center     Atomic      Atomic             Coordinates (Angstroms)
 Number     Number       Type             X           Y           Z
 ---------------------------------------------------------------------
      1          6           0        0.684527    0.611474   -0.262380
      2          8           0        1.316614   -0.576038    0.222113
      3          6           0       -0.741473    0.573046    0.265198
      4          8           0       -1.420502   -0.583538   -0.189564
      5          1           0        0.665344    0.626165   -1.361935
      6          1           0        1.203588    1.516259    0.091657
      7          1           0        2.135630   -0.714104   -0.275245
      8          1           0       -1.299628    1.442666   -0.097466
      9          1           0       -0.717100    0.619137    1.366593
     10          1           0       -0.815056   -1.320637   -0.000906
 ---------------------------------------------------------------------
 Rotational constants (GHZ):     15.1386151      5.7121834      4.6692489
 Standard basis: 6-31G(d) (6D, 7F)
 There are    72 symmetry adapted cartesian basis functions of A   symmetry.
 There are    72 symmetry adapted basis functions of A   symmetry.
    72 basis functions,   136 primitive gaussians,    72 cartesian basis functions
    17 alpha electrons       17 beta electrons
       nuclear repulsion energy       133.4367965253 Hartrees.
 NAtoms=   10 NActive=   10 NUniq=   10 SFac= 1.00D+00 NAtFMM=   60 NAOKFM=F Big=F
 Integral buffers will be    131072 words long.
 Raffenetti 1 integral format.
 Two-electron integral symmetry is turned on.
 One-electron integrals computed using PRISM.
 NBasis=    72 RedAO= T EigKep=  5.24D-03  NBF=    72
 NBsUse=    72 1.00D-06 EigRej= -1.00D+00 NBFU=    72
 ExpMin= 1.61D-01 ExpMax= 5.48D+03 ExpMxC= 8.25D+02 IAcc=1 IRadAn=         1 AccDes= 0.00D+00
 Harris functional with IExCor=  205 and IRadAn=       1 diagonalized for initial guess.
 HarFok:  IExCor=  205 AccDes= 0.00D+00 IRadAn=         1 IDoV= 1 UseB2=F ITyADJ=14
 ICtDFT=  3500011 ScaDFX=  1.000000  1.000000  1.000000  1.000000
 FoFCou: FMM=F IPFlag=           0 FMFlag=      100000 FMFlg1=           0
         NFxFlg=           0 DoJE=T BraDBF=F KetDBF=T FulRan=T
         wScrn=  0.000000 ICntrl=     500 IOpCl=  0 I1Cent=   200000004 NGrid=           0
         NMat0=    1 NMatS0=      1 NMatT0=    0 NMatD0=    1 NMtDS0=    0 NMtDT0=    0
 Petite list used in FoFCou.
 Keep R1 ints in memory in canonical form, NReq=4344741.
 Requested convergence on RMS density matrix=1.00D-08 within 128 cycles.
 Requested convergence on MAX density matrix=1.00D-06.
 Requested convergence on             energy=1.00D-06.
 No special actions if energy rises.
 SCF Done:  E(RHF) =  -228.923211536     A.U. after   12 cycles
            NFock= 12  Conv=0.46D-08     -V/T= 2.0027

 **********************************************************************

            Population analysis using the SCF density.

 **********************************************************************

 Orbital symmetries:
       Occupied  (A) (A) (A) (A) (A) (A) (A) (A) (A) (A) (A) (A)
                 (A) (A) (A) (A) (A)
       Virtual   (A) (A) (A) (A) (A) (A) (A) (A) (A) (A) (A) (A)
                 (A) (A) (A) (A) (A) (A) (A) (A) (A) (A) (A) (A)
                 (A) (A) (A) (A) (A) (A) (A) (A) (A) (A) (A) (A)
                 (A) (A) (A) (A) (A) (A) (A) (A) (A) (A) (A) (A)
                 (A) (A) (A) (A) (A) (A) (A)
 The electronic state is 1-A.
 Alpha  occ. eigenvalues --  -20.57653 -20.55137 -11.28480 -11.27402  -1.37406
 Alpha  occ. eigenvalues --   -1.33978  -0.99818  -0.83599  -0.72262  -0.66478
 Alpha  occ. eigenvalues --   -0.64725  -0.59913  -0.56612  -0.53121  -0.49174
 Alpha  occ. eigenvalues --   -0.45787  -0.43310
 Alpha virt. eigenvalues --    0.20862   0.26347   0.27591   0.30838   0.31238
 Alpha virt. eigenvalues --    0.33333   0.38351   0.41243   0.41474   0.75244
 Alpha virt. eigenvalues --    0.79575   0.80197   0.81067   0.90737   0.90865
 Alpha virt. eigenvalues --    1.06260   1.08648   1.10362   1.12468   1.14649
 Alpha virt. eigenvalues --    1.17780   1.19397   1.22176   1.27453   1.28459
 Alpha virt. eigenvalues --    1.32067   1.42327   1.52188   1.55453   1.68171
 Alpha virt. eigenvalues --    1.70244   1.85049   1.88031   1.98028   2.00984
 Alpha virt. eigenvalues --    2.05945   2.16127   2.24667   2.33658   2.39989
 Alpha virt. eigenvalues --    2.45169   2.45816   2.63987   2.67042   2.71970
 Alpha virt. eigenvalues --    2.75572   2.83138   2.87245   3.00732   3.16623
 Alpha virt. eigenvalues --    3.22285   4.11832   4.20631   4.63689   4.84644
          Condensed to atoms (all electrons):
               1          2          3          4          5          6
     1  C    4.869029   0.200712   0.355401  -0.044598   0.389871   0.384360
     2  O    0.200712   8.414735  -0.059712  -0.002071  -0.037063  -0.036432
     3  C    0.355401  -0.059712   4.784325   0.223844  -0.036631  -0.042135
     4  O   -0.044598  -0.002071   0.223844   8.383188   0.000450   0.003141
     5  H    0.389871  -0.037063  -0.036631   0.000450   0.568474  -0.039667
     6  H    0.384360  -0.036432  -0.042135   0.003141  -0.039667   0.582255
     7  H   -0.021764   0.259611   0.005564  -0.000030  -0.005151  -0.001314
     8  H   -0.042418   0.002731   0.400850  -0.035229  -0.002537   0.001313
     9  H   -0.048236  -0.000527   0.391957  -0.038748   0.005221  -0.000979
    10  H   -0.012413   0.016275  -0.032105   0.259932  -0.000096   0.000518
               7          8          9         10
     1  C   -0.021764  -0.042418  -0.048236  -0.012413
     2  O    0.259611   0.002731  -0.000527   0.016275
     3  C    0.005564   0.400850   0.391957  -0.032105
     4  O   -0.000030  -0.035229  -0.038748   0.259932
     5  H   -0.005151  -0.002537   0.005221  -0.000096
     6  H   -0.001314   0.001313  -0.000979   0.000518
     7  H    0.317149  -0.000158  -0.000242  -0.000616
     8  H   -0.000158   0.539732  -0.035329   0.005416
     9  H   -0.000242  -0.035329   0.574270  -0.001688
    10  H   -0.000616   0.005416  -0.001688   0.308285
 Mulliken charges:
               1
     1  C   -0.029943
     2  O   -0.758259
     3  C    0.008641
     4  O   -0.749880
     5  H    0.157129
     6  H    0.148940
     7  H    0.446950
     8  H    0.165629
     9  H    0.154302
    10  H    0.456491
 Sum of Mulliken charges =   0.00000
 Mulliken charges with hydrogens summed into heavy atoms:
               1
     1  C    0.276126
     2  O   -0.311309
     3  C    0.328572
     4  O   -0.293388
 Electronic spatial extent (au):  <R**2>=            296.5565
 Charge=              0.0000 electrons
 Dipole moment (field-independent basis, Debye):
    X=              2.5677    Y=              1.1004    Z=             -0.6368  Tot=              2.8652
 Quadrupole moment (field-independent basis, Debye-Ang):
   XX=            -25.5456   YY=            -22.4757   ZZ=            -25.3164
   XY=             -1.5961   XZ=             -3.4549   YZ=              0.3956
 Traceless Quadrupole moment (field-independent basis, Debye-Ang):
   XX=             -1.0997   YY=              1.9702   ZZ=             -0.8705
   XY=             -1.5961   XZ=             -3.4549   YZ=              0.3956
 Octapole moment (field-independent basis, Debye-Ang**2):
  XXX=             21.4723  YYY=             -7.8155  ZZZ=             -0.3461  XYY=             -0.4619
  XXY=             -0.8652  XXZ=             -3.2884  XZZ=              0.6884  YZZ=             -1.0322
  YYZ=             -0.4902  XYZ=              2.2953
 Hexadecapole moment (field-independent basis, Debye-Ang**3):
 XXXX=           -193.0855 YYYY=            -86.6805 ZZZZ=            -44.6432 XXXY=            -17.4731
 XXXZ=             -8.8578 YYYX=              1.5579 YYYZ=              0.3806 ZZZX=             -0.9375
 ZZZY=              0.1736 XXYY=            -47.0536 XXZZ=            -44.2461 YYZZ=            -23.9211
 XXYZ=              2.1375 YYXZ=             -0.1248 ZZXY=             -0.6063
 N-N= 1.334367965253D+02 E-N=-8.063367343369D+02  KE= 2.283137976040D+02
 Calling FoFJK, ICntrl=      2127 FMM=F ISym2X=0 I1Cent= 0 IOpClX= 0 NMat=1 NMatS=1 NMatT=0.
 ***** Axes restored to original set *****
 -------------------------------------------------------------------
 Center     Atomic                   Forces (Hartrees/Bohr)
 Number     Number              X              Y              Z
 -------------------------------------------------------------------
      1        6           0.002830509    0.000348596    0.003170858
      2        8          -0.007293571    0.025725167   -0.005992499
      3        6           0.001595359   -0.005174046   -0.004598606
      4        8          -0.008692524    0.007764087    0.026658985
      5        1          -0.003023204   -0.006631656    0.006643879
      6        1           0.010336531   -0.001530282    0.000824088
      7        1          -0.000413356   -0.021666876   -0.006958730
      8        1           0.003627222   -0.000141338    0.007966243
      9        1           0.006321943    0.006949057   -0.005185733
     10        1          -0.005288908   -0.005642708   -0.022528484
 -------------------------------------------------------------------
 Cartesian Forces:  Max     0.026658985 RMS     0.010247581

 GradGradGradGradGradGradGradGradGradGradGradGradGradGradGradGradGradGrad
 Berny optimization.
 FormGI is forming the generalized inverse of G from B-inverse, IUseBI=4.
 Internal  Forces:  Max     0.023512296 RMS     0.007272140
 Search for a local minimum.
 Step number   1 out of a maximum of   48
 All quantities printed in internal units (Hartrees-Bohrs-Radians)
 Mixed Optimization -- RFO/linear search
 Second derivative matrix not updated -- first step.
 ITU=  0
     Eigenvalues ---    0.00489   0.01297   0.01478   0.05073   0.05586
     Eigenvalues ---    0.05961   0.06023   0.10836   0.11481   0.13459
     Eigenvalues ---    0.13869   0.16000   0.16000   0.21965   0.22036
     Eigenvalues ---    0.30275   0.33393   0.33512   0.33702   0.34227
     Eigenvalues ---    0.41012   0.43040   0.52899   0.53767
 RFO step:  Lambda=-4.86534388D-03 EMin= 4.88795542D-03
 Linear search not attempted -- first point.
 Iteration  1 RMS(Cart)=  0.02143291 RMS(Int)=  0.00046722
 Iteration  2 RMS(Cart)=  0.00049103 RMS(Int)=  0.00004667
 Iteration  3 RMS(Cart)=  0.00000040 RMS(Int)=  0.00004667
 Variable       Old X    -DE/DX   Delta X   Delta X   Delta X     New X
                                 (Linear)    (Quad)   (Total)
    R1        2.70201  -0.01522   0.00000  -0.03667  -0.03667   2.66534
    R2        2.87418  -0.00480   0.00000  -0.01559  -0.01559   2.85859
    R3        2.07836  -0.00971   0.00000  -0.02839  -0.02839   2.04997
    R4        2.08162  -0.01035   0.00000  -0.03045  -0.03045   2.05117
    R5        1.82944  -0.02266   0.00000  -0.04176  -0.04176   1.78768
    R6        2.67620  -0.01444   0.00000  -0.03318  -0.03318   2.64302
    R7        2.06949  -0.00875   0.00000  -0.02520  -0.02520   2.04429
    R8        2.08366  -0.01055   0.00000  -0.03114  -0.03114   2.05253
    R9        1.83748  -0.02351   0.00000  -0.04404  -0.04404   1.79344
    A1        1.85037   0.00309   0.00000   0.01280   0.01280   1.86318
    A2        1.93646  -0.00189   0.00000  -0.01167  -0.01180   1.92466
    A3        1.94438  -0.00202   0.00000  -0.01761  -0.01764   1.92675
    A4        1.90792   0.00078   0.00000   0.01201   0.01200   1.91992
    A5        1.92950  -0.00035   0.00000   0.00062   0.00065   1.93015
    A6        1.89502   0.00044   0.00000   0.00436   0.00422   1.89924
    A7        1.89479   0.00385   0.00000   0.02332   0.02332   1.91811
    A8        1.93777   0.00003   0.00000  -0.00132  -0.00132   1.93645
    A9        1.92082  -0.00009   0.00000   0.00192   0.00190   1.92272
   A10        1.90150   0.00143   0.00000   0.01030   0.01027   1.91177
   A11        1.87319   0.00002   0.00000  -0.00090  -0.00090   1.87229
   A12        1.94496  -0.00150   0.00000  -0.01472  -0.01470   1.93026
   A13        1.88480   0.00009   0.00000   0.00477   0.00470   1.88950
   A14        1.83200   0.00685   0.00000   0.04156   0.04156   1.87356
    D1        2.87906   0.00072   0.00000   0.02013   0.02011   2.89917
    D2        0.80940  -0.00104   0.00000   0.00442   0.00455   0.81395
    D3       -1.30413   0.00109   0.00000   0.01894   0.01882  -1.28531
    D4       -1.03696   0.00001   0.00000  -0.00664  -0.00667  -1.04363
    D5       -3.10837   0.00002   0.00000  -0.00593  -0.00594  -3.11431
    D6        1.11137  -0.00089   0.00000  -0.01901  -0.01906   1.09231
    D7        1.05147  -0.00006   0.00000  -0.00685  -0.00682   1.04465
    D8       -1.01993  -0.00005   0.00000  -0.00613  -0.00610  -1.02603
    D9       -3.08338  -0.00096   0.00000  -0.01921  -0.01921  -3.10260
   D10        3.13657   0.00075   0.00000   0.00645   0.00646  -3.14015
   D11        1.06517   0.00077   0.00000   0.00717   0.00719   1.07236
   D12       -0.99828  -0.00014   0.00000  -0.00592  -0.00593  -1.00421
   D13        0.85758   0.00076   0.00000   0.02392   0.02393   0.88151
   D14        2.95747   0.00067   0.00000   0.02493   0.02492   2.98239
   D15       -1.26553  -0.00004   0.00000   0.02188   0.02187  -1.24365
         Item               Value     Threshold  Converged?
 Maximum Force            0.023512     0.000450     NO 
 RMS     Force            0.007272     0.000300     NO 
 Maximum Displacement     0.048315     0.001800     NO 
 RMS     Displacement     0.021422     0.001200     NO 
 Predicted change in Energy=-2.472908D-03
 GradGradGradGradGradGradGradGradGradGradGradGradGradGradGradGradGradGrad

                          Input orientation:                          
 ---------------------------------------------------------------------
 Center     Atomic      Atomic             Coordinates (Angstroms)
 Number     Number       Type             X           Y           Z
 ---------------------------------------------------------------------
      1          6           0        1.043061    2.156170    1.620630
      2          8           0        1.642037    2.092870    2.895996
      3          6           0        1.338307    0.840756    0.934492
      4          8           0        2.716884    0.638221    0.813440
      5          1           0        1.463645    2.975965    1.048070
      6          1           0       -0.027929    2.306680    1.712780
      7          1           0        1.672275    2.956556    3.280759
      8          1           0        0.924591    0.840452   -0.065063
      9          1           0        0.880448    0.029196    1.492576
     10          1           0        3.099980    0.779733    1.670121
 ---------------------------------------------------------------------
                    Distance matrix (angstroms):
                    1          2          3          4          5
     1  C    0.000000
     2  O    1.410439   0.000000
     3  C    1.512702   2.346815   0.000000
     4  O    2.399460   2.758322   1.398623   0.000000
     5  H    1.084795   2.055848   2.141898   2.662838   0.000000
     6  H    1.085433   2.057791   2.149713   3.335651   1.764815
     7  H    1.947449   0.945997   3.176966   3.543099   2.242500
     8  H    2.141660   3.294108   1.081790   2.006234   2.467805
     9  H    2.137021   2.609283   1.086151   2.050520   3.036635
    10  H    2.475469   2.313590   1.910069   0.949047   2.808555
                    6          7          8          9         10
     6  H    0.000000
     7  H    2.402414   0.000000
     8  H    2.493561   4.028828   0.000000
     9  H    2.461823   3.520515   1.756793   0.000000
    10  H    3.480977   3.061219   2.783319   2.349713   0.000000
 Stoichiometry    C2H6O2
 Framework group  C1[X(C2H6O2)]
 Deg. of freedom    24
 Full point group                 C1      NOp   1
 Largest Abelian subgroup         C1      NOp   1
 Largest concise Abelian subgroup C1      NOp   1
                         Standard orientation:                         
 ---------------------------------------------------------------------
 Center     Atomic      Atomic             Coordinates (Angstroms)
 Number     Number       Type             X           Y           Z
 ---------------------------------------------------------------------
      1          6           0        0.680083    0.599491   -0.260731
      2          8           0        1.315867   -0.565222    0.217349
      3          6           0       -0.738882    0.567698    0.262525
      4          8           0       -1.412530   -0.572285   -0.187791
      5          1           0        0.675497    0.606943   -1.345491
      6          1           0        1.197715    1.485426    0.093304
      7          1           0        2.127631   -0.703202   -0.248389
      8          1           0       -1.287972    1.427983   -0.096194
      9          1           0       -0.726498    0.600312    1.348116
     10          1           0       -0.860268   -1.320544    0.001429
 ---------------------------------------------------------------------
 Rotational constants (GHZ):     15.6172590      5.7555510      4.7275547
 Standard basis: 6-31G(d) (6D, 7F)
 There are    72 symmetry adapted cartesian basis functions of A   symmetry.
 There are    72 symmetry adapted basis functions of A   symmetry.
    72 basis functions,   136 primitive gaussians,    72 cartesian basis functions
    17 alpha electrons       17 beta electrons
       nuclear repulsion energy       134.7653244852 Hartrees.
 NAtoms=   10 NActive=   10 NUniq=   10 SFac= 1.00D+00 NAtFMM=   60 NAOKFM=F Big=F
 Integral buffers will be    131072 words long.
 Raffenetti 1 integral format.
 Two-electron integral symmetry is turned on.
 One-electron integrals computed using PRISM.
 NBasis=    72 RedAO= T EigKep=  4.99D-03  NBF=    72
 NBsUse=    72 1.00D-06 EigRej= -1.00D+00 NBFU=    72
 Initial guess from the checkpoint file:  "1-2-ethanediol-opt.chk"
 B after Tr=     0.000000    0.000000   -0.000000
         Rot=    1.000000    0.000389    0.000561    0.000533 Ang=   0.10 deg.
 ExpMin= 1.61D-01 ExpMax= 5.48D+03 ExpMxC= 8.25D+02 IAcc=1 IRadAn=         1 AccDes= 0.00D+00
 Harris functional with IExCor=  205 and IRadAn=       1 diagonalized for initial guess.
 HarFok:  IExCor=  205 AccDes= 0.00D+00 IRadAn=         1 IDoV= 1 UseB2=F ITyADJ=14
 ICtDFT=  3500011 ScaDFX=  1.000000  1.000000  1.000000  1.000000
 FoFCou: FMM=F IPFlag=           0 FMFlag=      100000 FMFlg1=           0
         NFxFlg=           0 DoJE=T BraDBF=F KetDBF=T FulRan=T
         wScrn=  0.000000 ICntrl=     500 IOpCl=  0 I1Cent=   200000004 NGrid=           0
         NMat0=    1 NMatS0=      1 NMatT0=    0 NMatD0=    1 NMtDS0=    0 NMtDT0=    0
 Petite list used in FoFCou.
 Keep R1 ints in memory in canonical form, NReq=4344811.
 Requested convergence on RMS density matrix=1.00D-08 within 128 cycles.
 Requested convergence on MAX density matrix=1.00D-06.
 Requested convergence on             energy=1.00D-06.
 No special actions if energy rises.
 SCF Done:  E(RHF) =  -228.925615775     A.U. after   10 cycles
            NFock= 10  Conv=0.89D-08     -V/T= 2.0015
 Calling FoFJK, ICntrl=      2127 FMM=F ISym2X=0 I1Cent= 0 IOpClX= 0 NMat=1 NMatS=1 NMatT=0.
 ***** Axes restored to original set *****
 -------------------------------------------------------------------
 Center     Atomic                   Forces (Hartrees/Bohr)
 Number     Number              X              Y              Z
 -------------------------------------------------------------------
      1        6           0.000189237   -0.000078126    0.003803120
      2        8           0.000305958   -0.000268226   -0.001222396
      3        6           0.003136590   -0.000148274   -0.000265158
      4        8          -0.000489717    0.000849763   -0.000248876
      5        1           0.000192163    0.000134721   -0.001722318
      6        1          -0.001631013    0.000234283   -0.001064700
      7        1          -0.000087738    0.000104658    0.000715526
      8        1          -0.000466927   -0.000002128   -0.000589958
      9        1          -0.001347670   -0.000115903    0.000781895
     10        1           0.000199117   -0.000710768   -0.000187135
 -------------------------------------------------------------------
 Cartesian Forces:  Max     0.003803120 RMS     0.001127054

 GradGradGradGradGradGradGradGradGradGradGradGradGradGradGradGradGradGrad
 Berny optimization.
 Using GEDIIS/GDIIS optimizer.
 FormGI is forming the generalized inverse of G from B-inverse, IUseBI=4.
 Internal  Forces:  Max     0.001551408 RMS     0.000668113
 Search for a local minimum.
 Step number   2 out of a maximum of   48
 All quantities printed in internal units (Hartrees-Bohrs-Radians)
 Mixed Optimization -- En-DIIS/RFO-DIIS
 Update second derivatives using D2CorX and points    1    2
 DE= -2.40D-03 DEPred=-2.47D-03 R= 9.72D-01
 TightC=F SS=  1.41D+00  RLast= 1.29D-01 DXNew= 5.0454D-01 3.8634D-01
 Trust test= 9.72D-01 RLast= 1.29D-01 DXMaxT set to 3.86D-01
 ITU=  1  0
 Use linear search instead of GDIIS.
     Eigenvalues ---    0.00489   0.01294   0.01467   0.05093   0.05531
     Eigenvalues ---    0.05911   0.05997   0.11121   0.11576   0.13529
     Eigenvalues ---    0.13909   0.15686   0.16015   0.21941   0.22122
     Eigenvalues ---    0.30343   0.33424   0.33626   0.34076   0.35381
     Eigenvalues ---    0.40739   0.42864   0.52513   0.53948
 RFO step:  Lambda=-1.40882532D-04 EMin= 4.89010783D-03
 Quartic linear search produced a step of -0.02839.
 Iteration  1 RMS(Cart)=  0.01048309 RMS(Int)=  0.00011281
 Iteration  2 RMS(Cart)=  0.00009746 RMS(Int)=  0.00002152
 Iteration  3 RMS(Cart)=  0.00000001 RMS(Int)=  0.00002152
 Variable       Old X    -DE/DX   Delta X   Delta X   Delta X     New X
                                 (Linear)    (Quad)   (Total)
    R1        2.66534  -0.00036   0.00104  -0.00294  -0.00190   2.66345
    R2        2.85859   0.00054   0.00044   0.00085   0.00129   2.85988
    R3        2.04997   0.00109   0.00081   0.00150   0.00231   2.05227
    R4        2.05117   0.00155   0.00086   0.00275   0.00362   2.05479
    R5        1.78768   0.00038   0.00119  -0.00167  -0.00048   1.78719
    R6        2.64302  -0.00027   0.00094  -0.00249  -0.00155   2.64146
    R7        2.04429   0.00072   0.00072   0.00061   0.00133   2.04561
    R8        2.05253   0.00106   0.00088   0.00129   0.00217   2.05470
    R9        1.79344  -0.00019   0.00125  -0.00285  -0.00160   1.79184
    A1        1.86318  -0.00041  -0.00036   0.00018  -0.00017   1.86301
    A2        1.92466   0.00091   0.00033   0.00721   0.00754   1.93220
    A3        1.92675   0.00089   0.00050   0.00941   0.00991   1.93665
    A4        1.91992  -0.00102  -0.00034  -0.00977  -0.01013   1.90979
    A5        1.93015  -0.00041  -0.00002  -0.00426  -0.00431   1.92584
    A6        1.89924   0.00004  -0.00012  -0.00272  -0.00293   1.89631
    A7        1.91811   0.00090  -0.00066   0.00685   0.00619   1.92431
    A8        1.93645   0.00121   0.00004   0.00635   0.00639   1.94284
    A9        1.92272  -0.00046  -0.00005  -0.00465  -0.00472   1.91801
   A10        1.91177  -0.00107  -0.00029  -0.00565  -0.00597   1.90580
   A11        1.87229  -0.00038   0.00003  -0.00161  -0.00157   1.87071
   A12        1.93026   0.00050   0.00042   0.00756   0.00798   1.93824
   A13        1.88950   0.00020  -0.00013  -0.00213  -0.00229   1.88721
   A14        1.87356   0.00070  -0.00118   0.00672   0.00554   1.87910
    D1        2.89917  -0.00004  -0.00057   0.01373   0.01315   2.91232
    D2        0.81395   0.00093  -0.00013   0.02136   0.02126   0.83521
    D3       -1.28531  -0.00028  -0.00053   0.01401   0.01346  -1.27185
    D4       -1.04363  -0.00014   0.00019  -0.00461  -0.00442  -1.04806
    D5       -3.11431  -0.00013   0.00017  -0.00364  -0.00346  -3.11777
    D6        1.09231   0.00056   0.00054   0.00528   0.00581   1.09812
    D7        1.04465   0.00014   0.00019  -0.00126  -0.00108   1.04357
    D8       -1.02603   0.00014   0.00017  -0.00028  -0.00011  -1.02614
    D9       -3.10260   0.00084   0.00055   0.00864   0.00915  -3.09344
   D10       -3.14015  -0.00073  -0.00018  -0.01369  -0.01385   3.12919
   D11        1.07236  -0.00073  -0.00020  -0.01271  -0.01288   1.05948
   D12       -1.00421  -0.00003   0.00017  -0.00379  -0.00362  -1.00782
   D13        0.88151   0.00032  -0.00068   0.02720   0.02654   0.90805
   D14        2.98239   0.00023  -0.00071   0.02423   0.02353   3.00592
   D15       -1.24365   0.00051  -0.00062   0.02488   0.02423  -1.21942
         Item               Value     Threshold  Converged?
 Maximum Force            0.001551     0.000450     NO 
 RMS     Force            0.000668     0.000300     NO 
 Maximum Displacement     0.038212     0.001800     NO 
 RMS     Displacement     0.010510     0.001200     NO 
 Predicted change in Energy=-7.181364D-05
 GradGradGradGradGradGradGradGradGradGradGradGradGradGradGradGradGradGrad

                          Input orientation:                          
 ---------------------------------------------------------------------
 Center     Atomic      Atomic             Coordinates (Angstroms)
 Number     Number       Type             X           Y           Z
 ---------------------------------------------------------------------
      1          6           0        1.042734    2.158645    1.623587
      2          8           0        1.642688    2.098355    2.897530
      3          6           0        1.342620    0.843324    0.937779
      4          8           0        2.719465    0.640977    0.806611
      5          1           0        1.461034    2.973661    1.040315
      6          1           0       -0.031468    2.305642    1.706063
      7          1           0        1.662121    2.958006    3.291291
      8          1           0        0.922996    0.844120   -0.060071
      9          1           0        0.880608    0.034359    1.498442
     10          1           0        3.110502    0.759512    1.662253
 ---------------------------------------------------------------------
                    Distance matrix (angstroms):
                    1          2          3          4          5
     1  C    0.000000
     2  O    1.409436   0.000000
     3  C    1.513384   2.346437   0.000000
     4  O    2.404619   2.766829   1.397802   0.000000
     5  H    1.086017   2.061166   2.136088   2.660767   0.000000
     6  H    1.087346   2.065275   2.148663   3.338826   1.765512
     7  H    1.950347   0.945741   3.180091   3.558122   2.259995
     8  H    2.139396   3.292182   1.082492   2.004920   2.456680
     9  H    2.134136   2.607353   1.087301   2.056213   3.030886
    10  H    2.496944   2.339420   1.912405   0.948200   2.830195
                    6          7          8          9         10
     6  H    0.000000
     7  H    2.409724   0.000000
     8  H    2.483199   4.030688   0.000000
     9  H    2.456362   3.517496   1.756835   0.000000
    10  H    3.502058   3.095956   2.785451   2.350554   0.000000
 Stoichiometry    C2H6O2
 Framework group  C1[X(C2H6O2)]
 Deg. of freedom    24
 Full point group                 C1      NOp   1
 Largest Abelian subgroup         C1      NOp   1
 Largest concise Abelian subgroup C1      NOp   1
                         Standard orientation:                         
 ---------------------------------------------------------------------
 Center     Atomic      Atomic             Coordinates (Angstroms)
 Number     Number       Type             X           Y           Z
 ---------------------------------------------------------------------
      1          6           0        0.683614    0.597742   -0.259832
      2          8           0        1.318357   -0.568252    0.213528
      3          6           0       -0.735652    0.564978    0.264515
      4          8           0       -1.418998   -0.566831   -0.189245
      5          1           0        0.667229    0.612201   -1.345629
      6          1           0        1.196106    1.489824    0.092112
      7          1           0        2.136101   -0.703724   -0.241849
      8          1           0       -1.279650    1.430812   -0.090713
      9          1           0       -0.716207    0.600003    1.351078
     10          1           0       -0.886228   -1.324778    0.012639
 ---------------------------------------------------------------------
 Rotational constants (GHZ):     15.6520708      5.7279767      4.7116802
 Standard basis: 6-31G(d) (6D, 7F)
 There are    72 symmetry adapted cartesian basis functions of A   symmetry.
 There are    72 symmetry adapted basis functions of A   symmetry.
    72 basis functions,   136 primitive gaussians,    72 cartesian basis functions
    17 alpha electrons       17 beta electrons
       nuclear repulsion energy       134.6632723097 Hartrees.
 NAtoms=   10 NActive=   10 NUniq=   10 SFac= 1.00D+00 NAtFMM=   60 NAOKFM=F Big=F
 Integral buffers will be    131072 words long.
 Raffenetti 1 integral format.
 Two-electron integral symmetry is turned on.
 One-electron integrals computed using PRISM.
 NBasis=    72 RedAO= T EigKep=  5.00D-03  NBF=    72
 NBsUse=    72 1.00D-06 EigRej= -1.00D+00 NBFU=    72
 Initial guess from the checkpoint file:  "1-2-ethanediol-opt.chk"
 B after Tr=    -0.000000    0.000000   -0.000000
         Rot=    0.999998   -0.001028   -0.000702    0.001308 Ang=  -0.21 deg.
 ExpMin= 1.61D-01 ExpMax= 5.48D+03 ExpMxC= 8.25D+02 IAcc=1 IRadAn=         1 AccDes= 0.00D+00
 Harris functional with IExCor=  205 and IRadAn=       1 diagonalized for initial guess.
 HarFok:  IExCor=  205 AccDes= 0.00D+00 IRadAn=         1 IDoV= 1 UseB2=F ITyADJ=14
 ICtDFT=  3500011 ScaDFX=  1.000000  1.000000  1.000000  1.000000
 FoFCou: FMM=F IPFlag=           0 FMFlag=      100000 FMFlg1=           0
         NFxFlg=           0 DoJE=T BraDBF=F KetDBF=T FulRan=T
         wScrn=  0.000000 ICntrl=     500 IOpCl=  0 I1Cent=   200000004 NGrid=           0
         NMat0=    1 NMatS0=      1 NMatT0=    0 NMatD0=    1 NMtDS0=    0 NMtDT0=    0
 Petite list used in FoFCou.
 Keep R1 ints in memory in canonical form, NReq=4344826.
 Requested convergence on RMS density matrix=1.00D-08 within 128 cycles.
 Requested convergence on MAX density matrix=1.00D-06.
 Requested convergence on             energy=1.00D-06.
 No special actions if energy rises.
 SCF Done:  E(RHF) =  -228.925695814     A.U. after   10 cycles
            NFock= 10  Conv=0.27D-08     -V/T= 2.0015
 Calling FoFJK, ICntrl=      2127 FMM=F ISym2X=0 I1Cent= 0 IOpClX= 0 NMat=1 NMatS=1 NMatT=0.
 ***** Axes restored to original set *****
 -------------------------------------------------------------------
 Center     Atomic                   Forces (Hartrees/Bohr)
 Number     Number              X              Y              Z
 -------------------------------------------------------------------
      1        6           0.000861119   -0.000028901    0.001085642
      2        8          -0.000240482   -0.000527813   -0.001315656
      3        6           0.000615560   -0.000223789   -0.000180045
      4        8          -0.000891574    0.000431205   -0.000629239
      5        1           0.000174147    0.000411665   -0.000050517
      6        1          -0.000223147    0.000074743    0.000017953
      7        1          -0.000299970    0.000609818    0.000328887
      8        1          -0.000170893   -0.000169258   -0.000230466
      9        1           0.000025659   -0.000337906    0.000284952
     10        1           0.000149582   -0.000239763    0.000688488
 -------------------------------------------------------------------
 Cartesian Forces:  Max     0.001315656 RMS     0.000500516

 GradGradGradGradGradGradGradGradGradGradGradGradGradGradGradGradGradGrad
 Berny optimization.
 Using GEDIIS/GDIIS optimizer.
 FormGI is forming the generalized inverse of G from B-inverse, IUseBI=4.
 Internal  Forces:  Max     0.001125470 RMS     0.000323356
 Search for a local minimum.
 Step number   3 out of a maximum of   48
 All quantities printed in internal units (Hartrees-Bohrs-Radians)
 Mixed Optimization -- En-DIIS/RFO-DIIS
 Swapping is turned off.
 Update second derivatives using D2CorX and points    1    2    3
 DE= -8.00D-05 DEPred=-7.18D-05 R= 1.11D+00
 TightC=F SS=  1.41D+00  RLast= 6.11D-02 DXNew= 6.4974D-01 1.8326D-01
 Trust test= 1.11D+00 RLast= 6.11D-02 DXMaxT set to 3.86D-01
 ITU=  1  1  0
     Eigenvalues ---    0.00477   0.00981   0.01378   0.05095   0.05588
     Eigenvalues ---    0.05961   0.06284   0.11299   0.12084   0.13649
     Eigenvalues ---    0.14360   0.15993   0.16365   0.21896   0.22942
     Eigenvalues ---    0.30274   0.33420   0.33527   0.33694   0.34293
     Eigenvalues ---    0.41348   0.42969   0.53309   0.55056
 En-DIIS/RFO-DIIS IScMMF=        0 using points:     3    2
 RFO step:  Lambda=-8.37530978D-06.
 DidBck=F Rises=F RFO-DIIS coefs:    1.12572   -0.12572
 Iteration  1 RMS(Cart)=  0.00893928 RMS(Int)=  0.00006781
 Iteration  2 RMS(Cart)=  0.00005983 RMS(Int)=  0.00000305
 Iteration  3 RMS(Cart)=  0.00000000 RMS(Int)=  0.00000305
 Variable       Old X    -DE/DX   Delta X   Delta X   Delta X     New X
                                 (Linear)    (Quad)   (Total)
    R1        2.66345  -0.00113  -0.00024  -0.00361  -0.00385   2.65960
    R2        2.85988   0.00045   0.00016   0.00169   0.00185   2.86174
    R3        2.05227   0.00040   0.00029   0.00141   0.00170   2.05397
    R4        2.05479   0.00023   0.00045   0.00098   0.00143   2.05622
    R5        1.78719   0.00069  -0.00006   0.00106   0.00099   1.78818
    R6        2.64146  -0.00076  -0.00020  -0.00245  -0.00264   2.63882
    R7        2.04561   0.00028   0.00017   0.00088   0.00105   2.04666
    R8        2.05470   0.00039   0.00027   0.00133   0.00160   2.05630
    R9        1.79184   0.00065  -0.00020   0.00086   0.00066   1.79250
    A1        1.86301   0.00018  -0.00002   0.00106   0.00104   1.86405
    A2        1.93220  -0.00016   0.00095   0.00036   0.00130   1.93351
    A3        1.93665  -0.00009   0.00125  -0.00057   0.00068   1.93733
    A4        1.90979   0.00026  -0.00127   0.00198   0.00070   1.91050
    A5        1.92584  -0.00016  -0.00054  -0.00204  -0.00259   1.92325
    A6        1.89631  -0.00003  -0.00037  -0.00074  -0.00112   1.89519
    A7        1.92431  -0.00018   0.00078  -0.00032   0.00045   1.92476
    A8        1.94284  -0.00015   0.00080  -0.00012   0.00068   1.94352
    A9        1.91801   0.00007  -0.00059   0.00028  -0.00032   1.91769
   A10        1.90580   0.00016  -0.00075   0.00047  -0.00029   1.90551
   A11        1.87071   0.00005  -0.00020   0.00018  -0.00002   1.87069
   A12        1.93824  -0.00009   0.00100  -0.00064   0.00037   1.93861
   A13        1.88721  -0.00005  -0.00029  -0.00017  -0.00046   1.88675
   A14        1.87910  -0.00015   0.00070  -0.00007   0.00063   1.87973
    D1        2.91232   0.00032   0.00165   0.01852   0.02018   2.93250
    D2        0.83521  -0.00001   0.00267   0.01530   0.01798   0.85319
    D3       -1.27185   0.00019   0.00169   0.01638   0.01807  -1.25378
    D4       -1.04806  -0.00005  -0.00056  -0.00987  -0.01043  -1.05848
    D5       -3.11777  -0.00007  -0.00043  -0.01019  -0.01062  -3.12839
    D6        1.09812  -0.00015   0.00073  -0.01043  -0.00970   1.08842
    D7        1.04357   0.00001  -0.00014  -0.00774  -0.00788   1.03569
    D8       -1.02614  -0.00000  -0.00001  -0.00806  -0.00807  -1.03421
    D9       -3.09344  -0.00009   0.00115  -0.00830  -0.00715  -3.10059
   D10        3.12919   0.00004  -0.00174  -0.00867  -0.01041   3.11878
   D11        1.05948   0.00002  -0.00162  -0.00899  -0.01061   1.04887
   D12       -1.00782  -0.00006  -0.00045  -0.00923  -0.00969  -1.01751
   D13        0.90805   0.00020   0.00334   0.01822   0.02155   0.92960
   D14        3.00592   0.00023   0.00296   0.01859   0.02155   3.02747
   D15       -1.21942   0.00016   0.00305   0.01815   0.02119  -1.19823
         Item               Value     Threshold  Converged?
 Maximum Force            0.001125     0.000450     NO 
 RMS     Force            0.000323     0.000300     NO 
 Maximum Displacement     0.030033     0.001800     NO 
 RMS     Displacement     0.008954     0.001200     NO 
 Predicted change in Energy=-1.801632D-05
 GradGradGradGradGradGradGradGradGradGradGradGradGradGradGradGradGradGrad

                          Input orientation:                          
 ---------------------------------------------------------------------
 Center     Atomic      Atomic             Coordinates (Angstroms)
 Number     Number       Type             X           Y           Z
 ---------------------------------------------------------------------
      1          6           0        1.046132    2.161221    1.623924
      2          8           0        1.641826    2.101609    2.897645
      3          6           0        1.344422    0.843915    0.939066
      4          8           0        2.719237    0.643655    0.798642
      5          1           0        1.465567    2.976230    1.039785
      6          1           0       -0.029063    2.308563    1.702784
      7          1           0        1.646228    2.958940    3.298127
      8          1           0        0.917412    0.841390   -0.056246
      9          1           0        0.887019    0.035050    1.505268
     10          1           0        3.114522    0.746028    1.654803
 ---------------------------------------------------------------------
                    Distance matrix (angstroms):
                    1          2          3          4          5
     1  C    0.000000
     2  O    1.407398   0.000000
     3  C    1.514366   2.346545   0.000000
     4  O    2.404866   2.773493   1.396403   0.000000
     5  H    1.086914   2.060988   2.138127   2.659087   0.000000
     6  H    1.088105   2.064556   2.148236   3.338045   1.766144
     7  H    1.949211   0.946267   3.182700   3.572019   2.265622
     8  H    2.140443   3.292173   1.083047   2.004122   2.461564
     9  H    2.135416   2.603673   1.088148   2.055905   3.033468
    10  H    2.506384   2.356075   1.911835   0.948548   2.840968
                    6          7          8          9         10
     6  H    0.000000
     7  H    2.403062   0.000000
     8  H    2.478427   4.033238   0.000000
     9  H    2.459081   3.512816   1.757679   0.000000
    10  H    3.510832   3.123039   2.786409   2.342994   0.000000
 Stoichiometry    C2H6O2
 Framework group  C1[X(C2H6O2)]
 Deg. of freedom    24
 Full point group                 C1      NOp   1
 Largest Abelian subgroup         C1      NOp   1
 Largest concise Abelian subgroup C1      NOp   1
                         Standard orientation:                         
 ---------------------------------------------------------------------
 Center     Atomic      Atomic             Coordinates (Angstroms)
 Number     Number       Type             X           Y           Z
 ---------------------------------------------------------------------
      1          6           0        0.684257    0.594414   -0.261337
      2          8           0        1.320965   -0.568053    0.211996
      3          6           0       -0.734508    0.562547    0.267240
      4          8           0       -1.422989   -0.562323   -0.191672
      5          1           0        0.665657    0.608663   -1.347999
      6          1           0        1.195441    1.488982    0.088536
      7          1           0        2.146347   -0.694356   -0.233215
      8          1           0       -1.276596    1.433345   -0.080383
      9          1           0       -0.711498    0.590498    1.354785
     10          1           0       -0.901651   -1.325887    0.020270
 ---------------------------------------------------------------------
 Rotational constants (GHZ):     15.7224283      5.7036177      4.7051559
 Standard basis: 6-31G(d) (6D, 7F)
 There are    72 symmetry adapted cartesian basis functions of A   symmetry.
 There are    72 symmetry adapted basis functions of A   symmetry.
    72 basis functions,   136 primitive gaussians,    72 cartesian basis functions
    17 alpha electrons       17 beta electrons
       nuclear repulsion energy       134.6349636037 Hartrees.
 NAtoms=   10 NActive=   10 NUniq=   10 SFac= 1.00D+00 NAtFMM=   60 NAOKFM=F Big=F
 Integral buffers will be    131072 words long.
 Raffenetti 1 integral format.
 Two-electron integral symmetry is turned on.
 One-electron integrals computed using PRISM.
 NBasis=    72 RedAO= T EigKep=  5.01D-03  NBF=    72
 NBsUse=    72 1.00D-06 EigRej= -1.00D+00 NBFU=    72
 Initial guess from the checkpoint file:  "1-2-ethanediol-opt.chk"
 B after Tr=     0.000000   -0.000000   -0.000000
         Rot=    1.000000   -0.000733   -0.000331    0.000498 Ang=  -0.11 deg.
 ExpMin= 1.61D-01 ExpMax= 5.48D+03 ExpMxC= 8.25D+02 IAcc=1 IRadAn=         1 AccDes= 0.00D+00
 Harris functional with IExCor=  205 and IRadAn=       1 diagonalized for initial guess.
 HarFok:  IExCor=  205 AccDes= 0.00D+00 IRadAn=         1 IDoV= 1 UseB2=F ITyADJ=14
 ICtDFT=  3500011 ScaDFX=  1.000000  1.000000  1.000000  1.000000
 FoFCou: FMM=F IPFlag=           0 FMFlag=      100000 FMFlg1=           0
         NFxFlg=           0 DoJE=T BraDBF=F KetDBF=T FulRan=T
         wScrn=  0.000000 ICntrl=     500 IOpCl=  0 I1Cent=   200000004 NGrid=           0
         NMat0=    1 NMatS0=      1 NMatT0=    0 NMatD0=    1 NMtDS0=    0 NMtDT0=    0
 Petite list used in FoFCou.
 Keep R1 ints in memory in canonical form, NReq=4344826.
 Requested convergence on RMS density matrix=1.00D-08 within 128 cycles.
 Requested convergence on MAX density matrix=1.00D-06.
 Requested convergence on             energy=1.00D-06.
 No special actions if energy rises.
 SCF Done:  E(RHF) =  -228.925717700     A.U. after    9 cycles
            NFock=  9  Conv=0.97D-08     -V/T= 2.0015
 Calling FoFJK, ICntrl=      2127 FMM=F ISym2X=0 I1Cent= 0 IOpClX= 0 NMat=1 NMatS=1 NMatT=0.
 ***** Axes restored to original set *****
 -------------------------------------------------------------------
 Center     Atomic                   Forces (Hartrees/Bohr)
 Number     Number              X              Y              Z
 -------------------------------------------------------------------
      1        6          -0.000229151   -0.000137874   -0.000397894
      2        8           0.000353969   -0.000104905   -0.000014444
      3        6          -0.000654785    0.000189316   -0.000087365
      4        8           0.000320015    0.000092508   -0.000132655
      5        1           0.000039393   -0.000127322    0.000182744
      6        1           0.000147802    0.000090957    0.000060446
      7        1          -0.000217146    0.000073423    0.000042371
      8        1           0.000015564   -0.000105715    0.000116203
      9        1           0.000154255    0.000147124    0.000010989
     10        1           0.000070083   -0.000117512    0.000219605
 -------------------------------------------------------------------
 Cartesian Forces:  Max     0.000654785 RMS     0.000203619

 GradGradGradGradGradGradGradGradGradGradGradGradGradGradGradGradGradGrad
 Berny optimization.
 Using GEDIIS/GDIIS optimizer.
 FormGI is forming the generalized inverse of G from B-inverse, IUseBI=4.
 Internal  Forces:  Max     0.000378910 RMS     0.000120307
 Search for a local minimum.
 Step number   4 out of a maximum of   48
 All quantities printed in internal units (Hartrees-Bohrs-Radians)
 Mixed Optimization -- En-DIIS/RFO-DIIS
 Swapping is turned off.
 Update second derivatives using D2CorX and points    1    2    3    4
 DE= -2.19D-05 DEPred=-1.80D-05 R= 1.21D+00
 TightC=F SS=  1.41D+00  RLast= 5.74D-02 DXNew= 6.4974D-01 1.7213D-01
 Trust test= 1.21D+00 RLast= 5.74D-02 DXMaxT set to 3.86D-01
 ITU=  1  1  1  0
     Eigenvalues ---    0.00442   0.00636   0.01398   0.05161   0.05692
     Eigenvalues ---    0.05995   0.06440   0.11364   0.12284   0.13637
     Eigenvalues ---    0.14360   0.15989   0.16643   0.22106   0.23145
     Eigenvalues ---    0.30795   0.33467   0.33671   0.34115   0.36936
     Eigenvalues ---    0.41363   0.46558   0.53275   0.55039
 En-DIIS/RFO-DIIS IScMMF=        0 using points:     4    3    2
 RFO step:  Lambda=-1.54453757D-06.
 DidBck=F Rises=F RFO-DIIS coefs:    1.25703   -0.22464   -0.03239
 Iteration  1 RMS(Cart)=  0.00477736 RMS(Int)=  0.00003693
 Iteration  2 RMS(Cart)=  0.00003269 RMS(Int)=  0.00000096
 Iteration  3 RMS(Cart)=  0.00000000 RMS(Int)=  0.00000096
 Variable       Old X    -DE/DX   Delta X   Delta X   Delta X     New X
                                 (Linear)    (Quad)   (Total)
    R1        2.65960   0.00008  -0.00105   0.00020  -0.00086   2.65874
    R2        2.86174  -0.00025   0.00052  -0.00104  -0.00053   2.86121
    R3        2.05397  -0.00018   0.00051  -0.00061  -0.00010   2.05387
    R4        2.05622  -0.00013   0.00049  -0.00034   0.00015   2.05637
    R5        1.78818   0.00008   0.00024   0.00002   0.00026   1.78845
    R6        2.63882   0.00038  -0.00073   0.00100   0.00027   2.63909
    R7        2.04666  -0.00011   0.00031  -0.00040  -0.00009   2.04657
    R8        2.05630  -0.00017   0.00048  -0.00059  -0.00011   2.05619
    R9        1.79250   0.00021   0.00012   0.00025   0.00037   1.79287
    A1        1.86405  -0.00007   0.00026  -0.00058  -0.00032   1.86373
    A2        1.93351  -0.00008   0.00058  -0.00102  -0.00044   1.93307
    A3        1.93733  -0.00002   0.00050   0.00038   0.00088   1.93821
    A4        1.91050   0.00008  -0.00015  -0.00005  -0.00020   1.91030
    A5        1.92325   0.00010  -0.00080   0.00105   0.00025   1.92350
    A6        1.89519  -0.00002  -0.00038   0.00022  -0.00017   1.89501
    A7        1.92476  -0.00016   0.00032  -0.00076  -0.00045   1.92431
    A8        1.94352  -0.00013   0.00038  -0.00040  -0.00002   1.94351
    A9        1.91769   0.00011  -0.00023   0.00116   0.00092   1.91861
   A10        1.90551  -0.00001  -0.00027  -0.00111  -0.00138   1.90413
   A11        1.87069   0.00006  -0.00006   0.00104   0.00098   1.87168
   A12        1.93861  -0.00002   0.00035  -0.00079  -0.00044   1.93817
   A13        1.88675  -0.00001  -0.00019   0.00018  -0.00001   1.88674
   A14        1.87973  -0.00000   0.00034   0.00044   0.00078   1.88051
    D1        2.93250   0.00009   0.00561   0.01005   0.01566   2.94816
    D2        0.85319   0.00008   0.00531   0.01103   0.01634   0.86953
    D3       -1.25378   0.00016   0.00508   0.01119   0.01627  -1.23751
    D4       -1.05848   0.00009  -0.00282   0.00244  -0.00038  -1.05886
    D5       -3.12839   0.00002  -0.00284   0.00066  -0.00219  -3.13057
    D6        1.08842  -0.00003  -0.00231   0.00041  -0.00190   1.08652
    D7        1.03569   0.00000  -0.00206   0.00086  -0.00120   1.03449
    D8       -1.03421  -0.00007  -0.00208  -0.00093  -0.00301  -1.03722
    D9       -3.10059  -0.00011  -0.00154  -0.00117  -0.00272  -3.10331
   D10        3.11878   0.00009  -0.00312   0.00174  -0.00139   3.11739
   D11        1.04887   0.00003  -0.00314  -0.00005  -0.00319   1.04568
   D12       -1.01751  -0.00002  -0.00261  -0.00030  -0.00290  -1.02041
   D13        0.92960   0.00001   0.00640   0.00634   0.01274   0.94234
   D14        3.02747   0.00011   0.00630   0.00818   0.01448   3.04194
   D15       -1.19823   0.00012   0.00623   0.00858   0.01481  -1.18341
         Item               Value     Threshold  Converged?
 Maximum Force            0.000379     0.000450     YES
 RMS     Force            0.000120     0.000300     YES
 Maximum Displacement     0.017293     0.001800     NO 
 RMS     Displacement     0.004779     0.001200     NO 
 Predicted change in Energy=-5.045189D-06
 GradGradGradGradGradGradGradGradGradGradGradGradGradGradGradGradGradGrad

                          Input orientation:                          
 ---------------------------------------------------------------------
 Center     Atomic      Atomic             Coordinates (Angstroms)
 Number     Number       Type             X           Y           Z
 ---------------------------------------------------------------------
      1          6           0        1.047203    2.162366    1.623462
      2          8           0        1.644928    2.103356    2.895759
      3          6           0        1.345051    0.845100    0.938950
      4          8           0        2.719879    0.645736    0.795981
      5          1           0        1.466035    2.977046    1.038533
      6          1           0       -0.027984    2.309888    1.703186
      7          1           0        1.637077    2.958374    3.301424
      8          1           0        0.914933    0.840041   -0.054961
      9          1           0        0.890121    0.037145    1.508323
     10          1           0        3.116059    0.737548    1.653144
 ---------------------------------------------------------------------
                    Distance matrix (angstroms):
                    1          2          3          4          5
     1  C    0.000000
     2  O    1.406945   0.000000
     3  C    1.514087   2.345684   0.000000
     4  O    2.404732   2.772948   1.396544   0.000000
     5  H    1.086861   2.060249   2.137697   2.658188   0.000000
     6  H    1.088184   2.064830   2.148229   3.338139   1.766057
     7  H    1.948624   0.946405   3.183157   3.577429   2.269423
     8  H    2.140827   3.291747   1.082998   2.004915   2.462972
     9  H    2.134126   2.600757   1.088089   2.055681   3.032392
    10  H    2.512201   2.360879   1.912618   0.948744   2.848803
                    6          7          8          9         10
     6  H    0.000000
     7  H    2.397358   0.000000
     8  H    2.478028   4.034122   0.000000
     9  H    2.458912   3.508095   1.757587   0.000000
    10  H    3.515646   3.136285   2.788025   2.338019   0.000000
 Stoichiometry    C2H6O2
 Framework group  C1[X(C2H6O2)]
 Deg. of freedom    24
 Full point group                 C1      NOp   1
 Largest Abelian subgroup         C1      NOp   1
 Largest concise Abelian subgroup C1      NOp   1
                         Standard orientation:                         
 ---------------------------------------------------------------------
 Center     Atomic      Atomic             Coordinates (Angstroms)
 Number     Number       Type             X           Y           Z
 ---------------------------------------------------------------------
      1          6           0        0.684734    0.593958   -0.261109
      2          8           0        1.319965   -0.569623    0.210120
      3          6           0       -0.733578    0.562568    0.267913
      4          8           0       -1.423511   -0.560771   -0.192998
      5          1           0        0.665490    0.609150   -1.347694
      6          1           0        1.196843    1.487975    0.089069
      7          1           0        2.151488   -0.688435   -0.225924
      8          1           0       -1.275135    1.435206   -0.075751
      9          1           0       -0.708535    0.586820    1.355444
     10          1           0       -0.908720   -1.326723    0.027057
 ---------------------------------------------------------------------
 Rotational constants (GHZ):     15.7305865      5.7036906      4.7056194
 Standard basis: 6-31G(d) (6D, 7F)
 There are    72 symmetry adapted cartesian basis functions of A   symmetry.
 There are    72 symmetry adapted basis functions of A   symmetry.
    72 basis functions,   136 primitive gaussians,    72 cartesian basis functions
    17 alpha electrons       17 beta electrons
       nuclear repulsion energy       134.6406710998 Hartrees.
 NAtoms=   10 NActive=   10 NUniq=   10 SFac= 1.00D+00 NAtFMM=   60 NAOKFM=F Big=F
 Integral buffers will be    131072 words long.
 Raffenetti 1 integral format.
 Two-electron integral symmetry is turned on.
 One-electron integrals computed using PRISM.
 NBasis=    72 RedAO= T EigKep=  5.00D-03  NBF=    72
 NBsUse=    72 1.00D-06 EigRej= -1.00D+00 NBFU=    72
 Initial guess from the checkpoint file:  "1-2-ethanediol-opt.chk"
 B after Tr=     0.000000    0.000000    0.000000
         Rot=    1.000000   -0.000535   -0.000054    0.000377 Ang=  -0.08 deg.
 Keep R1 ints in memory in canonical form, NReq=4344826.
 Requested convergence on RMS density matrix=1.00D-08 within 128 cycles.
 Requested convergence on MAX density matrix=1.00D-06.
 Requested convergence on             energy=1.00D-06.
 No special actions if energy rises.
 SCF Done:  E(RHF) =  -228.925723605     A.U. after    9 cycles
            NFock=  9  Conv=0.80D-08     -V/T= 2.0015
 Calling FoFJK, ICntrl=      2127 FMM=F ISym2X=0 I1Cent= 0 IOpClX= 0 NMat=1 NMatS=1 NMatT=0.
 ***** Axes restored to original set *****
 -------------------------------------------------------------------
 Center     Atomic                   Forces (Hartrees/Bohr)
 Number     Number              X              Y              Z
 -------------------------------------------------------------------
      1        6          -0.000176421    0.000072173   -0.000692689
      2        8           0.000238557    0.000027818    0.000366398
      3        6          -0.000584705    0.000005957    0.000253589
      4        8           0.000312101   -0.000023629   -0.000106087
      5        1           0.000007554   -0.000051331    0.000120715
      6        1           0.000160984    0.000024535    0.000110905
      7        1          -0.000114536   -0.000064680   -0.000003532
      8        1           0.000160419   -0.000044751    0.000061453
      9        1           0.000096171    0.000028139   -0.000076087
     10        1          -0.000100124    0.000025769   -0.000034666
 -------------------------------------------------------------------
 Cartesian Forces:  Max     0.000692689 RMS     0.000212615

 GradGradGradGradGradGradGradGradGradGradGradGradGradGradGradGradGradGrad
 Berny optimization.
 Using GEDIIS/GDIIS optimizer.
 FormGI is forming the generalized inverse of G from B-inverse, IUseBI=4.
 Internal  Forces:  Max     0.000382373 RMS     0.000101956
 Search for a local minimum.
 Step number   5 out of a maximum of   48
 All quantities printed in internal units (Hartrees-Bohrs-Radians)
 Mixed Optimization -- En-DIIS/RFO-DIIS
 Swapping is turned off.
 Update second derivatives using D2CorX and points    1    2    3    4    5
 DE= -5.90D-06 DEPred=-5.05D-06 R= 1.17D+00
 TightC=F SS=  1.41D+00  RLast= 3.77D-02 DXNew= 6.4974D-01 1.1315D-01
 Trust test= 1.17D+00 RLast= 3.77D-02 DXMaxT set to 3.86D-01
 ITU=  1  1  1  1  0
     Eigenvalues ---    0.00314   0.00610   0.01495   0.05399   0.05805
     Eigenvalues ---    0.06063   0.06485   0.11324   0.12438   0.13622
     Eigenvalues ---    0.14364   0.16181   0.16519   0.22004   0.22951
     Eigenvalues ---    0.30970   0.33495   0.33774   0.34098   0.36422
     Eigenvalues ---    0.42676   0.46396   0.53429   0.57662
 En-DIIS/RFO-DIIS IScMMF=        0 using points:     5    4    3    2
 RFO step:  Lambda=-8.70537861D-07.
 DidBck=F Rises=F RFO-DIIS coefs:    1.20860   -0.11730   -0.13616    0.04485
 Iteration  1 RMS(Cart)=  0.00363595 RMS(Int)=  0.00001409
 Iteration  2 RMS(Cart)=  0.00001222 RMS(Int)=  0.00000117
 Iteration  3 RMS(Cart)=  0.00000000 RMS(Int)=  0.00000117
 Variable       Old X    -DE/DX   Delta X   Delta X   Delta X     New X
                                 (Linear)    (Quad)   (Total)
    R1        2.65874   0.00038  -0.00045   0.00104   0.00059   2.65933
    R2        2.86121  -0.00006   0.00000  -0.00022  -0.00022   2.86099
    R3        2.05387  -0.00010   0.00003  -0.00020  -0.00016   2.05371
    R4        2.05637  -0.00015   0.00000  -0.00021  -0.00021   2.05616
    R5        1.78845  -0.00006   0.00017  -0.00015   0.00002   1.78846
    R6        2.63909   0.00022  -0.00012   0.00062   0.00050   2.63959
    R7        2.04657  -0.00012   0.00002  -0.00031  -0.00029   2.04628
    R8        2.05619  -0.00010   0.00003  -0.00020  -0.00018   2.05601
    R9        1.79287  -0.00007   0.00021  -0.00024  -0.00004   1.79283
    A1        1.86373  -0.00003   0.00004  -0.00039  -0.00035   1.86338
    A2        1.93307  -0.00003  -0.00031   0.00030  -0.00001   1.93306
    A3        1.93821  -0.00009  -0.00020  -0.00056  -0.00076   1.93745
    A4        1.91030   0.00009   0.00048   0.00020   0.00068   1.91097
    A5        1.92350   0.00006   0.00001   0.00026   0.00027   1.92377
    A6        1.89501  -0.00001  -0.00001   0.00019   0.00019   1.89520
    A7        1.92431  -0.00005  -0.00033   0.00006  -0.00027   1.92404
    A8        1.94351  -0.00009  -0.00023  -0.00011  -0.00034   1.94316
    A9        1.91861   0.00011   0.00037   0.00046   0.00084   1.91944
   A10        1.90413   0.00008  -0.00005   0.00038   0.00033   1.90447
   A11        1.87168  -0.00008   0.00027  -0.00146  -0.00118   1.87049
   A12        1.93817   0.00000  -0.00042   0.00058   0.00016   1.93833
   A13        1.88674  -0.00002   0.00006   0.00014   0.00020   1.88694
   A14        1.88051  -0.00015  -0.00003  -0.00058  -0.00060   1.87991
    D1        2.94816   0.00008   0.00452   0.00730   0.01182   2.95998
    D2        0.86953   0.00001   0.00410   0.00713   0.01122   0.88075
    D3       -1.23751   0.00010   0.00444   0.00706   0.01150  -1.22601
    D4       -1.05886  -0.00007  -0.00083  -0.00342  -0.00425  -1.06312
    D5       -3.13057   0.00002  -0.00127  -0.00183  -0.00311  -3.13368
    D6        1.08652  -0.00007  -0.00154  -0.00251  -0.00405   1.08247
    D7        1.03449  -0.00007  -0.00092  -0.00318  -0.00410   1.03039
    D8       -1.03722   0.00002  -0.00136  -0.00159  -0.00295  -1.04017
    D9       -3.10331  -0.00007  -0.00163  -0.00226  -0.00389  -3.10720
   D10        3.11739   0.00002  -0.00062  -0.00266  -0.00328   3.11411
   D11        1.04568   0.00011  -0.00106  -0.00107  -0.00213   1.04355
   D12       -1.02041   0.00002  -0.00133  -0.00174  -0.00307  -1.02348
   D13        0.94234  -0.00000   0.00343   0.00171   0.00514   0.94748
   D14        3.04194   0.00002   0.00393   0.00128   0.00522   3.04716
   D15       -1.18341  -0.00005   0.00394   0.00090   0.00484  -1.17857
         Item               Value     Threshold  Converged?
 Maximum Force            0.000382     0.000450     YES
 RMS     Force            0.000102     0.000300     YES
 Maximum Displacement     0.014114     0.001800     NO 
 RMS     Displacement     0.003637     0.001200     NO 
 Predicted change in Energy=-1.886349D-06
 GradGradGradGradGradGradGradGradGradGradGradGradGradGradGradGradGradGrad

                          Input orientation:                          
 ---------------------------------------------------------------------
 Center     Atomic      Atomic             Coordinates (Angstroms)
 Number     Number       Type             X           Y           Z
 ---------------------------------------------------------------------
      1          6           0        1.048646    2.163315    1.622683
      2          8           0        1.645688    2.104009    2.895632
      3          6           0        1.344883    0.845084    0.939581
      4          8           0        2.719692    0.646340    0.793007
      5          1           0        1.468740    2.977257    1.037792
      6          1           0       -0.026203    2.312381    1.702536
      7          1           0        1.629608    2.957215    3.304876
      8          1           0        0.913154    0.837788   -0.053447
      9          1           0        0.891941    0.037793    1.511294
     10          1           0        3.117151    0.735418    1.649845
 ---------------------------------------------------------------------
                    Distance matrix (angstroms):
                    1          2          3          4          5
     1  C    0.000000
     2  O    1.407258   0.000000
     3  C    1.513973   2.345529   0.000000
     4  O    2.404572   2.774764   1.396811   0.000000
     5  H    1.086774   2.060446   2.138024   2.656685   0.000000
     6  H    1.088071   2.064489   2.148241   3.338095   1.766013
     7  H    1.948735   0.946414   3.183831   3.583003   2.272872
     8  H    2.141212   3.291957   1.082843   2.004175   2.465117
     9  H    2.134199   2.598802   1.087994   2.055952   3.032713
    10  H    2.513631   2.364366   1.912442   0.948726   2.849159
                    6          7          8          9         10
     6  H    0.000000
     7  H    2.392700   0.000000
     8  H    2.477961   4.035295   0.000000
     9  H    2.460349   3.504870   1.757514   0.000000
    10  H    3.517139   3.144565   2.787344   2.336116   0.000000
 Stoichiometry    C2H6O2
 Framework group  C1[X(C2H6O2)]
 Deg. of freedom    24
 Full point group                 C1      NOp   1
 Largest Abelian subgroup         C1      NOp   1
 Largest concise Abelian subgroup C1      NOp   1
                         Standard orientation:                         
 ---------------------------------------------------------------------
 Center     Atomic      Atomic             Coordinates (Angstroms)
 Number     Number       Type             X           Y           Z
 ---------------------------------------------------------------------
      1          6           0        0.684357    0.593318   -0.262235
      2          8           0        1.320585   -0.569900    0.209477
      3          6           0       -0.732856    0.562043    0.269408
      4          8           0       -1.424714   -0.559545   -0.193686
      5          1           0        0.663830    0.607437   -1.348724
      6          1           0        1.197307    1.487239    0.086599
      7          1           0        2.156049   -0.683374   -0.220433
      8          1           0       -1.275080    1.435278   -0.071183
      9          1           0       -0.706049    0.583371    1.356863
     10          1           0       -0.912033   -1.326559    0.027511
 ---------------------------------------------------------------------
 Rotational constants (GHZ):     15.7444882      5.6970781      4.7041316
 Standard basis: 6-31G(d) (6D, 7F)
 There are    72 symmetry adapted cartesian basis functions of A   symmetry.
 There are    72 symmetry adapted basis functions of A   symmetry.
    72 basis functions,   136 primitive gaussians,    72 cartesian basis functions
    17 alpha electrons       17 beta electrons
       nuclear repulsion energy       134.6251867691 Hartrees.
 NAtoms=   10 NActive=   10 NUniq=   10 SFac= 1.00D+00 NAtFMM=   60 NAOKFM=F Big=F
 Integral buffers will be    131072 words long.
 Raffenetti 1 integral format.
 Two-electron integral symmetry is turned on.
 One-electron integrals computed using PRISM.
 NBasis=    72 RedAO= T EigKep=  5.01D-03  NBF=    72
 NBsUse=    72 1.00D-06 EigRej= -1.00D+00 NBFU=    72
 Initial guess from the checkpoint file:  "1-2-ethanediol-opt.chk"
 B after Tr=    -0.000000   -0.000000   -0.000000
         Rot=    1.000000   -0.000268   -0.000181    0.000099 Ang=  -0.04 deg.
 Keep R1 ints in memory in canonical form, NReq=4344826.
 Requested convergence on RMS density matrix=1.00D-08 within 128 cycles.
 Requested convergence on MAX density matrix=1.00D-06.
 Requested convergence on             energy=1.00D-06.
 No special actions if energy rises.
 SCF Done:  E(RHF) =  -228.925725719     A.U. after    9 cycles
            NFock=  9  Conv=0.34D-08     -V/T= 2.0015
 Calling FoFJK, ICntrl=      2127 FMM=F ISym2X=0 I1Cent= 0 IOpClX= 0 NMat=1 NMatS=1 NMatT=0.
 ***** Axes restored to original set *****
 -------------------------------------------------------------------
 Center     Atomic                   Forces (Hartrees/Bohr)
 Number     Number              X              Y              Z
 -------------------------------------------------------------------
      1        6          -0.000214495   -0.000009394   -0.000305375
      2        8           0.000180398    0.000037039    0.000178649
      3        6          -0.000267342    0.000063666    0.000021277
      4        8           0.000165294   -0.000093842    0.000105849
      5        1           0.000029209   -0.000057331    0.000055066
      6        1           0.000064419    0.000010485    0.000040260
      7        1          -0.000049738   -0.000050392   -0.000014575
      8        1           0.000007833    0.000026970    0.000009566
      9        1           0.000068235    0.000027023   -0.000039066
     10        1           0.000016186    0.000045776   -0.000051651
 -------------------------------------------------------------------
 Cartesian Forces:  Max     0.000305375 RMS     0.000109482

 GradGradGradGradGradGradGradGradGradGradGradGradGradGradGradGradGradGrad
 Berny optimization.
 Using GEDIIS/GDIIS optimizer.
 FormGI is forming the generalized inverse of G from B-inverse, IUseBI=4.
 Internal  Forces:  Max     0.000204411 RMS     0.000056470
 Search for a local minimum.
 Step number   6 out of a maximum of   48
 All quantities printed in internal units (Hartrees-Bohrs-Radians)
 Mixed Optimization -- En-DIIS/RFO-DIIS
 Swapping is turned off.
 Update second derivatives using D2CorX and points    1    2    3    4    5
                                                      6
 DE= -2.11D-06 DEPred=-1.89D-06 R= 1.12D+00
 TightC=F SS=  1.41D+00  RLast= 2.43D-02 DXNew= 6.4974D-01 7.2848D-02
 Trust test= 1.12D+00 RLast= 2.43D-02 DXMaxT set to 3.86D-01
 ITU=  1  1  1  1  1  0
     Eigenvalues ---    0.00326   0.00570   0.01450   0.05467   0.05868
     Eigenvalues ---    0.05995   0.06535   0.11313   0.12014   0.13714
     Eigenvalues ---    0.14519   0.16102   0.16788   0.21849   0.22801
     Eigenvalues ---    0.31093   0.33493   0.33627   0.34223   0.35477
     Eigenvalues ---    0.42330   0.44766   0.53512   0.57960
 En-DIIS/RFO-DIIS IScMMF=        0 using points:     6    5    4    3    2
 RFO step:  Lambda=-2.73677106D-07.
 DidBck=F Rises=F RFO-DIIS coefs:    1.21940   -0.05481   -0.31405    0.12564    0.02382
 Iteration  1 RMS(Cart)=  0.00098708 RMS(Int)=  0.00000229
 Iteration  2 RMS(Cart)=  0.00000227 RMS(Int)=  0.00000053
 Iteration  3 RMS(Cart)=  0.00000000 RMS(Int)=  0.00000053
 Variable       Old X    -DE/DX   Delta X   Delta X   Delta X     New X
                                 (Linear)    (Quad)   (Total)
    R1        2.65933   0.00020   0.00061   0.00013   0.00074   2.66007
    R2        2.86099  -0.00008  -0.00044   0.00015  -0.00029   2.86070
    R3        2.05371  -0.00006  -0.00036   0.00017  -0.00019   2.05352
    R4        2.05616  -0.00006  -0.00032   0.00010  -0.00022   2.05594
    R5        1.78846  -0.00005  -0.00009   0.00004  -0.00005   1.78841
    R6        2.63959   0.00018   0.00059  -0.00000   0.00058   2.64017
    R7        2.04628  -0.00001  -0.00027   0.00021  -0.00006   2.04622
    R8        2.05601  -0.00007  -0.00035   0.00013  -0.00022   2.05579
    R9        1.79283  -0.00004  -0.00001  -0.00003  -0.00004   1.79279
    A1        1.86338  -0.00004  -0.00028  -0.00011  -0.00039   1.86299
    A2        1.93306  -0.00002  -0.00045  -0.00009  -0.00054   1.93251
    A3        1.93745  -0.00000  -0.00036   0.00007  -0.00029   1.93716
    A4        1.91097   0.00001   0.00025  -0.00005   0.00020   1.91117
    A5        1.92377   0.00005   0.00059  -0.00003   0.00056   1.92434
    A6        1.89520   0.00001   0.00025   0.00020   0.00045   1.89565
    A7        1.92404  -0.00003  -0.00035   0.00006  -0.00029   1.92375
    A8        1.94316  -0.00003  -0.00033  -0.00001  -0.00034   1.94283
    A9        1.91944   0.00000   0.00050  -0.00018   0.00032   1.91976
   A10        1.90447   0.00003   0.00003   0.00023   0.00026   1.90473
   A11        1.87049   0.00003  -0.00006   0.00009   0.00004   1.87053
   A12        1.93833  -0.00003  -0.00028  -0.00028  -0.00056   1.93777
   A13        1.88694   0.00001   0.00017   0.00014   0.00031   1.88725
   A14        1.87991   0.00005  -0.00023   0.00034   0.00011   1.88002
    D1        2.95998   0.00001   0.00184   0.00256   0.00440   2.96439
    D2        0.88075   0.00004   0.00196   0.00274   0.00470   0.88545
    D3       -1.22601   0.00004   0.00218   0.00250   0.00469  -1.22133
    D4       -1.06312   0.00004   0.00067   0.00049   0.00116  -1.06196
    D5       -3.13368   0.00002   0.00063   0.00049   0.00112  -3.13256
    D6        1.08247  -0.00000   0.00011   0.00029   0.00040   1.08287
    D7        1.03039  -0.00000   0.00011   0.00029   0.00039   1.03078
    D8       -1.04017  -0.00002   0.00007   0.00029   0.00035  -1.03982
[...]
 Keep R1 ints in memory in canonical form, NReq=4344826.
 Requested convergence on RMS density matrix=1.00D-08 within 128 cycles.
 Requested convergence on MAX density matrix=1.00D-06.
 Requested convergence on             energy=1.00D-06.
 No special actions if energy rises.
 SCF Done:  E(RHF) =  -228.925726641     A.U. after    8 cycles
            NFock=  8  Conv=0.43D-08     -V/T= 2.0015
 Calling FoFJK, ICntrl=      2127 FMM=F ISym2X=0 I1Cent= 0 IOpClX= 0 NMat=1 NMatS=1 NMatT=0.
 ***** Axes restored to original set *****
 -------------------------------------------------------------------
 Center     Atomic                   Forces (Hartrees/Bohr)
 Number     Number              X              Y              Z
 -------------------------------------------------------------------
      1        6           0.000030322    0.000002837    0.000102749
      2        8          -0.000012439    0.000011009   -0.000058712
      3        6           0.000088477   -0.000019892   -0.000022402
      4        8          -0.000060973   -0.000021950    0.000017227
      5        1          -0.000000350    0.000013802   -0.000026554
      6        1          -0.000021400    0.000000373   -0.000015808
      7        1          -0.000003766   -0.000002213    0.000016054
      8        1          -0.000016834    0.000014767   -0.000010437
      9        1          -0.000018654   -0.000018458    0.000000909
     10        1           0.000015617    0.000019725   -0.000003027
 -------------------------------------------------------------------
 Cartesian Forces:  Max     0.000102749 RMS     0.000032788

 GradGradGradGradGradGradGradGradGradGradGradGradGradGradGradGradGradGrad
 Berny optimization.
 Using GEDIIS/GDIIS optimizer.
 FormGI is forming the generalized inverse of G from B-inverse, IUseBI=4.
 Internal  Forces:  Max     0.000045827 RMS     0.000016388
 Search for a local minimum.
 Step number   8 out of a maximum of   48
 All quantities printed in internal units (Hartrees-Bohrs-Radians)
 Mixed Optimization -- En-DIIS/RFO-DIIS
 Swapping is turned off.
 Update second derivatives using D2CorX and points    1    2    3    4    5
                                                      6    7    8
 DE= -2.00D-07 DEPred=-1.44D-07 R= 1.39D+00
 Trust test= 1.39D+00 RLast= 6.65D-03 DXMaxT set to 3.86D-01
 ITU=  0  0  1  1  1  1  1  0
     Eigenvalues ---    0.00290   0.00410   0.00778   0.05534   0.05912
     Eigenvalues ---    0.06511   0.06800   0.11434   0.12528   0.13687
     Eigenvalues ---    0.14721   0.16564   0.18005   0.22094   0.23129
     Eigenvalues ---    0.31296   0.33509   0.33745   0.34330   0.37747
     Eigenvalues ---    0.42744   0.48852   0.53554   0.59650
 En-DIIS/RFO-DIIS IScMMF=        0 using points:     8    7    6    5    4
 RFO step:  Lambda=-2.37264092D-08.
 DidBck=F Rises=F RFO-DIIS coefs:    1.81692   -0.94713    0.05793    0.08362   -0.01133
 Iteration  1 RMS(Cart)=  0.00056488 RMS(Int)=  0.00000069
 Iteration  2 RMS(Cart)=  0.00000063 RMS(Int)=  0.00000004
 Variable       Old X    -DE/DX   Delta X   Delta X   Delta X     New X
                                 (Linear)    (Quad)   (Total)
    R1        2.66021  -0.00005  -0.00004  -0.00003  -0.00007   2.66014
    R2        2.86063   0.00003  -0.00001   0.00012   0.00011   2.86073
    R3        2.05345   0.00002  -0.00002   0.00008   0.00006   2.05350
    R4        2.05585   0.00002  -0.00003   0.00005   0.00002   2.05587
    R5        1.78840   0.00001  -0.00000   0.00000  -0.00000   1.78839
    R6        2.64024  -0.00005  -0.00006  -0.00003  -0.00009   2.64015
    R7        2.04618   0.00002  -0.00001   0.00004   0.00003   2.04621
    R8        2.05571   0.00002  -0.00003   0.00007   0.00004   2.05575
    R9        1.79278   0.00001  -0.00000   0.00001   0.00001   1.79279
    A1        1.86289   0.00001  -0.00001   0.00003   0.00002   1.86291
    A2        1.93238   0.00001  -0.00004   0.00011   0.00007   1.93245
    A3        1.93713   0.00001   0.00007   0.00003   0.00010   1.93723
    A4        1.91116  -0.00001  -0.00009   0.00007  -0.00002   1.91115
    A5        1.92448  -0.00002   0.00003  -0.00015  -0.00012   1.92436
    A6        1.89578  -0.00000   0.00003  -0.00008  -0.00005   1.89573
    A7        1.92366   0.00002  -0.00003   0.00017   0.00014   1.92380
    A8        1.94277   0.00001   0.00002   0.00004   0.00006   1.94282
    A9        1.91972  -0.00002  -0.00012  -0.00005  -0.00017   1.91955
   A10        1.90478  -0.00000  -0.00003   0.00008   0.00005   1.90483
   A11        1.87045   0.00001   0.00003   0.00008   0.00011   1.87056
   A12        1.93782  -0.00000   0.00010  -0.00010  -0.00000   1.93782
   A13        1.88732   0.00000   0.00000  -0.00005  -0.00004   1.88728
   A14        1.87986   0.00002  -0.00009   0.00025   0.00016   1.88002
    D1        2.96727   0.00001   0.00110   0.00100   0.00211   2.96938
    D2        0.88848   0.00001   0.00123   0.00085   0.00208   0.89056
    D3       -1.21835  -0.00000   0.00117   0.00086   0.00203  -1.21632
    D4       -1.06130   0.00000   0.00069  -0.00009   0.00061  -1.06069
    D5       -3.13174  -0.00000   0.00072  -0.00017   0.00055  -3.13120
    D6        1.08359   0.00001   0.00081  -0.00013   0.00068   1.08427
    D7        1.03123   0.00001   0.00059   0.00010   0.00069   1.03192
    D8       -1.03922   0.00000   0.00062   0.00001   0.00063  -1.03859
    D9       -3.10707   0.00001   0.00071   0.00005   0.00076  -3.10631
   D10        3.11621  -0.00001   0.00059  -0.00005   0.00054   3.11675
   D11        1.04577  -0.00001   0.00062  -0.00014   0.00048   1.04625
   D12       -1.02208  -0.00000   0.00071  -0.00010   0.00061  -1.02147
   D13        0.94344  -0.00001  -0.00166  -0.00035  -0.00200   0.94143
   D14        3.04320  -0.00002  -0.00178  -0.00034  -0.00211   3.04108
   D15       -1.18238  -0.00001  -0.00170  -0.00040  -0.00210  -1.18448
         Item               Value     Threshold  Converged?
 Maximum Force            0.000046     0.000450     YES
 RMS     Force            0.000016     0.000300     YES
 Maximum Displacement     0.001735     0.001800     YES
 RMS     Displacement     0.000565     0.001200     YES
 Predicted change in Energy=-6.423112D-08
 Optimization completed.
    -- Stationary point found.
                           ----------------------------
                           !   Optimized Parameters   !
                           ! (Angstroms and Degrees)  !
 --------------------------                            --------------------------
 ! Name  Definition              Value          Derivative Info.                !
 --------------------------------------------------------------------------------
 ! R1    R(1,2)                  1.4077         -DE/DX =    0.0                 !
 ! R2    R(1,3)                  1.5138         -DE/DX =    0.0                 !
 ! R3    R(1,5)                  1.0866         -DE/DX =    0.0                 !
 ! R4    R(1,6)                  1.0879         -DE/DX =    0.0                 !
 ! R5    R(2,7)                  0.9464         -DE/DX =    0.0                 !
 ! R6    R(3,4)                  1.3972         -DE/DX =    0.0                 !
 ! R7    R(3,8)                  1.0828         -DE/DX =    0.0                 !
 ! R8    R(3,9)                  1.0878         -DE/DX =    0.0                 !
 ! R9    R(4,10)                 0.9487         -DE/DX =    0.0                 !
 ! A1    A(2,1,3)              106.7359         -DE/DX =    0.0                 !
 ! A2    A(2,1,5)              110.7174         -DE/DX =    0.0                 !
 ! A3    A(2,1,6)              110.9892         -DE/DX =    0.0                 !
 ! A4    A(3,1,5)              109.5016         -DE/DX =    0.0                 !
 ! A5    A(3,1,6)              110.2647         -DE/DX =    0.0                 !
 ! A6    A(5,1,6)              108.6201         -DE/DX =    0.0                 !
 ! A7    A(1,2,7)              110.2173         -DE/DX =    0.0                 !
 ! A8    A(1,3,4)              111.3123         -DE/DX =    0.0                 !
 ! A9    A(1,3,8)              109.9921         -DE/DX =    0.0                 !
 ! A10   A(1,3,9)              109.1358         -DE/DX =    0.0                 !
 ! A11   A(4,3,8)              107.1691         -DE/DX =    0.0                 !
 ! A12   A(4,3,9)              111.0288         -DE/DX =    0.0                 !
 ! A13   A(8,3,9)              108.1357         -DE/DX =    0.0                 !
 ! A14   A(3,4,10)             107.7081         -DE/DX =    0.0                 !
 ! D1    D(3,1,2,7)            170.0121         -DE/DX =    0.0                 !
 ! D2    D(5,1,2,7)             50.906          -DE/DX =    0.0                 !
 ! D3    D(6,1,2,7)            -69.8063         -DE/DX =    0.0                 !
 ! D4    D(2,1,3,4)            -60.808          -DE/DX =    0.0                 !
 ! D5    D(2,1,3,8)           -179.4357         -DE/DX =    0.0                 !
 ! D6    D(2,1,3,9)             62.0852         -DE/DX =    0.0                 !
 ! D7    D(5,1,3,4)             59.0849         -DE/DX =    0.0                 !
 ! D8    D(5,1,3,8)            -59.5428         -DE/DX =    0.0                 !
 ! D9    D(5,1,3,9)           -178.0219         -DE/DX =    0.0                 !
 ! D10   D(6,1,3,4)            178.5458         -DE/DX =    0.0                 !
 ! D11   D(6,1,3,8)             59.9181         -DE/DX =    0.0                 !
 ! D12   D(6,1,3,9)            -58.561          -DE/DX =    0.0                 !
 ! D13   D(1,3,4,10)            54.055          -DE/DX =    0.0                 !
 ! D14   D(8,3,4,10)           174.3624         -DE/DX =    0.0                 !
 ! D15   D(9,3,4,10)           -67.7454         -DE/DX =    0.0                 !
 --------------------------------------------------------------------------------
 GradGradGradGradGradGradGradGradGradGradGradGradGradGradGradGradGradGrad

                          Input orientation:                          
 ---------------------------------------------------------------------
 Center     Atomic      Atomic             Coordinates (Angstroms)
 Number     Number       Type             X           Y           Z
 ---------------------------------------------------------------------
      1          6           0        1.049118    2.163322    1.622063
      2          8           0        1.648203    2.104046    2.894567
      3          6           0        1.344308    0.844831    0.939443
      4          8           0        2.719409    0.645220    0.793548
      5          1           0        1.469290    2.976838    1.036889
      6          1           0       -0.025332    2.313072    1.703792
      7          1           0        1.627058    2.956041    3.306014
      8          1           0        0.913106    0.837472   -0.053756
      9          1           0        0.891230    0.037918    1.511281
     10          1           0        3.116909    0.737841    1.649959
 ---------------------------------------------------------------------
                    Distance matrix (angstroms):
                    1          2          3          4          5
     1  C    0.000000
     2  O    1.407722   0.000000
     3  C    1.513779   2.345311   0.000000
     4  O    2.404360   2.773074   1.397152   0.000000
     5  H    1.086637   2.060277   2.137889   2.656776   0.000000
     6  H    1.087910   2.064547   2.148458   3.338245   1.766137
     7  H    1.948874   0.946378   3.183994   3.584078   2.274698
     8  H    2.141202   3.291988   1.082790   2.004399   2.464900
     9  H    2.134138   2.599110   1.087835   2.055771   3.032565
    10  H    2.511679   2.360649   1.912693   0.948697   2.846684
                    6          7          8          9         10
     6  H    0.000000
     7  H    2.389753   0.000000
     8  H    2.479322   4.035607   0.000000
     9  H    2.460380   3.503992   1.757585   0.000000
    10  H    3.515384   3.143658   2.787349   2.337257   0.000000
 Stoichiometry    C2H6O2
 Framework group  C1[X(C2H6O2)]
 Deg. of freedom    24
 Full point group                 C1      NOp   1
 Largest Abelian subgroup         C1      NOp   1
 Largest concise Abelian subgroup C1      NOp   1
                         Standard orientation:                         
 ---------------------------------------------------------------------
 Center     Atomic      Atomic             Coordinates (Angstroms)
 Number     Number       Type             X           Y           Z
 ---------------------------------------------------------------------
      1          6           0        0.684139    0.593845   -0.262197
      2          8           0        1.319627   -0.570582    0.208917
      3          6           0       -0.732907    0.562530    0.269334
      4          8           0       -1.424100   -0.560073   -0.193320
      5          1           0        0.663856    0.607974   -1.348553
      6          1           0        1.198018    1.486788    0.087272
      7          1           0        2.157879   -0.680558   -0.216372
      8          1           0       -1.275650    1.435129   -0.071891
      9          1           0       -0.706480    0.583977    1.356637
     10          1           0       -0.909232   -1.326321    0.025313
 ---------------------------------------------------------------------
 Rotational constants (GHZ):     15.7337219      5.7018429      4.7056402

 **********************************************************************

            Population analysis using the SCF density.

 **********************************************************************

 Orbital symmetries:
       Occupied  (A) (A) (A) (A) (A) (A) (A) (A) (A) (A) (A) (A)
                 (A) (A) (A) (A) (A)
       Virtual   (A) (A) (A) (A) (A) (A) (A) (A) (A) (A) (A) (A)
                 (A) (A) (A) (A) (A) (A) (A) (A) (A) (A) (A) (A)
                 (A) (A) (A) (A) (A) (A) (A) (A) (A) (A) (A) (A)
                 (A) (A) (A) (A) (A) (A) (A) (A) (A) (A) (A) (A)
                 (A) (A) (A) (A) (A) (A) (A)
 The electronic state is 1-A.
 Alpha  occ. eigenvalues --  -20.56973 -20.54806 -11.27624 -11.26798  -1.38248
 Alpha  occ. eigenvalues --   -1.35044  -1.00197  -0.84314  -0.72892  -0.67813
 Alpha  occ. eigenvalues --   -0.64896  -0.60337  -0.57455  -0.53109  -0.48984
 Alpha  occ. eigenvalues --   -0.45423  -0.43204
 Alpha virt. eigenvalues --    0.21497   0.26945   0.27509   0.31295   0.31743
 Alpha virt. eigenvalues --    0.33893   0.39411   0.41704   0.42190   0.75370
 Alpha virt. eigenvalues --    0.80739   0.80812   0.81777   0.90341   0.91259
 Alpha virt. eigenvalues --    1.07315   1.09294   1.11795   1.13632   1.16127
 Alpha virt. eigenvalues --    1.18971   1.20930   1.24217   1.27512   1.28274
 Alpha virt. eigenvalues --    1.32871   1.41989   1.52983   1.55763   1.68525
 Alpha virt. eigenvalues --    1.71728   1.86736   1.88937   1.98636   2.01140
 Alpha virt. eigenvalues --    2.04874   2.14739   2.26191   2.36212   2.42347
 Alpha virt. eigenvalues --    2.47824   2.48686   2.65531   2.69179   2.73703
 Alpha virt. eigenvalues --    2.78135   2.86670   2.91404   3.03170   3.18263
 Alpha virt. eigenvalues --    3.23550   4.13529   4.22348   4.64583   4.85329
          Condensed to atoms (all electrons):
               1          2          3          4          5          6
     1  C    4.852805   0.204407   0.362052  -0.048723   0.393036   0.387088
     2  O    0.204407   8.411196  -0.060992  -0.000430  -0.039932  -0.039023
     3  C    0.362052  -0.060992   4.773054   0.224522  -0.036899  -0.043254
     4  O   -0.048723  -0.000430   0.224522   8.379186   0.000347   0.003527
     5  H    0.393036  -0.039932  -0.036899   0.000347   0.571742  -0.041350
     6  H    0.387088  -0.039023  -0.043254   0.003527  -0.041350   0.590746
     7  H   -0.021699   0.264397   0.005800  -0.000088  -0.004573  -0.002074
     8  H   -0.044308   0.002866   0.403616  -0.036390  -0.002322   0.001398
     9  H   -0.049320  -0.000206   0.395220  -0.040661   0.005542  -0.001041
    10  H   -0.010891   0.013166  -0.029625   0.264478  -0.000125   0.000422
               7          8          9         10
     1  C   -0.021699  -0.044308  -0.049320  -0.010891
     2  O    0.264397   0.002866  -0.000206   0.013166
     3  C    0.005800   0.403616   0.395220  -0.029625
     4  O   -0.000088  -0.036390  -0.040661   0.264478
     5  H   -0.004573  -0.002322   0.005542  -0.000125
     6  H   -0.002074   0.001398  -0.001041   0.000422
     7  H    0.311798  -0.000168  -0.000265  -0.000468
     8  H   -0.000168   0.538642  -0.035023   0.005584
     9  H   -0.000265  -0.035023   0.575167  -0.002333
    10  H   -0.000468   0.005584  -0.002333   0.305092
 Mulliken charges:
               1
     1  C   -0.024448
     2  O   -0.755449
     3  C    0.006506
     4  O   -0.745770
     5  H    0.154534
     6  H    0.143560
     7  H    0.447340
     8  H    0.166105
     9  H    0.152921
    10  H    0.454699
 Sum of Mulliken charges =  -0.00000
 Mulliken charges with hydrogens summed into heavy atoms:
               1
     1  C    0.273646
     2  O   -0.308108
     3  C    0.325533
     4  O   -0.291071
 Electronic spatial extent (au):  <R**2>=            294.0924
 Charge=             -0.0000 electrons
 Dipole moment (field-independent basis, Debye):
    X=              2.4659    Y=              0.9761    Z=             -0.4238  Tot=              2.6857
 Quadrupole moment (field-independent basis, Debye-Ang):
   XX=            -25.0146   YY=            -22.3713   ZZ=            -25.3105
   XY=             -1.1670   XZ=             -3.2678   YZ=              0.1885
 Traceless Quadrupole moment (field-independent basis, Debye-Ang):
   XX=             -0.7825   YY=              1.8608   ZZ=             -1.0783
   XY=             -1.1670   XZ=             -3.2678   YZ=              0.1885
 Octapole moment (field-independent basis, Debye-Ang**2):
  XXX=             22.3178  YYY=             -8.0391  ZZZ=             -0.2495  XYY=             -1.3280
  XXY=             -1.3642  XXZ=             -2.5578  XZZ=              0.5329  YZZ=             -1.0511
  YYZ=             -0.2584  XYZ=              2.1528
 Hexadecapole moment (field-independent basis, Debye-Ang**3):
 XXXX=           -190.2598 YYYY=            -83.1883 ZZZZ=            -44.1905 XXXY=            -16.5379
 XXXZ=             -7.8522 YYYX=              2.4560 YYYZ=              0.0738 ZZZX=             -0.7653
 ZZZY=              0.0526 XXYY=            -45.9431 XXZZ=            -44.2393 YYZZ=            -23.2727
 XXYZ=              1.5203 YYXZ=             -0.0679 ZZXY=             -0.4225
 N-N= 1.346304232373D+02 E-N=-8.089225797845D+02  KE= 2.285725882528D+02
 1\1\GINC-GTX1080DELTA\FOpt\RHF\6-31G(d)\C2H6O2\MVEROT\17-Apr-2022\0\\#
  hf/6-31G* opt\\Optimisation de geometrie\\0,1\C,1.0491183275,2.163322
 0559,1.6220629709\O,1.6482029646,2.1040460693,2.8945670138\C,1.3443078
 283,0.8448308964,0.9394431407\O,2.7194094008,0.6452197308,0.7935475971
 \H,1.4692899655,2.9768378986,1.0368892021\H,-0.0253317431,2.3130715416
 ,1.7037917605\H,1.627057949,2.9560414432,3.3060143948\H,0.9131064948,0
 .837471825,-0.0537560698\H,0.8912301195,0.0379178867,1.5112805018\H,3.
 1169086932,0.7378406524,1.6499594881\\Version=AM64L-G09RevD.01\State=1
 -A\HF=-228.9257266\RMSD=4.334e-09\RMSF=3.279e-05\Dipole=-0.589852,0.78
 72308,0.3857296\Quadrupole=-0.2196435,1.5579626,-1.3383191,0.3584596,2
 .305842,0.7374899\PG=C01 [X(C2H6O2)]\\@


 ... THIS SEEMS PLAINLY ABSURD; BUT WHOEVER WISHES TO BECOME A 
 PHILOSOPHER MUST LEARN NOT TO BE FRIGHTENED BY ABSURDITIES.

                          -- BERTRAND RUSSELL
 Job cpu time:       0 days  0 hours  0 minutes 11.5 seconds.
 File lengths (MBytes):  RWF=    132 Int=      0 D2E=      0 Chk=      3 Scr=      2
 Normal termination of Gaussian 09 at Sun Apr 17 23:24:54 2022.
