 Entering Gaussian System, Link 0=g09
 Input=/scratch/mverot/2-methyl-1-Propene-opt/2-methyl-1-Propene-opt.com
 Output=/scratch/mverot/2-methyl-1-Propene-opt/2-methyl-1-Propene-opt.log
 Initial command:
 /opt/g09/l1.exe "/scratch/mverot/2-methyl-1-Propene-opt/Gau-743843.inp" -scrdir="/scratch/mverot/2-methyl-1-Propene-opt/"
 Entering Link 1 = /opt/g09/l1.exe PID=    743845.
  
 Copyright (c) 1988,1990,1992,1993,1995,1998,2003,2009,2013,
            Gaussian, Inc.  All Rights Reserved.
  
 This is part of the Gaussian(R) 09 program.  It is based on
 the Gaussian(R) 03 system (copyright 2003, Gaussian, Inc.),
 the Gaussian(R) 98 system (copyright 1998, Gaussian, Inc.),
 the Gaussian(R) 94 system (copyright 1995, Gaussian, Inc.),
 the Gaussian 92(TM) system (copyright 1992, Gaussian, Inc.),
 the Gaussian 90(TM) system (copyright 1990, Gaussian, Inc.),
 the Gaussian 88(TM) system (copyright 1988, Gaussian, Inc.),
 the Gaussian 86(TM) system (copyright 1986, Carnegie Mellon
 University), and the Gaussian 82(TM) system (copyright 1983,
 Carnegie Mellon University). Gaussian is a federally registered
 trademark of Gaussian, Inc.
  
 This software contains proprietary and confidential information,
 including trade secrets, belonging to Gaussian, Inc.
  
 This software is provided under written license and may be
 used, copied, transmitted, or stored only in accord with that
 written license.
  
 The following legend is applicable only to US Government
 contracts under FAR:
  
                    RESTRICTED RIGHTS LEGEND
  
 Use, reproduction and disclosure by the US Government is
 subject to restrictions as set forth in subparagraphs (a)
 and (c) of the Commercial Computer Software - Restricted
 Rights clause in FAR 52.227-19.
  
 Gaussian, Inc.
 340 Quinnipiac St., Bldg. 40, Wallingford CT 06492
  
  
 ---------------------------------------------------------------
 Warning -- This program may not be used in any manner that
 competes with the business of Gaussian, Inc. or will provide
 assistance to any competitor of Gaussian, Inc.  The licensee
 of this program is prohibited from giving any competitor of
 Gaussian, Inc. access to this program.  By using this program,
 the user acknowledges that Gaussian, Inc. is engaged in the
 business of creating and licensing software in the field of
 computational chemistry and represents and warrants to the
 licensee that it is not a competitor of Gaussian, Inc. and that
 it will not use this program in any manner prohibited above.
 ---------------------------------------------------------------
  

 Cite this work as:
 Gaussian 09, Revision D.01,
 M. J. Frisch, G. W. Trucks, H. B. Schlegel, G. E. Scuseria, 
 M. A. Robb, J. R. Cheeseman, G. Scalmani, V. Barone, B. Mennucci, 
 G. A. Petersson, H. Nakatsuji, M. Caricato, X. Li, H. P. Hratchian, 
 A. F. Izmaylov, J. Bloino, G. Zheng, J. L. Sonnenberg, M. Hada, 
 M. Ehara, K. Toyota, R. Fukuda, J. Hasegawa, M. Ishida, T. Nakajima, 
 Y. Honda, O. Kitao, H. Nakai, T. Vreven, J. A. Montgomery, Jr., 
 J. E. Peralta, F. Ogliaro, M. Bearpark, J. J. Heyd, E. Brothers, 
 K. N. Kudin, V. N. Staroverov, T. Keith, R. Kobayashi, J. Normand, 
 K. Raghavachari, A. Rendell, J. C. Burant, S. S. Iyengar, J. Tomasi, 
 M. Cossi, N. Rega, J. M. Millam, M. Klene, J. E. Knox, J. B. Cross, 
 V. Bakken, C. Adamo, J. Jaramillo, R. Gomperts, R. E. Stratmann, 
 O. Yazyev, A. J. Austin, R. Cammi, C. Pomelli, J. W. Ochterski, 
 R. L. Martin, K. Morokuma, V. G. Zakrzewski, G. A. Voth, 
 P. Salvador, J. J. Dannenberg, S. Dapprich, A. D. Daniels, 
 O. Farkas, J. B. Foresman, J. V. Ortiz, J. Cioslowski, 
 and D. J. Fox, Gaussian, Inc., Wallingford CT, 2013.
 
 ******************************************
 Gaussian 09:  AM64L-G09RevD.01 24-Apr-2013
                16-Apr-2022 
 ******************************************
 %chk=2-methyl-1-Propene-opt
 ---------------
 #n AM1 Opt freq
 ---------------
 1/14=-1,18=20,19=15,26=1,38=1/1,3;
 2/9=110,12=2,17=6,18=5,40=1/2;
 3/5=2,16=1,25=1,41=700000,71=1/1,2,3;
 4/35=1/1;
 5/5=2,35=1,38=5/2;
 6/7=2,8=2,9=2,10=2,28=1/1;
 7//1,2,3,16;
 1/14=-1,18=20,19=15,26=1/3(2);
 2/9=110/2;
 99//99;
 2/9=110/2;
 3/5=2,16=1,25=1,41=700000,71=1,135=20/1,2,3;
 4/5=5,16=3,35=1/1;
 5/5=2,35=1,38=5/2;
 7//1,2,3,16;
 1/14=-1,18=20,19=15,26=1/3(-5);
 2/9=110/2;
 6/7=2,8=2,9=2,10=2,19=2,28=1/1;
 99/9=1/99;
 -------------------------
 Optimisation de geometrie
 -------------------------
 Symbolic Z-matrix:
 Charge =  0 Multiplicity = 1
 C                     0.9583    0.9922    1.3796 
 C                     2.0992    1.8923    0.9737 
 C                     3.4764    1.43      1.381 
 C                     1.9021    3.0272    0.2957 
 H                     1.0779   -0.0134    0.9527 
 H                     0.9255    0.8643    2.4706 
 H                    -0.0089    1.3873    1.0541 
 H                     3.5503    1.3237    2.4724 
 H                     3.7022    0.4417    0.9569 
 H                     4.2541    2.1267    1.0536 
 H                     2.7287    3.6714    0.0058 
 H                     0.9066    3.3542    0.0051 
 

 GradGradGradGradGradGradGradGradGradGradGradGradGradGradGradGradGradGrad
 Berny optimization.
 Initialization pass.
                           ----------------------------
                           !    Initial Parameters    !
                           ! (Angstroms and Degrees)  !
 --------------------------                            --------------------------
 ! Name  Definition              Value          Derivative Info.                !
 --------------------------------------------------------------------------------
 ! R1    R(1,2)                  1.5088         estimate D2E/DX2                !
 ! R2    R(1,5)                  1.099          estimate D2E/DX2                !
 ! R3    R(1,6)                  1.099          estimate D2E/DX2                !
 ! R4    R(1,7)                  1.0943         estimate D2E/DX2                !
 ! R5    R(2,3)                  1.5087         estimate D2E/DX2                !
 ! R6    R(2,4)                  1.3366         estimate D2E/DX2                !
 ! R7    R(3,8)                  1.0991         estimate D2E/DX2                !
 ! R8    R(3,9)                  1.0989         estimate D2E/DX2                !
 ! R9    R(3,10)                 1.0943         estimate D2E/DX2                !
 ! R10   R(4,11)                 1.0873         estimate D2E/DX2                !
 ! R11   R(4,12)                 1.0874         estimate D2E/DX2                !
 ! A1    A(2,1,5)              111.0432         estimate D2E/DX2                !
 ! A2    A(2,1,6)              111.0427         estimate D2E/DX2                !
 ! A3    A(2,1,7)              111.8952         estimate D2E/DX2                !
 ! A4    A(5,1,6)              106.4028         estimate D2E/DX2                !
 ! A5    A(5,1,7)              108.1201         estimate D2E/DX2                !
 ! A6    A(6,1,7)              108.1154         estimate D2E/DX2                !
 ! A7    A(1,2,3)              115.7729         estimate D2E/DX2                !
 ! A8    A(1,2,4)              122.1056         estimate D2E/DX2                !
 ! A9    A(3,2,4)              122.1215         estimate D2E/DX2                !
 ! A10   A(2,3,8)              111.0446         estimate D2E/DX2                !
 ! A11   A(2,3,9)              111.0359         estimate D2E/DX2                !
 ! A12   A(2,3,10)             111.8936         estimate D2E/DX2                !
 ! A13   A(8,3,9)              106.406          estimate D2E/DX2                !
 ! A14   A(8,3,10)             108.1139         estimate D2E/DX2                !
 ! A15   A(9,3,10)             108.1256         estimate D2E/DX2                !
 ! A16   A(2,4,11)             121.7481         estimate D2E/DX2                !
 ! A17   A(2,4,12)             121.7291         estimate D2E/DX2                !
 ! A18   A(11,4,12)            116.5227         estimate D2E/DX2                !
 ! D1    D(5,1,2,3)            -59.1508         estimate D2E/DX2                !
 ! D2    D(5,1,2,4)            120.8245         estimate D2E/DX2                !
 ! D3    D(6,1,2,3)             59.0263         estimate D2E/DX2                !
 ! D4    D(6,1,2,4)           -120.9984         estimate D2E/DX2                !
 ! D5    D(7,1,2,3)            179.9345         estimate D2E/DX2                !
 ! D6    D(7,1,2,4)             -0.0901         estimate D2E/DX2                !
 ! D7    D(1,2,3,8)            -59.2173         estimate D2E/DX2                !
 ! D8    D(1,2,3,9)             58.9604         estimate D2E/DX2                !
 ! D9    D(1,2,3,10)           179.876          estimate D2E/DX2                !
 ! D10   D(4,2,3,8)            120.8074         estimate D2E/DX2                !
 ! D11   D(4,2,3,9)           -121.015          estimate D2E/DX2                !
 ! D12   D(4,2,3,10)            -0.0994         estimate D2E/DX2                !
 ! D13   D(1,2,4,11)          -179.9776         estimate D2E/DX2                !
 ! D14   D(1,2,4,12)             0.0079         estimate D2E/DX2                !
 ! D15   D(3,2,4,11)            -0.0038         estimate D2E/DX2                !
 ! D16   D(3,2,4,12)           179.9817         estimate D2E/DX2                !
 --------------------------------------------------------------------------------
 Trust Radius=3.00D-01 FncErr=1.00D-07 GrdErr=1.00D-07
 Number of steps in this run=     55 maximum allowed number of steps=    100.
 GradGradGradGradGradGradGradGradGradGradGradGradGradGradGradGradGradGrad

                          Input orientation:                          
 ---------------------------------------------------------------------
 Center     Atomic      Atomic             Coordinates (Angstroms)
 Number     Number       Type             X           Y           Z
 ---------------------------------------------------------------------
      1          6           0        0.958300    0.992200    1.379600
      2          6           0        2.099200    1.892300    0.973700
      3          6           0        3.476400    1.430000    1.381000
      4          6           0        1.902100    3.027200    0.295700
      5          1           0        1.077900   -0.013400    0.952700
      6          1           0        0.925500    0.864300    2.470600
      7          1           0       -0.008900    1.387300    1.054100
      8          1           0        3.550300    1.323700    2.472400
      9          1           0        3.702200    0.441700    0.956900
     10          1           0        4.254100    2.126700    1.053600
     11          1           0        2.728700    3.671400    0.005800
     12          1           0        0.906600    3.354200    0.005100
 ---------------------------------------------------------------------
                    Distance matrix (angstroms):
                    1          2          3          4          5
     1  C    0.000000
     2  C    1.508837   0.000000
     3  C    2.555875   1.508739   0.000000
     4  C    2.491350   1.336612   2.491454   0.000000
     5  H    1.098990   2.162218   2.831898   3.218105   0.000000
     6  H    1.098961   2.162190   2.830960   3.219018   1.760001
     7  H    1.094317   2.169234   3.500857   2.629898   1.775775
     8  H    2.832414   2.162198   1.099052   3.218151   3.195323
     9  H    2.830320   2.161974   1.098901   3.219061   2.663472
    10  H    3.500809   2.169083   1.094257   2.630060   3.831247
    11  H    3.492815   2.120919   2.733881   1.087338   4.147229
    12  H    2.733307   2.120762   3.492781   1.087381   3.502573
                    6          7          8          9         10
     6  H    0.000000
     7  H    1.775698   0.000000
     8  H    2.664700   3.831909   0.000000
     9  H    3.190602   3.830910   1.760039   0.000000
    10  H    3.831595   4.326648   1.775707   1.775717   0.000000
    11  H    4.148081   3.716248   3.502976   3.504748   2.410566
    12  H    3.504090   2.409821   4.147246   4.147766   3.716432
                   11         12
    11  H    0.000000
    12  H    1.849504   0.000000
 Stoichiometry    C4H8
 Framework group  C1[X(C4H8)]
 Deg. of freedom    30
 Full point group                 C1      NOp   1
 Largest Abelian subgroup         C1      NOp   1
 Largest concise Abelian subgroup C1      NOp   1
                         Standard orientation:                         
 ---------------------------------------------------------------------
 Center     Atomic      Atomic             Coordinates (Angstroms)
 Number     Number       Type             X           Y           Z
 ---------------------------------------------------------------------
      1          6           0       -1.277666   -0.679446   -0.000025
      2          6           0        0.000046    0.123075    0.000167
      3          6           0        1.278209   -0.678543   -0.000051
      4          6           0       -0.000586    1.459687    0.000020
      5          1           0       -1.332096   -1.334502   -0.880774
      6          1           0       -1.331051   -1.336549    0.879225
      7          1           0       -2.163299   -0.036654    0.001308
      8          1           0        1.333647   -1.333191    0.881015
      9          1           0        1.331376   -1.335939   -0.879021
     10          1           0        2.163347   -0.035173   -0.002094
     11          1           0        0.923782    2.032266   -0.000203
     12          1           0       -0.925722    2.031108   -0.000118
 ---------------------------------------------------------------------
 Rotational constants (GHZ):      9.1202797      8.3359174      4.6029108
 Standard basis: VSTO-6G (5D, 7F)
 There are    24 symmetry adapted cartesian basis functions of A   symmetry.
 There are    24 symmetry adapted basis functions of A   symmetry.
    24 basis functions,   144 primitive gaussians,    24 cartesian basis functions
    12 alpha electrons       12 beta electrons
       nuclear repulsion energy        80.4250836009 Hartrees.
 Integral buffers will be    131072 words long.
 Regular integral format.
 Two-electron integral symmetry is turned off.
 Do NDO integrals.
 One-electron integrals computed using PRISM.
 NBasis=    24 RedAO= F EigKep=  0.00D+00  NBF=    24
 NBsUse=    24 1.00D-04 EigRej=  0.00D+00 NBFU=    24
 Simple Huckel Guess.
 Overlap will be assumed to be unity.
 Keep J ints in memory in canonical form, NReq=889405.
 Requested convergence on RMS density matrix=1.00D-08 within 128 cycles.
 Requested convergence on MAX density matrix=1.00D-06.
 Requested convergence on             energy=1.00D-06.
 No special actions if energy rises.
 SCF Done:  E(RAM1) =  0.140604750729E-02 A.U. after   11 cycles
            NFock= 10  Conv=0.72D-08     -V/T= 1.0001

 **********************************************************************

            Population analysis using the SCF density.

 **********************************************************************

 Orbital symmetries:
       Occupied  (A) (A) (A) (A) (A) (A) (A) (A) (A) (A) (A) (A)
       Virtual   (A) (A) (A) (A) (A) (A) (A) (A) (A) (A) (A) (A)
 The electronic state is 1-A.
 Alpha  occ. eigenvalues --   -1.33395  -1.04381  -1.02448  -0.71419  -0.56919
 Alpha  occ. eigenvalues --   -0.55180  -0.54047  -0.47946  -0.46617  -0.46276
 Alpha  occ. eigenvalues --   -0.43947  -0.35727
 Alpha virt. eigenvalues --    0.04816   0.14682   0.15099   0.16438   0.16642
 Alpha virt. eigenvalues --    0.17472   0.17498   0.18665   0.18710   0.18789
 Alpha virt. eigenvalues --    0.21026   0.22067
          Condensed to atoms (all electrons):
               1          2          3          4          5          6
     1  C    4.179077   0.000000   0.000000   0.000000   0.000000   0.000000
     2  C    0.000000   4.106315   0.000000   0.000000   0.000000   0.000000
     3  C    0.000000   0.000000   4.179056   0.000000   0.000000   0.000000
     4  C    0.000000   0.000000   0.000000   4.226743   0.000000   0.000000
     5  H    0.000000   0.000000   0.000000   0.000000   0.921609   0.000000
     6  H    0.000000   0.000000   0.000000   0.000000   0.000000   0.921633
     7  H    0.000000   0.000000   0.000000   0.000000   0.000000   0.000000
     8  H    0.000000   0.000000   0.000000   0.000000   0.000000   0.000000
     9  H    0.000000   0.000000   0.000000   0.000000   0.000000   0.000000
    10  H    0.000000   0.000000   0.000000   0.000000   0.000000   0.000000
    11  H    0.000000   0.000000   0.000000   0.000000   0.000000   0.000000
    12  H    0.000000   0.000000   0.000000   0.000000   0.000000   0.000000
               7          8          9         10         11         12
     1  C    0.000000   0.000000   0.000000   0.000000   0.000000   0.000000
     2  C    0.000000   0.000000   0.000000   0.000000   0.000000   0.000000
     3  C    0.000000   0.000000   0.000000   0.000000   0.000000   0.000000
     4  C    0.000000   0.000000   0.000000   0.000000   0.000000   0.000000
     5  H    0.000000   0.000000   0.000000   0.000000   0.000000   0.000000
     6  H    0.000000   0.000000   0.000000   0.000000   0.000000   0.000000
     7  H    0.922944   0.000000   0.000000   0.000000   0.000000   0.000000
     8  H    0.000000   0.921604   0.000000   0.000000   0.000000   0.000000
     9  H    0.000000   0.000000   0.921620   0.000000   0.000000   0.000000
    10  H    0.000000   0.000000   0.000000   0.922941   0.000000   0.000000
    11  H    0.000000   0.000000   0.000000   0.000000   0.888217   0.000000
    12  H    0.000000   0.000000   0.000000   0.000000   0.000000   0.888242
 Mulliken charges:
               1
     1  C   -0.179077
     2  C   -0.106315
     3  C   -0.179056
     4  C   -0.226743
     5  H    0.078391
     6  H    0.078367
     7  H    0.077056
     8  H    0.078396
     9  H    0.078380
    10  H    0.077059
    11  H    0.111783
    12  H    0.111758
 Sum of Mulliken charges =  -0.00000
 Mulliken charges with hydrogens summed into heavy atoms:
               1
     1  C    0.054737
     2  C   -0.106315
     3  C    0.054780
     4  C   -0.003202
 Charge=              0.0000 electrons
 Dipole moment (field-independent basis, Debye):
    X=              0.0001    Y=             -0.3698    Z=             -0.0004  Tot=              0.3698
 N-N= 8.042508360091D+01 E-N=-1.300350956152D+02  KE=-1.484622106301D+01
 Calling FoFJK, ICntrl=      2127 FMM=F ISym2X=0 I1Cent= 0 IOpClX= 0 NMat=1 NMatS=1 NMatT=0.
 ***** Axes restored to original set *****
 -------------------------------------------------------------------
 Center     Atomic                   Forces (Hartrees/Bohr)
 Number     Number              X              Y              Z
 -------------------------------------------------------------------
      1        6           0.024811117    0.014354697   -0.005794375
      2        6           0.002741599   -0.016121982    0.009584407
      3        6          -0.028193533    0.005157237   -0.005741882
      4        6           0.001843409   -0.010755076    0.006410820
      5        1           0.004277225   -0.011280590   -0.008144574
      6        1           0.002022450    0.001696127    0.014334772
      7        1          -0.012694902    0.007935196   -0.005869208
      8        1          -0.002482750    0.000960419    0.014275926
      9        1          -0.000201530   -0.012142514   -0.008124983
     10        1           0.009318923    0.011755443   -0.005910182
     11        1           0.004360701    0.005102062   -0.002506724
     12        1          -0.005802707    0.003338980   -0.002513999
 -------------------------------------------------------------------
 Cartesian Forces:  Max     0.028193533 RMS     0.010136371

 GradGradGradGradGradGradGradGradGradGradGradGradGradGradGradGradGradGrad
 Berny optimization.
 FormGI is forming the generalized inverse of G from B-inverse, IUseBI=4.
 Internal  Forces:  Max     0.022976970 RMS     0.007650455
 Search for a local minimum.
 Step number   1 out of a maximum of   55
 All quantities printed in internal units (Hartrees-Bohrs-Radians)
 Mixed Optimization -- RFO/linear search
 Second derivative matrix not updated -- first step.
 ITU=  0
     Eigenvalues ---    0.00649   0.00650   0.01273   0.02927   0.02927
     Eigenvalues ---    0.07002   0.07003   0.07203   0.07204   0.16000
     Eigenvalues ---    0.16000   0.16000   0.16000   0.16000   0.16000
     Eigenvalues ---    0.16000   0.16000   0.25000   0.25000   0.31468
     Eigenvalues ---    0.31477   0.33787   0.33794   0.33797   0.33804
     Eigenvalues ---    0.34318   0.34325   0.35117   0.35122   0.57971
 RFO step:  Lambda=-8.34615969D-03 EMin= 6.49057281D-03
 Linear search not attempted -- first point.
 Iteration  1 RMS(Cart)=  0.04304514 RMS(Int)=  0.00043823
 Iteration  2 RMS(Cart)=  0.00047133 RMS(Int)=  0.00011014
 Iteration  3 RMS(Cart)=  0.00000021 RMS(Int)=  0.00011014
 Variable       Old X    -DE/DX   Delta X   Delta X   Delta X     New X
                                 (Linear)    (Quad)   (Total)
    R1        2.85129  -0.02298   0.00000  -0.07113  -0.07113   2.78016
    R2        2.07679   0.01395   0.00000   0.04029   0.04029   2.11708
    R3        2.07674   0.01397   0.00000   0.04035   0.04035   2.11708
    R4        2.06796   0.01583   0.00000   0.04503   0.04503   2.11299
    R5        2.85110  -0.02292   0.00000  -0.07093  -0.07093   2.78017
    R6        2.52583  -0.00273   0.00000  -0.00464  -0.00464   2.52119
    R7        2.07691   0.01392   0.00000   0.04020   0.04020   2.11710
    R8        2.07662   0.01401   0.00000   0.04046   0.04046   2.11708
    R9        2.06785   0.01588   0.00000   0.04515   0.04515   2.11300
   R10        2.05477   0.00701   0.00000   0.01948   0.01948   2.07426
   R11        2.05485   0.00699   0.00000   0.01944   0.01944   2.07429
    A1        1.93807  -0.00402   0.00000  -0.02294  -0.02314   1.91493
    A2        1.93806  -0.00401   0.00000  -0.02286  -0.02306   1.91500
    A3        1.95294  -0.00244   0.00000  -0.01645  -0.01668   1.93625
    A4        1.85708   0.00487   0.00000   0.03272   0.03256   1.88964
    A5        1.88705   0.00315   0.00000   0.01685   0.01662   1.90367
    A6        1.88697   0.00315   0.00000   0.01693   0.01670   1.90367
    A7        2.02062  -0.00377   0.00000  -0.01458  -0.01458   2.00604
    A8        2.13114   0.00190   0.00000   0.00736   0.00736   2.13851
    A9        2.13142   0.00186   0.00000   0.00721   0.00721   2.13864
   A10        1.93809  -0.00402   0.00000  -0.02295  -0.02315   1.91494
   A11        1.93794  -0.00399   0.00000  -0.02275  -0.02295   1.91499
   A12        1.95291  -0.00243   0.00000  -0.01641  -0.01664   1.93627
   A13        1.85714   0.00486   0.00000   0.03265   0.03249   1.88962
   A14        1.88694   0.00315   0.00000   0.01689   0.01666   1.90360
   A15        1.88715   0.00313   0.00000   0.01682   0.01659   1.90374
   A16        2.12491   0.00101   0.00000   0.00602   0.00602   2.13092
   A17        2.12457   0.00105   0.00000   0.00625   0.00625   2.13083
   A18        2.03371  -0.00207   0.00000  -0.01227  -0.01227   2.02143
    D1       -1.03238  -0.00047   0.00000  -0.00593  -0.00590  -1.03828
    D2        2.10879  -0.00046   0.00000  -0.00555  -0.00552   2.10326
    D3        1.03020   0.00045   0.00000   0.00552   0.00549   1.03570
    D4       -2.11182   0.00046   0.00000   0.00590   0.00587  -2.10595
    D5        3.14045   0.00000   0.00000  -0.00013  -0.00013   3.14032
    D6       -0.00157   0.00001   0.00000   0.00025   0.00025  -0.00132
    D7       -1.03354  -0.00045   0.00000  -0.00547  -0.00545  -1.03898
    D8        1.02905   0.00046   0.00000   0.00595   0.00592   1.03497
    D9        3.13943   0.00001   0.00000   0.00026   0.00026   3.13969
   D10        2.10849  -0.00046   0.00000  -0.00585  -0.00582   2.10266
   D11       -2.11211   0.00046   0.00000   0.00557   0.00554  -2.10657
   D12       -0.00173  -0.00000   0.00000  -0.00012  -0.00012  -0.00185
   D13       -3.14120  -0.00001   0.00000  -0.00041  -0.00042   3.14157
   D14        0.00014   0.00000   0.00000   0.00002   0.00002   0.00016
   D15       -0.00007  -0.00000   0.00000  -0.00002  -0.00001  -0.00008
   D16        3.14127   0.00001   0.00000   0.00042   0.00042  -3.14149
         Item               Value     Threshold  Converged?
 Maximum Force            0.022977     0.000450     NO 
 RMS     Force            0.007650     0.000300     NO 
 Maximum Displacement     0.119347     0.001800     NO 
 RMS     Displacement     0.043300     0.001200     NO 
 Predicted change in Energy=-4.290344D-03
 GradGradGradGradGradGradGradGradGradGradGradGradGradGradGradGradGradGrad

                          Input orientation:                          
 ---------------------------------------------------------------------
 Center     Atomic      Atomic             Coordinates (Angstroms)
 Number     Number       Type             X           Y           Z
 ---------------------------------------------------------------------
      1          6           0        0.995512    0.997373    1.380380
      2          6           0        2.100950    1.881657    0.979798
      3          6           0        3.439580    1.422311    1.381678
      4          6           0        1.904253    3.014530    0.303131
      5          1           0        1.141056   -0.017735    0.929308
      6          1           0        0.983971    0.887882    2.495269
      7          1           0        0.012105    1.409301    1.043511
      8          1           0        3.487246    1.326252    2.496857
      9          1           0        3.644362    0.416190    0.933478
     10          1           0        4.226888    2.140391    1.042899
     11          1           0        2.734432    3.669088    0.007849
     12          1           0        0.902045    3.350360    0.007039
 ---------------------------------------------------------------------
                    Distance matrix (angstroms):
                    1          2          3          4          5
     1  C    0.000000
     2  C    1.471196   0.000000
     3  C    2.480734   1.471203   0.000000
     4  C    2.460732   1.334156   2.460825   0.000000
     5  H    1.120310   2.128764   2.749834   3.188919   0.000000
     6  H    1.120312   2.128822   2.748766   3.189831   1.815778
     7  H    1.118148   2.142534   3.444142   2.589430   1.823185
     8  H    2.750167   2.128793   1.120323   3.188822   3.125399
     9  H    2.748436   2.128816   1.120311   3.190093   2.540640
    10  H    3.444150   2.142553   1.118151   2.589596   3.767329
    11  H    3.470697   2.130937   2.726288   1.097649   4.120752
    12  H    2.726050   2.130897   3.470748   1.097667   3.500253
                    6          7          8          9         10
     6  H    0.000000
     7  H    1.823185   0.000000
     8  H    2.541368   3.767720   0.000000
     9  H    3.120795   3.767183   1.815778   0.000000
    10  H    3.767580   4.277720   1.823153   1.823233   0.000000
    11  H    4.121465   3.686501   3.500110   3.502300   2.373956
    12  H    3.501685   2.373600   4.120615   4.121644   3.686680
                   11         12
    11  H    0.000000
    12  H    1.859901   0.000000
 Stoichiometry    C4H8
 Framework group  C1[X(C4H8)]
 Deg. of freedom    30
 Full point group                 C1      NOp   1
 Largest Abelian subgroup         C1      NOp   1
 Largest concise Abelian subgroup C1      NOp   1
                         Standard orientation:                         
 ---------------------------------------------------------------------
 Center     Atomic      Atomic             Coordinates (Angstroms)
 Number     Number       Type             X           Y           Z
 ---------------------------------------------------------------------
      1          6           0       -1.239941   -0.676478    0.000004
      2          6           0       -0.000044    0.115400    0.000010
      3          6           0        1.240793   -0.675019   -0.000013
      4          6           0       -0.000916    1.449556   -0.000024
      5          1           0       -1.270289   -1.331161   -0.908601
      6          1           0       -1.269091   -1.333203    0.907176
      7          1           0       -2.138820   -0.011443    0.001346
      8          1           0        1.272273   -1.329174    0.908950
      9          1           0        1.270350   -1.332222   -0.906825
     10          1           0        2.138898   -0.008936   -0.001995
     11          1           0        0.928616    2.033337    0.000003
     12          1           0       -0.931284    2.032042    0.000086
 ---------------------------------------------------------------------
 Rotational constants (GHZ):      9.1715965      8.7559271      4.7598492
 Standard basis: VSTO-6G (5D, 7F)
 There are    24 symmetry adapted cartesian basis functions of A   symmetry.
 There are    24 symmetry adapted basis functions of A   symmetry.
    24 basis functions,   144 primitive gaussians,    24 cartesian basis functions
    12 alpha electrons       12 beta electrons
       nuclear repulsion energy        80.7960986400 Hartrees.
 Integral buffers will be    131072 words long.
 Regular integral format.
 Two-electron integral symmetry is turned off.
 Do NDO integrals.
 One-electron integrals computed using PRISM.
 NBasis=    24 RedAO= F EigKep=  0.00D+00  NBF=    24
 NBsUse=    24 1.00D-04 EigRej=  0.00D+00 NBFU=    24
 Initial guess from the checkpoint file:  "2-methyl-1-Propene-opt.chk"
 B after Tr=     0.000000    0.000000   -0.000000
         Rot=    1.000000    0.000007    0.000008   -0.000113 Ang=   0.01 deg.
 Overlap will be assumed to be unity.
 Keep J ints in memory in canonical form, NReq=889405.
 Requested convergence on RMS density matrix=1.00D-08 within 128 cycles.
 Requested convergence on MAX density matrix=1.00D-06.
 Requested convergence on             energy=1.00D-06.
 No special actions if energy rises.
 SCF Done:  E(RAM1) = -0.149350703279E-02 A.U. after   10 cycles
            NFock=  9  Conv=0.56D-08     -V/T= 0.9999
 Calling FoFJK, ICntrl=      2127 FMM=F ISym2X=0 I1Cent= 0 IOpClX= 0 NMat=1 NMatS=1 NMatT=0.
 ***** Axes restored to original set *****
 -------------------------------------------------------------------
 Center     Atomic                   Forces (Hartrees/Bohr)
 Number     Number              X              Y              Z
 -------------------------------------------------------------------
      1        6          -0.007715241   -0.005601414    0.002470186
      2        6          -0.001065283    0.006166929   -0.003688990
      3        6           0.009143163   -0.002658797    0.002477341
      4        6          -0.000662042    0.003795104   -0.002250374
      5        1          -0.001618791    0.000308040    0.000641341
      6        1          -0.001469856   -0.000534627   -0.000824195
      7        1          -0.000787482   -0.001964190    0.001056028
      8        1           0.001560461   -0.000012307   -0.000826003
      9        1           0.001421300    0.000844796    0.000638340
     10        1           0.001398636   -0.001583906    0.001056879
     11        1          -0.000846281    0.000490338   -0.000376542
     12        1           0.000641416    0.000750035   -0.000374011
 -------------------------------------------------------------------
 Cartesian Forces:  Max     0.009143163 RMS     0.002849877

 GradGradGradGradGradGradGradGradGradGradGradGradGradGradGradGradGradGrad
 Berny optimization.
 Using GEDIIS/GDIIS optimizer.
 FormGI is forming the generalized inverse of G from B-inverse, IUseBI=4.
 Internal  Forces:  Max     0.014303562 RMS     0.003330971
 Search for a local minimum.
 Step number   2 out of a maximum of   55
 All quantities printed in internal units (Hartrees-Bohrs-Radians)
 Mixed Optimization -- RFO/linear search
 Update second derivatives using D2CorX and points    1    2
 DE= -2.90D-03 DEPred=-4.29D-03 R= 6.76D-01
 TightC=F SS=  1.41D+00  RLast= 1.68D-01 DXNew= 5.0454D-01 5.0338D-01
 Trust test= 6.76D-01 RLast= 1.68D-01 DXMaxT set to 5.03D-01
 ITU=  1  0
 Use linear search instead of GDIIS.
     Eigenvalues ---    0.00649   0.00650   0.01283   0.02927   0.02927
     Eigenvalues ---    0.07247   0.07247   0.07421   0.07435   0.15767
     Eigenvalues ---    0.16000   0.16000   0.16000   0.16000   0.16000
     Eigenvalues ---    0.16000   0.16791   0.25000   0.25051   0.30115
     Eigenvalues ---    0.31473   0.33790   0.33796   0.33802   0.34114
     Eigenvalues ---    0.34322   0.35058   0.35120   0.45521   0.59602
 RFO step:  Lambda=-4.62531943D-04 EMin= 6.49057280D-03
 Quartic linear search produced a step of -0.23659.
 Iteration  1 RMS(Cart)=  0.01758638 RMS(Int)=  0.00003022
 Iteration  2 RMS(Cart)=  0.00002528 RMS(Int)=  0.00001471
 Iteration  3 RMS(Cart)=  0.00000000 RMS(Int)=  0.00001471
 Variable       Old X    -DE/DX   Delta X   Delta X   Delta X     New X
                                 (Linear)    (Quad)   (Total)
    R1        2.78016   0.01430   0.01683   0.01287   0.02970   2.80985
    R2        2.11708  -0.00075  -0.00953   0.01061   0.00108   2.11816
    R3        2.11708  -0.00075  -0.00955   0.01062   0.00107   2.11815
    R4        2.11299  -0.00035  -0.01065   0.01296   0.00230   2.11530
    R5        2.78017   0.01428   0.01678   0.01287   0.02965   2.80982
    R6        2.52119   0.00593   0.00110   0.00641   0.00750   2.52869
    R7        2.11710  -0.00075  -0.00951   0.01057   0.00105   2.11816
    R8        2.11708  -0.00075  -0.00957   0.01065   0.00107   2.11816
    R9        2.11300  -0.00035  -0.01068   0.01299   0.00231   2.11531
   R10        2.07426  -0.00025  -0.00461   0.00540   0.00079   2.07505
   R11        2.07429  -0.00026  -0.00460   0.00537   0.00077   2.07506
    A1        1.91493   0.00146   0.00548  -0.00035   0.00515   1.92007
    A2        1.91500   0.00146   0.00546  -0.00035   0.00513   1.92013
    A3        1.93625   0.00268   0.00395   0.00698   0.01097   1.94722
    A4        1.88964  -0.00133  -0.00770   0.00475  -0.00294   1.88670
    A5        1.90367  -0.00220  -0.00393  -0.00558  -0.00948   1.89419
    A6        1.90367  -0.00220  -0.00395  -0.00554  -0.00946   1.89421
    A7        2.00604   0.00167   0.00345   0.00056   0.00401   2.01005
    A8        2.13851  -0.00082  -0.00174  -0.00021  -0.00195   2.13655
    A9        2.13864  -0.00085  -0.00171  -0.00035  -0.00205   2.13658
   A10        1.91494   0.00145   0.00548  -0.00038   0.00512   1.92006
   A11        1.91499   0.00146   0.00543  -0.00029   0.00516   1.92015
   A12        1.93627   0.00267   0.00394   0.00698   0.01095   1.94721
   A13        1.88962  -0.00133  -0.00769   0.00474  -0.00293   1.88669
   A14        1.90360  -0.00220  -0.00394  -0.00552  -0.00943   1.89417
   A15        1.90374  -0.00220  -0.00393  -0.00561  -0.00950   1.89424
   A16        2.13092   0.00070  -0.00142   0.00526   0.00383   2.13476
   A17        2.13083   0.00071  -0.00148   0.00539   0.00391   2.13474
   A18        2.02143  -0.00141   0.00290  -0.01064  -0.00774   2.01369
    D1       -1.03828  -0.00007   0.00140  -0.00281  -0.00142  -1.03970
    D2        2.10326  -0.00007   0.00131  -0.00252  -0.00122   2.10205
    D3        1.03570   0.00007  -0.00130   0.00256   0.00127   1.03696
    D4       -2.10595   0.00007  -0.00139   0.00286   0.00147  -2.10448
    D5        3.14032  -0.00000   0.00003  -0.00010  -0.00007   3.14025
    D6       -0.00132   0.00000  -0.00006   0.00019   0.00013  -0.00119
    D7       -1.03898  -0.00007   0.00129  -0.00239  -0.00111  -1.04009
    D8        1.03497   0.00007  -0.00140   0.00299   0.00159   1.03657
    D9        3.13969  -0.00000  -0.00006   0.00028   0.00021   3.13990
   D10        2.10266  -0.00007   0.00138  -0.00269  -0.00131   2.10135
   D11       -2.10657   0.00007  -0.00131   0.00270   0.00139  -2.10518
   D12       -0.00185  -0.00000   0.00003  -0.00002   0.00001  -0.00184
   D13        3.14157   0.00000   0.00010  -0.00012  -0.00003   3.14154
   D14        0.00016  -0.00000  -0.00000  -0.00014  -0.00015   0.00001
   D15       -0.00008   0.00001   0.00000   0.00019   0.00019   0.00011
   D16       -3.14149  -0.00000  -0.00010   0.00017   0.00007  -3.14142
         Item               Value     Threshold  Converged?
 Maximum Force            0.014304     0.000450     NO 
 RMS     Force            0.003331     0.000300     NO 
 Maximum Displacement     0.042973     0.001800     NO 
 RMS     Displacement     0.017588     0.001200     NO 
 Predicted change in Energy=-5.547602D-04
 GradGradGradGradGradGradGradGradGradGradGradGradGradGradGradGradGradGrad

                          Input orientation:                          
 ---------------------------------------------------------------------
 Center     Atomic      Atomic             Coordinates (Angstroms)
 Number     Number       Type             X           Y           Z
 ---------------------------------------------------------------------
      1          6           0        0.981164    0.993158    1.381387
      2          6           0        2.100348    1.884994    0.977704
      3          6           0        3.454465    1.423216    1.382650
      4          6           0        1.903101    3.021289    0.299095
      5          1           0        1.119833   -0.024048    0.931462
      6          1           0        0.962926    0.881158    2.496507
      7          1           0       -0.007981    1.397639    1.048261
      8          1           0        3.509253    1.326906    2.498041
      9          1           0        3.666523    0.417519    0.935460
     10          1           0        4.249628    2.136327    1.047718
     11          1           0        2.730889    3.678689    0.001865
     12          1           0        0.902252    3.360753    0.001049
 ---------------------------------------------------------------------
                    Distance matrix (angstroms):
                    1          2          3          4          5
     1  C    0.000000
     2  C    1.486910   0.000000
     3  C    2.510412   1.486894   0.000000
     4  C    2.476820   1.338126   2.476824   0.000000
     5  H    1.120880   2.146623   2.783640   3.207410   0.000000
     6  H    1.120878   2.146666   2.782493   3.208225   1.814768
     7  H    1.119368   2.165073   3.478649   2.617198   1.818461
     8  H    2.783799   2.146602   1.120881   3.207183   3.160471
     9  H    2.782330   2.146665   1.120880   3.208463   2.584691
    10  H    3.478653   2.165058   1.119371   2.617208   3.804781
    11  H    3.489512   2.137097   2.741768   1.098068   4.143660
    12  H    2.741727   2.137090   3.489508   1.098075   3.517086
                    6          7          8          9         10
     6  H    0.000000
     7  H    1.818468   0.000000
     8  H    2.585048   3.804970   0.000000
     9  H    3.156147   3.804646   1.814766   0.000000
    10  H    3.804845   4.321214   1.818449   1.818492   0.000000
    11  H    4.144286   3.714773   3.516764   3.518840   2.404008
    12  H    3.518435   2.403954   4.143424   4.144508   3.714790
                   11         12
    11  H    0.000000
    12  H    1.856071   0.000000
 Stoichiometry    C4H8
 Framework group  C1[X(C4H8)]
 Deg. of freedom    30
 Full point group                 C1      NOp   1
 Largest Abelian subgroup         C1      NOp   1
 Largest concise Abelian subgroup C1      NOp   1
                         Standard orientation:                         
 ---------------------------------------------------------------------
 Center     Atomic      Atomic             Coordinates (Angstroms)
 Number     Number       Type             X           Y           Z
 ---------------------------------------------------------------------
      1          6           0       -1.255186   -0.678988    0.000011
      2          6           0        0.000007    0.118128   -0.000062
      3          6           0        1.255226   -0.678916    0.000003
      4          6           0       -0.000046    1.456254   -0.000004
      5          1           0       -1.293035   -1.334999   -0.908058
      6          1           0       -1.291759   -1.336962    0.906709
      7          1           0       -2.160604   -0.020808    0.001351
      8          1           0        1.293288   -1.334465    0.908398
      9          1           0        1.291655   -1.337355   -0.906365
     10          1           0        2.160609   -0.020684   -0.001816
     11          1           0        0.927957    2.043249   -0.000012
     12          1           0       -0.928114    2.043160    0.000109
 ---------------------------------------------------------------------
 Rotational constants (GHZ):      9.0929910      8.5640838      4.6815111
 Standard basis: VSTO-6G (5D, 7F)
 There are    24 symmetry adapted cartesian basis functions of A   symmetry.
 There are    24 symmetry adapted basis functions of A   symmetry.
    24 basis functions,   144 primitive gaussians,    24 cartesian basis functions
    12 alpha electrons       12 beta electrons
       nuclear repulsion energy        80.4962645874 Hartrees.
 Integral buffers will be    131072 words long.
 Regular integral format.
 Two-electron integral symmetry is turned off.
 Do NDO integrals.
 One-electron integrals computed using PRISM.
 NBasis=    24 RedAO= F EigKep=  0.00D+00  NBF=    24
 NBsUse=    24 1.00D-04 EigRej=  0.00D+00 NBFU=    24
 Initial guess from the checkpoint file:  "2-methyl-1-Propene-opt.chk"
 B after Tr=    -0.000000   -0.000000    0.000000
         Rot=    1.000000   -0.000002    0.000005    0.000290 Ang=  -0.03 deg.
 Overlap will be assumed to be unity.
 Keep J ints in memory in canonical form, NReq=889405.
 Requested convergence on RMS density matrix=1.00D-08 within 128 cycles.
 Requested convergence on MAX density matrix=1.00D-06.
 Requested convergence on             energy=1.00D-06.
 No special actions if energy rises.
 SCF Done:  E(RAM1) = -0.190480046713E-02 A.U. after    9 cycles
            NFock=  8  Conv=0.65D-08     -V/T= 0.9999
 Calling FoFJK, ICntrl=      2127 FMM=F ISym2X=0 I1Cent= 0 IOpClX= 0 NMat=1 NMatS=1 NMatT=0.
 ***** Axes restored to original set *****
 -------------------------------------------------------------------
 Center     Atomic                   Forces (Hartrees/Bohr)
 Number     Number              X              Y              Z
 -------------------------------------------------------------------
      1        6           0.001662526    0.000886520   -0.000349854
      2        6          -0.000022616    0.000069549   -0.000028519
      3        6          -0.001853754    0.000271902   -0.000349508
      4        6           0.000468018   -0.002716133    0.001623765
      5        1          -0.000288750    0.001526856    0.000573943
      6        1          -0.000065900    0.000250418   -0.001638912
      7        1           0.001510339   -0.000604397    0.000500557
      8        1          -0.000021565    0.000251257   -0.001636283
      9        1          -0.000242414    0.001541647    0.000569209
     10        1          -0.001218867   -0.001078965    0.000502751
     11        1          -0.000639486   -0.000316588    0.000115550
     12        1           0.000712470   -0.000082066    0.000117303
 -------------------------------------------------------------------
 Cartesian Forces:  Max     0.002716133 RMS     0.000991517

 GradGradGradGradGradGradGradGradGradGradGradGradGradGradGradGradGradGrad
 Berny optimization.
 Using GEDIIS/GDIIS optimizer.
 FormGI is forming the generalized inverse of G from B-inverse, IUseBI=4.
 Internal  Forces:  Max     0.003666279 RMS     0.001128229
 Search for a local minimum.
 Step number   3 out of a maximum of   55
 All quantities printed in internal units (Hartrees-Bohrs-Radians)
 Mixed Optimization -- RFO/linear search
 Update second derivatives using D2CorX and points    1    2    3
 DE= -4.11D-04 DEPred=-5.55D-04 R= 7.41D-01
 TightC=F SS=  1.41D+00  RLast= 5.18D-02 DXNew= 8.4658D-01 1.5544D-01
 Trust test= 7.41D-01 RLast= 5.18D-02 DXMaxT set to 5.03D-01
 ITU=  1  1  0
 Use linear search instead of GDIIS.
     Eigenvalues ---    0.00649   0.00650   0.01281   0.02927   0.02927
     Eigenvalues ---    0.07154   0.07155   0.07299   0.07367   0.15414
     Eigenvalues ---    0.16000   0.16000   0.16000   0.16000   0.16000
     Eigenvalues ---    0.16006   0.16493   0.25000   0.25043   0.31473
     Eigenvalues ---    0.33790   0.33796   0.33802   0.34086   0.34322
     Eigenvalues ---    0.34983   0.35120   0.35720   0.48387   0.70371
 RFO step:  Lambda=-5.42847783D-05 EMin= 6.49057184D-03
 Quartic linear search produced a step of -0.19447.
 Iteration  1 RMS(Cart)=  0.00316472 RMS(Int)=  0.00000255
 Iteration  2 RMS(Cart)=  0.00000179 RMS(Int)=  0.00000222
 Iteration  3 RMS(Cart)=  0.00000000 RMS(Int)=  0.00000222
 Variable       Old X    -DE/DX   Delta X   Delta X   Delta X     New X
                                 (Linear)    (Quad)   (Total)
    R1        2.80985  -0.00360  -0.00578  -0.00014  -0.00592   2.80394
    R2        2.11816  -0.00165  -0.00021  -0.00400  -0.00421   2.11394
    R3        2.11815  -0.00165  -0.00021  -0.00401  -0.00422   2.11393
    R4        2.11530  -0.00170  -0.00045  -0.00383  -0.00428   2.11102
    R5        2.80982  -0.00359  -0.00577  -0.00013  -0.00589   2.80393
    R6        2.52869  -0.00367  -0.00146  -0.00277  -0.00423   2.52446
    R7        2.11816  -0.00165  -0.00021  -0.00401  -0.00421   2.11395
    R8        2.11816  -0.00166  -0.00021  -0.00401  -0.00422   2.11393
    R9        2.11531  -0.00170  -0.00045  -0.00383  -0.00428   2.11102
   R10        2.07505  -0.00070  -0.00015  -0.00160  -0.00175   2.07330
   R11        2.07506  -0.00071  -0.00015  -0.00161  -0.00176   2.07330
    A1        1.92007   0.00006  -0.00100   0.00201   0.00101   1.92109
    A2        1.92013   0.00005  -0.00100   0.00199   0.00099   1.92113
    A3        1.94722  -0.00008  -0.00213   0.00226   0.00013   1.94735
    A4        1.88670   0.00007   0.00057  -0.00050   0.00007   1.88677
    A5        1.89419  -0.00005   0.00184  -0.00298  -0.00113   1.89306
    A6        1.89421  -0.00005   0.00184  -0.00298  -0.00113   1.89307
    A7        2.01005  -0.00014  -0.00078   0.00078   0.00000   2.01005
    A8        2.13655   0.00007   0.00038  -0.00037   0.00000   2.13656
    A9        2.13658   0.00007   0.00040  -0.00041  -0.00001   2.13658
   A10        1.92006   0.00006  -0.00100   0.00200   0.00101   1.92107
   A11        1.92015   0.00006  -0.00100   0.00200   0.00100   1.92115
   A12        1.94721  -0.00008  -0.00213   0.00226   0.00014   1.94735
   A13        1.88669   0.00007   0.00057  -0.00050   0.00007   1.88677
   A14        1.89417  -0.00005   0.00183  -0.00296  -0.00112   1.89305
   A15        1.89424  -0.00005   0.00185  -0.00301  -0.00115   1.89308
   A16        2.13476   0.00012  -0.00075   0.00133   0.00058   2.13534
   A17        2.13474   0.00012  -0.00076   0.00135   0.00059   2.13533
   A18        2.01369  -0.00023   0.00151  -0.00268  -0.00118   2.01252
    D1       -1.03970  -0.00007   0.00028  -0.00081  -0.00053  -1.04023
    D2        2.10205  -0.00008   0.00024  -0.00098  -0.00074   2.10131
    D3        1.03696   0.00008  -0.00025   0.00104   0.00080   1.03776
    D4       -2.10448   0.00008  -0.00029   0.00088   0.00059  -2.10388
    D5        3.14025   0.00000   0.00001   0.00011   0.00013   3.14038
    D6       -0.00119  -0.00000  -0.00003  -0.00006  -0.00008  -0.00127
    D7       -1.04009  -0.00008   0.00022  -0.00097  -0.00076  -1.04085
    D8        1.03657   0.00008  -0.00031   0.00089   0.00058   1.03715
    D9        3.13990  -0.00000  -0.00004  -0.00007  -0.00011   3.13979
   D10        2.10135  -0.00007   0.00026  -0.00080  -0.00055   2.10080
   D11       -2.10518   0.00008  -0.00027   0.00105   0.00079  -2.10439
   D12       -0.00184   0.00000  -0.00000   0.00010   0.00010  -0.00175
   D13        3.14154   0.00000   0.00001   0.00017   0.00018  -3.14147
   D14        0.00001  -0.00000   0.00003   0.00003   0.00006   0.00007
   D15        0.00011   0.00000  -0.00004  -0.00001  -0.00005   0.00007
   D16       -3.14142  -0.00000  -0.00001  -0.00015  -0.00016  -3.14158
         Item               Value     Threshold  Converged?
 Maximum Force            0.003666     0.000450     NO 
 RMS     Force            0.001128     0.000300     NO 
 Maximum Displacement     0.008317     0.001800     NO 
 RMS     Displacement     0.003166     0.001200     NO 
 Predicted change in Energy=-5.156419D-05
 GradGradGradGradGradGradGradGradGradGradGradGradGradGradGradGradGradGrad

                          Input orientation:                          
 ---------------------------------------------------------------------
 Center     Atomic      Atomic             Coordinates (Angstroms)
 Number     Number       Type             X           Y           Z
 ---------------------------------------------------------------------
      1          6           0        0.983631    0.994362    1.380951
      2          6           0        2.100448    1.884372    0.978203
      3          6           0        3.451736    1.423519    1.382216
      4          6           0        1.903541    3.018733    0.300669
      5          1           0        1.120768   -0.020955    0.931838
      6          1           0        0.964061    0.882447    2.493813
      7          1           0       -0.003580    1.397880    1.048517
      8          1           0        3.507754    1.327684    2.495347
      9          1           0        3.664609    0.420147    0.935788
     10          1           0        4.245398    2.135082    1.047994
     11          1           0        2.730223    3.675931    0.003338
     12          1           0        0.903811    3.358398    0.002525
 ---------------------------------------------------------------------
                    Distance matrix (angstroms):
                    1          2          3          4          5
     1  C    0.000000
     2  C    1.483780   0.000000
     3  C    2.505138   1.483776   0.000000
     4  C    2.472109   1.335889   2.472117   0.000000
     5  H    1.118651   2.142941   2.778985   3.201689   0.000000
     6  H    1.118646   2.142965   2.777936   3.202534   1.811203
     7  H    1.117105   2.160683   3.471486   2.612193   1.814074
     8  H    2.779240   2.142928   1.118653   3.201525   3.156120
     9  H    2.777685   2.142977   1.118645   3.202715   2.581804
    10  H    3.471487   2.160679   1.117106   2.612207   3.798065
    11  H    3.484137   2.134634   2.737745   1.097141   4.137563
    12  H    2.737717   2.134629   3.484139   1.097143   3.511512
                    6          7          8          9         10
     6  H    0.000000
     7  H    1.814078   0.000000
     8  H    2.582365   3.798382   0.000000
     9  H    3.151843   3.797930   1.811201   0.000000
    10  H    3.798243   4.312456   1.814068   1.814086   0.000000
    11  H    4.138278   3.708854   3.511258   3.513213   2.400266
    12  H    3.512901   2.400227   4.137449   4.138393   3.708869
                   11         12
    11  H    0.000000
    12  H    1.853809   0.000000
 Stoichiometry    C4H8
 Framework group  C1[X(C4H8)]
 Deg. of freedom    30
 Full point group                 C1      NOp   1
 Largest Abelian subgroup         C1      NOp   1
 Largest concise Abelian subgroup C1      NOp   1
                         Standard orientation:                         
 ---------------------------------------------------------------------
 Center     Atomic      Atomic             Coordinates (Angstroms)
 Number     Number       Type             X           Y           Z
 ---------------------------------------------------------------------
      1          6           0       -1.252538   -0.677803   -0.000004
      2          6           0       -0.000001    0.117655    0.000021
      3          6           0        1.252600   -0.677695   -0.000008
      4          6           0       -0.000068    1.453544    0.000004
      5          1           0       -1.291563   -1.332399   -0.906294
      6          1           0       -1.290400   -1.334361    0.904908
      7          1           0       -2.156224   -0.021089    0.001280
      8          1           0        1.291964   -1.331873    0.906571
      9          1           0        1.290240   -1.334668   -0.904627
     10          1           0        2.156230   -0.020904   -0.001859
     11          1           0        0.926802    2.040595   -0.000095
     12          1           0       -0.927007    2.040491    0.000035
 ---------------------------------------------------------------------
 Rotational constants (GHZ):      9.1255053      8.5973810      4.6989450
 Standard basis: VSTO-6G (5D, 7F)
 There are    24 symmetry adapted cartesian basis functions of A   symmetry.
 There are    24 symmetry adapted basis functions of A   symmetry.
    24 basis functions,   144 primitive gaussians,    24 cartesian basis functions
    12 alpha electrons       12 beta electrons
       nuclear repulsion energy        80.5797676936 Hartrees.
 Integral buffers will be    131072 words long.
 Regular integral format.
 Two-electron integral symmetry is turned off.
 Do NDO integrals.
 One-electron integrals computed using PRISM.
 NBasis=    24 RedAO= F EigKep=  0.00D+00  NBF=    24
 NBsUse=    24 1.00D-04 EigRej=  0.00D+00 NBFU=    24
 Initial guess from the checkpoint file:  "2-methyl-1-Propene-opt.chk"
 B after Tr=    -0.000000    0.000000   -0.000000
         Rot=    1.000000   -0.000002    0.000000   -0.000007 Ang=  -0.00 deg.
 Overlap will be assumed to be unity.
 Keep J ints in memory in canonical form, NReq=889405.
 Requested convergence on RMS density matrix=1.00D-08 within 128 cycles.
 Requested convergence on MAX density matrix=1.00D-06.
 Requested convergence on             energy=1.00D-06.
 No special actions if energy rises.
 SCF Done:  E(RAM1) = -0.195677884716E-02 A.U. after    9 cycles
            NFock=  8  Conv=0.19D-08     -V/T= 0.9999
 Calling FoFJK, ICntrl=      2127 FMM=F ISym2X=0 I1Cent= 0 IOpClX= 0 NMat=1 NMatS=1 NMatT=0.
 ***** Axes restored to original set *****
 -------------------------------------------------------------------
 Center     Atomic                   Forces (Hartrees/Bohr)
 Number     Number              X              Y              Z
 -------------------------------------------------------------------
      1        6           0.000301833   -0.000000207    0.000034958
      2        6           0.000061498   -0.000369610    0.000212340
      3        6          -0.000281404   -0.000101700    0.000035326
      4        6           0.000001199   -0.000011225    0.000002839
      5        1          -0.000033007   -0.000000994   -0.000054923
      6        1          -0.000041523    0.000043639    0.000023304
      7        1          -0.000078591   -0.000002203   -0.000007156
      8        1           0.000023509    0.000054303    0.000022544
      9        1           0.000032022    0.000010668   -0.000056134
     10        1           0.000074455    0.000024207   -0.000006814
     11        1          -0.000057690    0.000171692   -0.000103236
     12        1          -0.000002301    0.000181430   -0.000103048
 -------------------------------------------------------------------
 Cartesian Forces:  Max     0.000369610 RMS     0.000116036

 GradGradGradGradGradGradGradGradGradGradGradGradGradGradGradGradGradGrad
 Berny optimization.
 Using GEDIIS/GDIIS optimizer.
 FormGI is forming the generalized inverse of G from B-inverse, IUseBI=4.
 Internal  Forces:  Max     0.000402168 RMS     0.000090587
 Search for a local minimum.
 Step number   4 out of a maximum of   55
 All quantities printed in internal units (Hartrees-Bohrs-Radians)
 Mixed Optimization -- En-DIIS/RFO-DIIS
 Update second derivatives using D2CorX and points    1    2    3    4
 DE= -5.20D-05 DEPred=-5.16D-05 R= 1.01D+00
 TightC=F SS=  1.41D+00  RLast= 1.47D-02 DXNew= 8.4658D-01 4.4146D-02
 Trust test= 1.01D+00 RLast= 1.47D-02 DXMaxT set to 5.03D-01
 ITU=  1  1  1  0
 Use linear search instead of GDIIS.
     Eigenvalues ---    0.00649   0.00650   0.01281   0.02927   0.02927
     Eigenvalues ---    0.07151   0.07151   0.07156   0.07354   0.14562
     Eigenvalues ---    0.15957   0.16000   0.16000   0.16000   0.16000
     Eigenvalues ---    0.16000   0.16605   0.25000   0.25076   0.31473
     Eigenvalues ---    0.33789   0.33796   0.33802   0.34020   0.34322
     Eigenvalues ---    0.34889   0.35120   0.36951   0.47888   0.72410
 RFO step:  Lambda=-1.45812943D-06 EMin= 6.49056573D-03
 Quartic linear search produced a step of -0.00454.
 Iteration  1 RMS(Cart)=  0.00058278 RMS(Int)=  0.00000019
 Iteration  2 RMS(Cart)=  0.00000020 RMS(Int)=  0.00000003
 Variable       Old X    -DE/DX   Delta X   Delta X   Delta X     New X
                                 (Linear)    (Quad)   (Total)
    R1        2.80394  -0.00014   0.00003  -0.00045  -0.00042   2.80352
    R2        2.11394   0.00002   0.00002  -0.00002   0.00000   2.11394
    R3        2.11393   0.00002   0.00002  -0.00002   0.00000   2.11394
    R4        2.11102   0.00007   0.00002   0.00015   0.00017   2.11119
    R5        2.80393  -0.00014   0.00003  -0.00044  -0.00042   2.80351
    R6        2.52446   0.00040   0.00002   0.00061   0.00063   2.52509
    R7        2.11395   0.00002   0.00002  -0.00002  -0.00000   2.11395
    R8        2.11393   0.00002   0.00002  -0.00002   0.00000   2.11393
    R9        2.11102   0.00007   0.00002   0.00015   0.00017   2.11119
   R10        2.07330   0.00009   0.00001   0.00023   0.00023   2.07353
   R11        2.07330   0.00009   0.00001   0.00022   0.00023   2.07353
    A1        1.92109   0.00001  -0.00000   0.00016   0.00016   1.92124
    A2        1.92113   0.00001  -0.00000   0.00017   0.00017   1.92129
    A3        1.94735   0.00003  -0.00000   0.00015   0.00015   1.94750
    A4        1.88677   0.00004  -0.00000   0.00054   0.00054   1.88731
    A5        1.89306  -0.00004   0.00001  -0.00052  -0.00051   1.89255
    A6        1.89307  -0.00004   0.00001  -0.00051  -0.00051   1.89256
    A7        2.01005  -0.00012  -0.00000  -0.00047  -0.00047   2.00958
    A8        2.13656   0.00006  -0.00000   0.00024   0.00024   2.13680
    A9        2.13658   0.00006   0.00000   0.00023   0.00023   2.13680
   A10        1.92107   0.00001  -0.00000   0.00017   0.00016   1.92124
   A11        1.92115   0.00001  -0.00000   0.00016   0.00016   1.92130
   A12        1.94735   0.00003  -0.00000   0.00015   0.00015   1.94750
   A13        1.88677   0.00004  -0.00000   0.00054   0.00054   1.88731
   A14        1.89305  -0.00004   0.00001  -0.00051  -0.00050   1.89255
   A15        1.89308  -0.00004   0.00001  -0.00052  -0.00052   1.89257
   A16        2.13534   0.00013  -0.00000   0.00089   0.00089   2.13623
   A17        2.13533   0.00013  -0.00000   0.00090   0.00090   2.13623
   A18        2.01252  -0.00026   0.00001  -0.00179  -0.00178   2.01073
    D1       -1.04023  -0.00003   0.00000  -0.00046  -0.00045  -1.04069
    D2        2.10131  -0.00003   0.00000  -0.00034  -0.00034   2.10097
    D3        1.03776   0.00003  -0.00000   0.00042   0.00041   1.03817
    D4       -2.10388   0.00003  -0.00000   0.00053   0.00053  -2.10336
    D5        3.14038  -0.00000  -0.00000  -0.00001  -0.00001   3.14036
    D6       -0.00127   0.00000   0.00000   0.00010   0.00010  -0.00117
    D7       -1.04085  -0.00003   0.00000  -0.00026  -0.00026  -1.04111
    D8        1.03715   0.00003  -0.00000   0.00061   0.00060   1.03775
    D9        3.13979   0.00000   0.00000   0.00016   0.00016   3.13995
   D10        2.10080  -0.00003   0.00000  -0.00038  -0.00038   2.10042
   D11       -2.10439   0.00003  -0.00000   0.00049   0.00049  -2.10390
   D12       -0.00175  -0.00000  -0.00000   0.00005   0.00004  -0.00170
   D13       -3.14147  -0.00000  -0.00000  -0.00011  -0.00011  -3.14158
   D14        0.00007   0.00000  -0.00000  -0.00000  -0.00000   0.00007
   D15        0.00007  -0.00000   0.00000   0.00001   0.00001   0.00008
   D16       -3.14158   0.00000   0.00000   0.00012   0.00012  -3.14146
         Item               Value     Threshold  Converged?
 Maximum Force            0.000402     0.000450     YES
 RMS     Force            0.000091     0.000300     YES
 Maximum Displacement     0.001900     0.001800     NO 
 RMS     Displacement     0.000583     0.001200     YES
 Predicted change in Energy=-7.300349D-07
 GradGradGradGradGradGradGradGradGradGradGradGradGradGradGradGradGradGrad

                          Input orientation:                          
 ---------------------------------------------------------------------
 Center     Atomic      Atomic             Coordinates (Angstroms)
 Number     Number       Type             X           Y           Z
 ---------------------------------------------------------------------
      1          6           0        0.984046    0.994153    1.381129
      2          6           0        2.100472    1.884209    0.978225
      3          6           0        3.451415    1.423173    1.382369
      4          6           0        1.903519    3.018864    0.300539
      5          1           0        1.120939   -0.021101    0.931797
      6          1           0        0.964213    0.882578    2.494021
      7          1           0       -0.003441    1.397347    1.048820
      8          1           0        3.507537    1.327601    2.495518
      9          1           0        3.664543    0.420011    0.935592
     10          1           0        4.245430    2.134594    1.048385
     11          1           0        2.729658    3.676767    0.002802
     12          1           0        0.904070    3.359403    0.002002
 ---------------------------------------------------------------------
                    Distance matrix (angstroms):
                    1          2          3          4          5
     1  C    0.000000
     2  C    1.483556   0.000000
     3  C    2.504391   1.483555   0.000000
     4  C    2.472360   1.336222   2.472361   0.000000
     5  H    1.118651   2.142860   2.778500   3.201923   0.000000
     6  H    1.118646   2.142892   2.777443   3.202714   1.811558
     7  H    1.117195   2.160663   3.471016   2.612612   1.813814
     8  H    2.778679   2.142854   1.118653   3.201746   3.155958
     9  H    2.777266   2.142898   1.118645   3.202895   2.581573
    10  H    3.471016   2.160663   1.117195   2.612615   3.797771
    11  H    3.484734   2.135554   2.739129   1.097264   4.138265
    12  H    2.739123   2.135553   3.484734   1.097265   3.512743
                    6          7          8          9         10
     6  H    0.000000
     7  H    1.813821   0.000000
     8  H    2.581965   3.797995   0.000000
     9  H    3.151896   3.797646   1.811557   0.000000
    10  H    3.797867   4.312359   1.813813   1.813821   0.000000
    11  H    4.138896   3.709412   3.512451   3.514337   2.401897
    12  H    3.514034   2.401888   4.138102   4.139061   3.709416
                   11         12
    11  H    0.000000
    12  H    1.852969   0.000000
 Stoichiometry    C4H8
 Framework group  C1[X(C4H8)]
 Deg. of freedom    30
 Full point group                 C1      NOp   1
 Largest Abelian subgroup         C1      NOp   1
 Largest concise Abelian subgroup C1      NOp   1
                         Standard orientation:                         
 ---------------------------------------------------------------------
 Center     Atomic      Atomic             Coordinates (Angstroms)
 Number     Number       Type             X           Y           Z
 ---------------------------------------------------------------------
      1          6           0       -1.252188   -0.677991    0.000003
      2          6           0       -0.000000    0.117600   -0.000026
      3          6           0        1.252203   -0.677965    0.000002
      4          6           0       -0.000016    1.453823   -0.000005
      5          1           0       -1.291455   -1.332374   -0.906430
      6          1           0       -1.290283   -1.334246    0.905127
      7          1           0       -2.156178   -0.021543    0.001257
      8          1           0        1.291681   -1.331956    0.906711
      9          1           0        1.290116   -1.334611   -0.904843
     10          1           0        2.156180   -0.021499   -0.001728
     11          1           0        0.926460    2.041726   -0.000039
     12          1           0       -0.926509    2.041702    0.000096
 ---------------------------------------------------------------------
 Rotational constants (GHZ):      9.1209385      8.6010109      4.6989307
 Standard basis: VSTO-6G (5D, 7F)
 There are    24 symmetry adapted cartesian basis functions of A   symmetry.
 There are    24 symmetry adapted basis functions of A   symmetry.
    24 basis functions,   144 primitive gaussians,    24 cartesian basis functions
    12 alpha electrons       12 beta electrons
       nuclear repulsion energy        80.5783339844 Hartrees.
 Integral buffers will be    131072 words long.
 Regular integral format.
 Two-electron integral symmetry is turned off.
 Do NDO integrals.
 One-electron integrals computed using PRISM.
 NBasis=    24 RedAO= F EigKep=  0.00D+00  NBF=    24
 NBsUse=    24 1.00D-04 EigRej=  0.00D+00 NBFU=    24
 Initial guess from the checkpoint file:  "2-methyl-1-Propene-opt.chk"
 B after Tr=     0.000000   -0.000000   -0.000000
         Rot=    1.000000   -0.000001    0.000003    0.000017 Ang=  -0.00 deg.
 Overlap will be assumed to be unity.
 Keep J ints in memory in canonical form, NReq=889405.
 Requested convergence on RMS density matrix=1.00D-08 within 128 cycles.
 Requested convergence on MAX density matrix=1.00D-06.
 Requested convergence on             energy=1.00D-06.
 No special actions if energy rises.
 SCF Done:  E(RAM1) = -0.195751413962E-02 A.U. after    7 cycles
            NFock=  6  Conv=0.89D-08     -V/T= 0.9999
 Calling FoFJK, ICntrl=      2127 FMM=F ISym2X=0 I1Cent= 0 IOpClX= 0 NMat=1 NMatS=1 NMatT=0.
 ***** Axes restored to original set *****
 -------------------------------------------------------------------
 Center     Atomic                   Forces (Hartrees/Bohr)
 Number     Number              X              Y              Z
 -------------------------------------------------------------------
      1        6           0.000013917   -0.000013667    0.000008234
      2        6          -0.000033185    0.000187910   -0.000107825
      3        6          -0.000007742   -0.000017706    0.000007969
      4        6           0.000041257   -0.000238036    0.000145455
      5        1          -0.000001886   -0.000013521   -0.000016010
      6        1          -0.000005282    0.000007754    0.000018768
      7        1          -0.000043785    0.000011666   -0.000011441
      8        1           0.000001968    0.000008269    0.000018428
      9        1           0.000006599   -0.000011797   -0.000016987
     10        1           0.000037142    0.000025992   -0.000010876
     11        1          -0.000027560    0.000022590   -0.000017814
     12        1           0.000018558    0.000030547   -0.000017900
 -------------------------------------------------------------------
 Cartesian Forces:  Max     0.000238036 RMS     0.000061858

 GradGradGradGradGradGradGradGradGradGradGradGradGradGradGradGradGradGrad
 Berny optimization.
 Using GEDIIS/GDIIS optimizer.
 FormGI is forming the generalized inverse of G from B-inverse, IUseBI=4.
 Internal  Forces:  Max     0.000217419 RMS     0.000037085
 Search for a local minimum.
 Step number   5 out of a maximum of   55
 All quantities printed in internal units (Hartrees-Bohrs-Radians)
 Mixed Optimization -- En-DIIS/RFO-DIIS
 Swapping is turned off.
 Update second derivatives using D2CorX and points    1    2    3    4    5
 DE= -7.35D-07 DEPred=-7.30D-07 R= 1.01D+00
 Trust test= 1.01D+00 RLast= 3.07D-03 DXMaxT set to 5.03D-01
 ITU=  0  1  1  1  0
     Eigenvalues ---    0.00649   0.00650   0.01282   0.02927   0.02928
     Eigenvalues ---    0.06550   0.07151   0.07152   0.07351   0.11897
     Eigenvalues ---    0.15875   0.16000   0.16000   0.16000   0.16000
     Eigenvalues ---    0.16000   0.16626   0.25000   0.25584   0.31473
     Eigenvalues ---    0.33789   0.33796   0.33802   0.33892   0.34322
     Eigenvalues ---    0.35119   0.35189   0.36699   0.54911   0.80919
 En-DIIS/RFO-DIIS IScMMF=        0 using points:     5    4
 RFO step:  Lambda=-8.92427412D-08.
 DidBck=F Rises=F RFO-DIIS coefs:    1.00725   -0.00725
 Iteration  1 RMS(Cart)=  0.00016409 RMS(Int)=  0.00000002
 Iteration  2 RMS(Cart)=  0.00000002 RMS(Int)=  0.00000000
 Variable       Old X    -DE/DX   Delta X   Delta X   Delta X     New X
                                 (Linear)    (Quad)   (Total)
    R1        2.80352   0.00003  -0.00000   0.00004   0.00004   2.80356
    R2        2.11394   0.00002   0.00000   0.00006   0.00006   2.11400
    R3        2.11394   0.00002   0.00000   0.00005   0.00005   2.11399
    R4        2.11119   0.00005   0.00000   0.00016   0.00016   2.11135
    R5        2.80351   0.00003  -0.00000   0.00005   0.00004   2.80356
    R6        2.52509  -0.00022   0.00000  -0.00033  -0.00032   2.52477
    R7        2.11395   0.00002  -0.00000   0.00005   0.00005   2.11400
    R8        2.11393   0.00002   0.00000   0.00006   0.00006   2.11399
    R9        2.11119   0.00005   0.00000   0.00016   0.00016   2.11135
   R10        2.07353  -0.00000   0.00000   0.00002   0.00002   2.07355
   R11        2.07353  -0.00000   0.00000   0.00002   0.00002   2.07355
    A1        1.92124  -0.00000   0.00000   0.00002   0.00002   1.92127
    A2        1.92129  -0.00000   0.00000   0.00001   0.00001   1.92131
    A3        1.94750   0.00001   0.00000   0.00006   0.00006   1.94756
    A4        1.88731   0.00001   0.00000   0.00017   0.00017   1.88748
    A5        1.89255  -0.00001  -0.00000  -0.00013  -0.00013   1.89241
    A6        1.89256  -0.00001  -0.00000  -0.00013  -0.00013   1.89243
    A7        2.00958   0.00003  -0.00000   0.00009   0.00009   2.00967
    A8        2.13680  -0.00002   0.00000  -0.00004  -0.00004   2.13676
    A9        2.13680  -0.00002   0.00000  -0.00005  -0.00005   2.13676
   A10        1.92124  -0.00000   0.00000   0.00001   0.00001   1.92125
   A11        1.92130  -0.00000   0.00000   0.00002   0.00002   1.92132
   A12        1.94750   0.00001   0.00000   0.00006   0.00006   1.94756
   A13        1.88731   0.00001   0.00000   0.00017   0.00018   1.88748
   A14        1.89255  -0.00001  -0.00000  -0.00013  -0.00013   1.89241
   A15        1.89257  -0.00001  -0.00000  -0.00013  -0.00014   1.89243
   A16        2.13623   0.00003   0.00001   0.00028   0.00029   2.13652
   A17        2.13623   0.00003   0.00001   0.00028   0.00029   2.13652
   A18        2.01073  -0.00006  -0.00001  -0.00057  -0.00058   2.01015
    D1       -1.04069  -0.00000  -0.00000  -0.00004  -0.00004  -1.04072
    D2        2.10097  -0.00000  -0.00000  -0.00009  -0.00010   2.10087
    D3        1.03817   0.00001   0.00000   0.00019   0.00020   1.03837
    D4       -2.10336   0.00000   0.00000   0.00014   0.00014  -2.10322
    D5        3.14036   0.00000  -0.00000   0.00008   0.00008   3.14044
    D6       -0.00117  -0.00000   0.00000   0.00002   0.00002  -0.00115
    D7       -1.04111  -0.00000  -0.00000  -0.00004  -0.00004  -1.04115
    D8        1.03775   0.00000   0.00000   0.00019   0.00020   1.03795
    D9        3.13995   0.00000   0.00000   0.00008   0.00008   3.14003
   D10        2.10042  -0.00000  -0.00000   0.00002   0.00002   2.10044
   D11       -2.10390   0.00001   0.00000   0.00025   0.00025  -2.10365
   D12       -0.00170   0.00000   0.00000   0.00013   0.00013  -0.00157
   D13       -3.14158   0.00000  -0.00000   0.00008   0.00008  -3.14150
   D14        0.00007  -0.00000  -0.00000  -0.00002  -0.00002   0.00005
   D15        0.00008   0.00000   0.00000   0.00001   0.00001   0.00009
   D16       -3.14146  -0.00000   0.00000  -0.00008  -0.00008  -3.14154
         Item               Value     Threshold  Converged?
 Maximum Force            0.000217     0.000450     YES
 RMS     Force            0.000037     0.000300     YES
 Maximum Displacement     0.000387     0.001800     YES
 RMS     Displacement     0.000164     0.001200     YES
 Predicted change in Energy=-7.823996D-08
 Optimization completed.
    -- Stationary point found.
                           ----------------------------
                           !   Optimized Parameters   !
                           ! (Angstroms and Degrees)  !
 --------------------------                            --------------------------
 ! Name  Definition              Value          Derivative Info.                !
 --------------------------------------------------------------------------------
 ! R1    R(1,2)                  1.4836         -DE/DX =    0.0                 !
 ! R2    R(1,5)                  1.1187         -DE/DX =    0.0                 !
 ! R3    R(1,6)                  1.1186         -DE/DX =    0.0                 !
 ! R4    R(1,7)                  1.1172         -DE/DX =    0.0                 !
 ! R5    R(2,3)                  1.4836         -DE/DX =    0.0                 !
 ! R6    R(2,4)                  1.3362         -DE/DX =   -0.0002              !
 ! R7    R(3,8)                  1.1187         -DE/DX =    0.0                 !
 ! R8    R(3,9)                  1.1186         -DE/DX =    0.0                 !
 ! R9    R(3,10)                 1.1172         -DE/DX =    0.0                 !
 ! R10   R(4,11)                 1.0973         -DE/DX =    0.0                 !
 ! R11   R(4,12)                 1.0973         -DE/DX =    0.0                 !
 ! A1    A(2,1,5)              110.0792         -DE/DX =    0.0                 !
 ! A2    A(2,1,6)              110.082          -DE/DX =    0.0                 !
 ! A3    A(2,1,7)              111.5838         -DE/DX =    0.0                 !
 ! A4    A(5,1,6)              108.1349         -DE/DX =    0.0                 !
 ! A5    A(5,1,7)              108.435          -DE/DX =    0.0                 !
 ! A6    A(6,1,7)              108.436          -DE/DX =    0.0                 !
 ! A7    A(1,2,3)              115.1406         -DE/DX =    0.0                 !
 ! A8    A(1,2,4)              122.4296         -DE/DX =    0.0                 !
 ! A9    A(3,2,4)              122.4298         -DE/DX =    0.0                 !
 ! A10   A(2,3,8)              110.0787         -DE/DX =    0.0                 !
 ! A11   A(2,3,9)              110.0826         -DE/DX =    0.0                 !
 ! A12   A(2,3,10)             111.5838         -DE/DX =    0.0                 !
 ! A13   A(8,3,9)              108.1348         -DE/DX =    0.0                 !
 ! A14   A(8,3,10)             108.4348         -DE/DX =    0.0                 !
 ! A15   A(9,3,10)             108.4361         -DE/DX =    0.0                 !
 ! A16   A(2,4,11)             122.3968         -DE/DX =    0.0                 !
 ! A17   A(2,4,12)             122.3967         -DE/DX =    0.0                 !
 ! A18   A(11,4,12)            115.2065         -DE/DX =   -0.0001              !
 ! D1    D(5,1,2,3)            -59.6269         -DE/DX =    0.0                 !
 ! D2    D(5,1,2,4)            120.3766         -DE/DX =    0.0                 !
 ! D3    D(6,1,2,3)             59.483          -DE/DX =    0.0                 !
 ! D4    D(6,1,2,4)           -120.5135         -DE/DX =    0.0                 !
 ! D5    D(7,1,2,3)            179.9296         -DE/DX =    0.0                 !
 ! D6    D(7,1,2,4)             -0.0669         -DE/DX =    0.0                 !
 ! D7    D(1,2,3,8)            -59.6511         -DE/DX =    0.0                 !
 ! D8    D(1,2,3,9)             59.4587         -DE/DX =    0.0                 !
 ! D9    D(1,2,3,10)           179.9059         -DE/DX =    0.0                 !
 ! D10   D(4,2,3,8)            120.3454         -DE/DX =    0.0                 !
 ! D11   D(4,2,3,9)           -120.5447         -DE/DX =    0.0                 !
 ! D12   D(4,2,3,10)            -0.0976         -DE/DX =    0.0                 !
 ! D13   D(1,2,4,11)          -179.9992         -DE/DX =    0.0                 !
 ! D14   D(1,2,4,12)             0.0038         -DE/DX =    0.0                 !
 ! D15   D(3,2,4,11)             0.0045         -DE/DX =    0.0                 !
 ! D16   D(3,2,4,12)          -179.9925         -DE/DX =    0.0                 !
 --------------------------------------------------------------------------------
 GradGradGradGradGradGradGradGradGradGradGradGradGradGradGradGradGradGrad

                          Input orientation:                          
 ---------------------------------------------------------------------
 Center     Atomic      Atomic             Coordinates (Angstroms)
 Number     Number       Type             X           Y           Z
 ---------------------------------------------------------------------
      1          6           0        0.984046    0.994153    1.381129
      2          6           0        2.100472    1.884209    0.978225
      3          6           0        3.451415    1.423173    1.382369
      4          6           0        1.903519    3.018864    0.300539
      5          1           0        1.120939   -0.021101    0.931797
      6          1           0        0.964213    0.882578    2.494021
      7          1           0       -0.003441    1.397347    1.048820
      8          1           0        3.507537    1.327601    2.495518
      9          1           0        3.664543    0.420011    0.935592
     10          1           0        4.245430    2.134594    1.048385
     11          1           0        2.729658    3.676767    0.002802
     12          1           0        0.904070    3.359403    0.002002
 ---------------------------------------------------------------------
                    Distance matrix (angstroms):
                    1          2          3          4          5
     1  C    0.000000
     2  C    1.483556   0.000000
     3  C    2.504391   1.483555   0.000000
     4  C    2.472360   1.336222   2.472361   0.000000
     5  H    1.118651   2.142860   2.778500   3.201923   0.000000
     6  H    1.118646   2.142892   2.777443   3.202714   1.811558
     7  H    1.117195   2.160663   3.471016   2.612612   1.813814
     8  H    2.778679   2.142854   1.118653   3.201746   3.155958
     9  H    2.777266   2.142898   1.118645   3.202895   2.581573
    10  H    3.471016   2.160663   1.117195   2.612615   3.797771
    11  H    3.484734   2.135554   2.739129   1.097264   4.138265
    12  H    2.739123   2.135553   3.484734   1.097265   3.512743
                    6          7          8          9         10
     6  H    0.000000
     7  H    1.813821   0.000000
     8  H    2.581965   3.797995   0.000000
     9  H    3.151896   3.797646   1.811557   0.000000
    10  H    3.797867   4.312359   1.813813   1.813821   0.000000
    11  H    4.138896   3.709412   3.512451   3.514337   2.401897
    12  H    3.514034   2.401888   4.138102   4.139061   3.709416
                   11         12
    11  H    0.000000
    12  H    1.852969   0.000000
 Stoichiometry    C4H8
 Framework group  C1[X(C4H8)]
 Deg. of freedom    30
 Full point group                 C1      NOp   1
 Largest Abelian subgroup         C1      NOp   1
 Largest concise Abelian subgroup C1      NOp   1
                         Standard orientation:                         
 ---------------------------------------------------------------------
 Center     Atomic      Atomic             Coordinates (Angstroms)
[...]
                             1992.20  1997.62  2036.32  2040.79  2096.84
                             2146.70  2708.99  4383.67  4384.73  4398.94
                             4401.37  4530.14  4530.46  4573.43  4629.47
 
 Zero-point correction=                           0.108322 (Hartree/Particle)
 Thermal correction to Energy=                    0.113936
 Thermal correction to Enthalpy=                  0.114880
 Thermal correction to Gibbs Free Energy=         0.079885
 Sum of electronic and zero-point Energies=              0.106364
 Sum of electronic and thermal Energies=                 0.111979
 Sum of electronic and thermal Enthalpies=               0.112923
 Sum of electronic and thermal Free Energies=            0.077928
 
                     E (Thermal)             CV                S
                      KCal/Mol        Cal/Mol-Kelvin    Cal/Mol-Kelvin
 Total                   71.496             18.162             73.653
 Electronic               0.000              0.000              0.000
 Translational            0.889              2.981             37.993
 Rotational               0.889              2.981             24.282
 Vibrational             69.719             12.201             11.379
 Vibration     1          0.597              1.972              4.365
 Vibration     2          0.604              1.948              3.430
 Vibration     3          0.776              1.445              0.921
 Vibration     4          0.812              1.352              0.784
 Vibration     5          0.822              1.329              0.753
 Vibration     6          0.963              1.022              0.442
                       Q            Log10(Q)             Ln(Q)
 Total Bot       0.180051D-36        -36.744604        -84.607576
 Total V=0       0.120170D+14         13.079795         30.117342
 Vib (Bot)       0.241411D-48        -48.617243       -111.945340
 Vib (Bot)    1  0.328357D+01          0.516347          1.188932
 Vib (Bot)    2  0.202615D+01          0.306672          0.706138
 Vib (Bot)    3  0.429340D+00         -0.367199         -0.845507
 Vib (Bot)    4  0.376648D+00         -0.424064         -0.976445
 Vib (Bot)    5  0.364666D+00         -0.438105         -1.008774
 Vib (Bot)    6  0.245718D+00         -0.609563         -1.403571
 Vib (V=0)       0.161122D+02          1.207156          2.779578
 Vib (V=0)    1  0.382142D+01          0.582225          1.340623
 Vib (V=0)    2  0.258693D+01          0.412785          0.950473
 Vib (V=0)    3  0.115904D+01          0.064098          0.147591
 Vib (V=0)    4  0.112599D+01          0.051535          0.118663
 Vib (V=0)    5  0.111885D+01          0.048774          0.112306
 Vib (V=0)    6  0.105712D+01          0.024122          0.055544
 Electronic      0.100000D+01          0.000000          0.000000
 Translational   0.164993D+08          7.217465         16.618827
 Rotational      0.452038D+05          4.655175         10.718936
 ***** Axes restored to original set *****
 -------------------------------------------------------------------
 Center     Atomic                   Forces (Hartrees/Bohr)
 Number     Number              X              Y              Z
 -------------------------------------------------------------------
      1        6           0.000013917   -0.000013667    0.000008234
      2        6          -0.000033185    0.000187908   -0.000107826
      3        6          -0.000007743   -0.000017706    0.000007968
      4        6           0.000041257   -0.000238037    0.000145458
      5        1          -0.000001886   -0.000013521   -0.000016011
      6        1          -0.000005283    0.000007754    0.000018768
      7        1          -0.000043785    0.000011666   -0.000011441
      8        1           0.000001969    0.000008269    0.000018428
      9        1           0.000006599   -0.000011797   -0.000016986
     10        1           0.000037142    0.000025992   -0.000010877
     11        1          -0.000027560    0.000022590   -0.000017815
     12        1           0.000018558    0.000030548   -0.000017900
 -------------------------------------------------------------------
 Cartesian Forces:  Max     0.000238037 RMS     0.000061858
 FormGI is forming the generalized inverse of G from B-inverse, IUseBI=4.

 GradGradGradGradGradGradGradGradGradGradGradGradGradGradGradGradGradGrad
 Berny optimization.
 Internal  Forces:  Max     0.000217419 RMS     0.000037085
 Search for a local minimum.
 Step number   1 out of a maximum of    2
 All quantities printed in internal units (Hartrees-Bohrs-Radians)
 Second derivative matrix not updated -- analytic derivatives used.
 ITU=  0
     Eigenvalues ---    0.00031   0.00071   0.01717   0.02144   0.04797
     Eigenvalues ---    0.05763   0.05769   0.05871   0.05918   0.09995
     Eigenvalues ---    0.12078   0.13147   0.13354   0.13366   0.13705
     Eigenvalues ---    0.14660   0.15072   0.17832   0.18991   0.32926
     Eigenvalues ---    0.32948   0.33160   0.33237   0.35537   0.36407
     Eigenvalues ---    0.36531   0.37686   0.49433   0.53381   0.84472
 Angle between quadratic step and forces=  82.81 degrees.
 Linear search not attempted -- first point.
 Iteration  1 RMS(Cart)=  0.00103599 RMS(Int)=  0.00000069
 Iteration  2 RMS(Cart)=  0.00000072 RMS(Int)=  0.00000000
 Variable       Old X    -DE/DX   Delta X   Delta X   Delta X     New X
                                 (Linear)    (Quad)   (Total)
    R1        2.80352   0.00003   0.00000   0.00008   0.00008   2.80359
    R2        2.11394   0.00002   0.00000   0.00003   0.00003   2.11397
    R3        2.11394   0.00002   0.00000   0.00004   0.00004   2.11397
    R4        2.11119   0.00005   0.00000   0.00014   0.00014   2.11133
    R5        2.80351   0.00003   0.00000   0.00008   0.00008   2.80359
    R6        2.52509  -0.00022   0.00000  -0.00031  -0.00031   2.52478
    R7        2.11395   0.00002   0.00000   0.00003   0.00003   2.11397
    R8        2.11393   0.00002   0.00000   0.00004   0.00004   2.11397
    R9        2.11119   0.00005   0.00000   0.00014   0.00014   2.11133
   R10        2.07353  -0.00000   0.00000   0.00003   0.00003   2.07356
   R11        2.07353  -0.00000   0.00000   0.00003   0.00003   2.07356
    A1        1.92124  -0.00000   0.00000   0.00002   0.00002   1.92126
    A2        1.92129  -0.00000   0.00000  -0.00003  -0.00003   1.92126
    A3        1.94750   0.00001   0.00000   0.00001   0.00001   1.94751
    A4        1.88731   0.00001   0.00000   0.00015   0.00015   1.88746
    A5        1.89255  -0.00001   0.00000  -0.00006  -0.00006   1.89248
    A6        1.89256  -0.00001   0.00000  -0.00008  -0.00008   1.89248
    A7        2.00958   0.00003   0.00000   0.00009   0.00009   2.00967
    A8        2.13680  -0.00002   0.00000  -0.00004  -0.00004   2.13676
    A9        2.13680  -0.00002   0.00000  -0.00005  -0.00005   2.13676
   A10        1.92124  -0.00000   0.00000   0.00003   0.00003   1.92126
   A11        1.92130  -0.00000   0.00000  -0.00004  -0.00004   1.92126
   A12        1.94750   0.00001   0.00000   0.00001   0.00001   1.94751
   A13        1.88731   0.00001   0.00000   0.00015   0.00015   1.88746
   A14        1.89255  -0.00001   0.00000  -0.00006  -0.00006   1.89248
   A15        1.89257  -0.00001   0.00000  -0.00008  -0.00008   1.89248
   A16        2.13623   0.00003   0.00000   0.00032   0.00032   2.13655
   A17        2.13623   0.00003   0.00000   0.00032   0.00032   2.13655
   A18        2.01073  -0.00006   0.00000  -0.00065  -0.00065   2.01009
    D1       -1.04069  -0.00000   0.00000   0.00116   0.00116  -1.03952
    D2        2.10097  -0.00000   0.00000   0.00110   0.00110   2.10207
    D3        1.03817   0.00001   0.00000   0.00135   0.00135   1.03952
    D4       -2.10336   0.00000   0.00000   0.00129   0.00129  -2.10207
    D5        3.14036   0.00000   0.00000   0.00123   0.00123   3.14159
    D6       -0.00117  -0.00000   0.00000   0.00117   0.00117  -0.00000
    D7       -1.04111  -0.00000   0.00000   0.00159   0.00159  -1.03952
    D8        1.03775   0.00000   0.00000   0.00177   0.00177   1.03952
    D9        3.13995   0.00000   0.00000   0.00164   0.00164  -3.14159
   D10        2.10042  -0.00000   0.00000   0.00165   0.00165   2.10207
   D11       -2.10390   0.00001   0.00000   0.00183   0.00183  -2.10207
   D12       -0.00170   0.00000   0.00000   0.00170   0.00170   0.00000
   D13       -3.14158   0.00000   0.00000  -0.00001  -0.00001   3.14159
   D14        0.00007  -0.00000   0.00000  -0.00007  -0.00007   0.00000
   D15        0.00008   0.00000   0.00000  -0.00008  -0.00008  -0.00000
   D16       -3.14146  -0.00000   0.00000  -0.00013  -0.00013   3.14159
         Item               Value     Threshold  Converged?
 Maximum Force            0.000217     0.000450     YES
 RMS     Force            0.000037     0.000300     YES
 Maximum Displacement     0.003167     0.001800     NO 
 RMS     Displacement     0.001036     0.001200     YES
 Predicted change in Energy=-8.115920D-08
 GradGradGradGradGradGradGradGradGradGradGradGradGradGradGradGradGradGrad

 1\1\GINC-GTX1080DELTA\Freq\RAM1\ZDO\C4H8\MVEROT\16-Apr-2022\0\\#N Geom
 =AllCheck Guess=TCheck SCRF=Check GenChk RAM1/ZDO Freq\\Optimisation d
 e geometrie\\0,1\C,0.9840457222,0.9941527679,1.3811291708\C,2.10047157
 31,1.8842091719,0.9782246477\C,3.4514153809,1.423172818,1.3823691968\C
 ,1.903518935,3.0188643983,0.3005392429\H,1.1209387755,-0.0211011237,0.
 9317972096\H,0.9642128749,0.8825780358,2.4940207682\H,-0.0034409523,1.
 3973471716,1.048820454\H,3.5075369179,1.3276006613,2.4955178683\H,3.66
 45430606,0.4200112651,0.9355920117\H,4.245430318,2.1345941693,1.048385
 2612\H,2.7296578418,3.6767673166,0.0028018553\H,0.9040695523,3.3594033
 479,0.0020023134\\Version=AM64L-G09RevD.01\State=1-A\HF=-0.0019575\RMS
 D=1.115e-09\RMSF=6.186e-05\ZeroPoint=0.1083217\Thermal=0.1139361\Dipol
 e=0.0206539,-0.1189882,0.0711302\DipoleDeriv=-0.0854751,0.042582,-0.03
 01022,0.0206968,-0.0618494,0.0190157,-0.0173856,0.0210984,-0.0465816,0
 .0775293,0.0081902,0.0175631,0.0081401,0.032542,-0.0998645,0.0174881,-
 0.0999315,-0.0814679,-0.062678,-0.0430134,0.0217772,-0.0211151,-0.0844
 9,0.0279396,0.0090683,0.0259481,-0.0467381,-0.1511737,0.0207882,0.0072
 057,0.0207798,-0.2670677,-0.0410793,0.0071927,-0.0410859,-0.3170575,0.
 0288191,-0.0145515,0.0161654,0.0005787,0.0233986,-0.0039826,0.0062342,
 0.0093816,0.040118,0.0312102,-0.0214652,0.0032678,-0.0075677,0.0312985
 ,0.0145899,-0.0036017,-0.0016456,0.0298968,0.0106838,0.0032543,-0.0050
 771,-0.0088099,0.0282846,0.0072585,0.0019039,0.0085095,0.0376342,0.021
 9763,0.0181974,-0.008054,0.0042899,0.040455,0.0126676,0.0039436,-0.000
 3457,0.0298923,0.0238018,0.0146116,-0.0138574,-0.0004693,0.028463,-0.0
 092013,-0.0089863,0.0066791,0.0401533,0.0109223,-0.0094731,0.0023198,0
 .0025841,0.0280453,0.00859,-0.0046703,0.00732,0.037635,0.0326146,0.059
 2034,-0.0469416,0.0031383,0.1150542,0.02486,-0.014428,0.0305201,0.1382
 426,0.0617719,-0.0783232,0.0357329,-0.0222451,0.0858648,0.0392083,0.00
 32408,0.0335538,0.138274\Polar=31.7664282,-2.0863934,43.4455564,2.3611
 679,-13.5668203,28.5113968\HyperPolar=-26.6239738,47.8190513,19.421132
 8,-6.2360541,-31.4992217,-0.2241881,-30.1972534,0.4462189,-2.6579113,3
 8.4458997\PG=C01 [X(C4H8)]\NImag=0\\0.57695706,0.03100048,0.54346942,-
 0.00958145,-0.02562122,0.50777476,-0.20674785,-0.10808911,0.04901347,0
 .67100611,-0.11173274,-0.15217617,0.03523006,-0.02368051,0.80413499,0.
 05111489,0.03558537,-0.08736797,0.06253501,-0.35888756,0.40355260,-0.0
 5126884,-0.00493107,-0.00301278,-0.27026420,0.06934251,-0.06029614,0.5
 9281906,-0.01572897,0.00634756,-0.00139586,0.06571247,-0.08856445,0.01
 631352,-0.01331135,0.52761017,0.00324710,-0.00029911,0.00719553,-0.058
 17114,0.01666852,-0.08746504,0.01769788,-0.02088559,0.50777262,-0.0004
 4041,-0.02801676,0.01540357,-0.08837865,0.07077960,-0.04390214,-0.0193
 4755,0.03625263,-0.02377044,0.58921334,-0.01656565,-0.04240473,0.02744
 363,0.07077862,-0.48387879,0.25288907,0.02480286,-0.02345957,0.0206621
 5,-0.02938229,0.75407632,0.00876618,0.02628776,-0.00651027,-0.04390395
 ,0.25288818,-0.21103147,-0.01713034,0.02181672,-0.00654800,0.06357181,
 -0.36509485,0.34746375,-0.04450746,0.02906729,0.01167876,0.00021110,-0
 .02530099,-0.00607182,-0.00065639,-0.00014169,0.00004060,-0.00163393,-
 0.00102290,0.00054689,0.05071917,0.02931761,-0.23887897,-0.09022267,-0
 .01092427,-0.03126506,-0.00447228,-0.00012460,0.00014025,-0.00003646,-
 0.00130040,-0.00018719,-0.00021322,-0.02934064,0.28867883,0.01192966,-
 0.08963740,-0.07931070,-0.00041395,0.00452291,0.00615938,-0.00014132,-
 0.00002981,0.00000759,0.00071325,0.00038000,-0.00037293,-0.01583353,0.
 10771342,0.08945325,-0.04061966,0.00088030,0.00266482,-0.00392288,-0.0
 0891413,0.02572244,-0.00067720,-0.00015777,-0.00000542,-0.00160862,-0.
 00102865,0.00036530,0.00425220,0.00106118,0.00479938,0.04649404,0.0006
 9857,-0.04080521,0.02315838,-0.00812001,-0.00443853,0.02191085,0.00000
 530,0.00006245,-0.00006093,-0.00139433,-0.00060226,0.00010037,0.000964
 67,-0.00164293,-0.02706021,0.00390096,0.04614031,0.00238260,0.02257211
 ,-0.28128777,0.01128054,0.01138593,-0.01653314,0.00007285,-0.00008600,
 0.00010504,0.00057224,-0.00042520,0.00001326,0.00136206,-0.00820182,-0
 .02178975,-0.00711204,-0.03055808,0.33623570,-0.22999882,0.07870459,-0
 .06441168,-0.03676588,-0.00025785,-0.00394009,-0.00159826,-0.00191934,
 0.00089382,-0.00073077,-0.00094480,0.00047810,-0.00790797,0.01146573,-
 0.00101365,-0.00358599,0.00392431,-0.00859434,0.28108023,0.08124969,-0
 .07452271,0.02710665,-0.01768893,0.00654495,-0.00326054,-0.00162581,-0
 .00128703,0.00091377,-0.00144033,-0.00070575,0.00024255,0.02554089,-0.
 01697787,0.00414413,0.00490883,0.00178118,0.00512064,-0.09057739,0.085
 64517,-0.06588369,0.02685183,-0.06390345,0.00614403,-0.00151535,0.0054
 6923,0.00072190,0.00088416,0.00013545,0.00076476,0.00029409,-0.0001298
 1,0.00743068,-0.00517358,0.00614827,-0.02575002,0.01292780,-0.01693186
 ,0.07641599,-0.03454570,0.06928982,-0.00063775,-0.00009248,0.00002763,
 -0.00937999,0.00706776,-0.03161262,-0.04013152,-0.00066730,-0.01028601
 ,-0.00225673,0.00043128,-0.00037846,0.00002958,0.00004426,-0.00001124,
 -0.00057776,-0.00013385,0.00014753,0.00008532,0.00004472,0.00002757,0.
 04891089,-0.00025635,0.00002465,-0.00005533,0.00631315,0.00107054,0.01
 192159,-0.00048503,-0.04118027,0.02030326,0.00079823,0.00004902,-0.000
 02768,-0.00002055,-0.00001101,-0.00000391,-0.00007935,0.00001243,0.000
 03653,-0.00000704,-0.00004856,-0.00000621,-0.00285779,0.04357517,-0.00
 003702,-0.00010484,0.00010500,-0.01447840,0.00688208,-0.01658508,-0.00
 981089,0.01984302,-0.28138134,-0.00039532,-0.00059549,0.00001449,0.000
 02424,0.00001480,-0.00000910,-0.00015153,-0.00001577,0.00000038,0.0000
 6695,0.00004680,0.00000265,0.01695939,-0.02563980,0.33635899,-0.000655
 00,-0.00014080,-0.00002421,-0.01484753,0.03119301,0.00714798,-0.048054
 14,0.03925373,0.01929723,-0.00221248,0.00030083,-0.00044715,-0.0005801
 0,-0.00024640,-0.00004885,0.00003264,0.00003561,-0.00002736,0.00010078
 ,0.00000920,-0.00003928,0.00422520,0.00114158,0.00148020,0.05912513,-0
 .00015693,0.00013542,-0.00004896,0.01678904,-0.01619942,-0.00211169,0.
 03901290,-0.23579922,-0.08848651,0.00057796,0.00038507,-0.00038521,0.0
 0004603,-0.00001869,-0.00001587,-0.00002799,-0.00001395,0.00000582,-0.
 00005919,-0.00003272,0.00004571,0.00105071,-0.00170523,-0.00823164,-0.
 05285426,0.28083715,0.00014440,0.00001891,0.00000943,-0.00118145,0.004
 46016,0.00615237,0.01887050,-0.08802437,-0.07886286,-0.00080191,0.0001
 1418,-0.00037102,0.00004963,0.00000083,0.00003288,0.00001165,0.,-0.000
 00921,-0.00000957,0.00000503,-0.00002857,0.00459596,-0.02714581,-0.021
 70051,-0.02124328,0.10626821,0.08891367,-0.00268715,0.00141685,-0.0011
 5098,-0.03754319,-0.01550392,0.00483923,-0.16164361,-0.10973957,0.0517
 8382,-0.00148468,0.00066632,-0.00053180,0.00006909,0.00009516,0.000007
 79,0.00008262,0.00005461,-0.00007905,-0.00048842,-0.00044376,0.0002050
 1,-0.00017868,-0.00461154,0.00638139,0.00280007,-0.00439029,-0.0004313
 0,0.20146980,0.00112167,-0.00019498,0.00056101,0.00190182,0.00731244,-
 0.00175036,-0.11228060,-0.14265871,0.04739972,0.00116149,0.00004724,0.
 00006879,0.00002805,-0.00000142,0.00000780,0.00000201,-0.00004559,0.00
 002134,0.00019135,0.00021471,-0.00009167,-0.00556047,-0.00155790,0.007
 67742,-0.01847877,-0.02769191,0.00432644,0.13185901,0.16498213,-0.0009
 8176,0.00058983,0.00013228,-0.00528827,-0.00349702,0.00547901,0.053262
 77,0.04765501,-0.06412233,-0.00081894,0.00001654,-0.00012884,0.0000217
 5,0.00005635,-0.00002825,-0.00002318,-0.00001484,0.00000245,-0.0001631
 4,-0.00015639,0.00009696,0.01990754,0.02080672,-0.01700120,-0.00520819
 ,-0.00728968,0.00615537,-0.06063296,-0.05848792,0.06956292,-0.00010792
 ,0.00024100,-0.00110283,0.00410291,-0.00356202,0.00191318,0.00059424,0
 .00079529,-0.00000111,-0.19932623,-0.12710718,0.05775401,0.00005274,-0
 .00004177,0.00000603,0.00023620,0.00015600,-0.00002343,-0.00001557,0.0
 0000463,-0.00000456,-0.00001686,-0.00001028,0.00001862,-0.00009421,0.0
 0001805,-0.00005060,-0.00044488,0.00006869,-0.00008847,0.22326176,0.00
 059137,0.00051560,0.00521741,-0.02176082,-0.02706624,0.01673345,0.0002
 9325,-0.00139016,-0.00145939,-0.12337144,-0.13794751,0.04313734,0.0002
 9027,0.00029227,-0.00015300,-0.00078174,-0.00071566,0.00023494,0.00016
 535,0.00007528,-0.00002607,-0.00033887,0.00017944,-0.00010667,0.000121
 95,-0.00008189,0.00012212,0.00077326,-0.00041705,0.00034467,0.14292688
 ,0.16021659,-0.00130539,0.00518083,0.00627608,0.01246346,0.01857426,-0
 .00390563,0.00028955,-0.00140895,-0.00311266,0.05558784,0.04275960,-0.
 06114521,0.00109908,0.00089592,-0.00053465,-0.00076393,-0.00075137,0.0
 0028899,-0.00009870,-0.00004272,0.00001637,-0.00035197,0.00026082,-0.0
 0009501,0.00044866,-0.00022221,0.00024424,-0.00049632,0.00027426,-0.00
 016458,-0.06253968,-0.06530263,0.05412531,0.00071375,-0.00004041,0.000
 49570,-0.00747016,0.01056927,-0.00744990,0.00022835,-0.00034809,-0.000
 72641,-0.27179285,0.07907162,-0.06909063,-0.00004800,-0.00000579,0.000
 00641,-0.00010556,-0.00009182,0.00001839,-0.00017477,0.00001829,-0.000
 03241,-0.00007165,0.00007494,-0.00005759,0.00015971,-0.00000606,0.0000
 4597,0.00004892,-0.00001430,0.00001287,-0.02824222,0.00109056,-0.00433
 262,0.30675443,0.00046125,-0.00150978,-0.00137297,0.02876852,-0.015474
 35,0.01512841,-0.00069843,0.00017913,0.00528069,0.07533570,-0.06537177
 ,0.02117932,-0.00011042,-0.00012828,0.00013191,0.00023636,0.00026775,-
 0.00010623,-0.00068575,-0.00068668,0.00035498,0.00101203,-0.00040830,0
 .00023007,-0.00033566,0.00018532,-0.00014574,-0.00017611,0.00001101,-0
 .00002328,-0.01348934,0.00633930,-0.00021783,-0.09031818,0.07659662,0.
 00020444,-0.00142393,-0.00311263,-0.01799933,0.01328767,-0.00392452,-0
 .00052397,0.00531830,0.00627629,-0.06692473,0.02155634,-0.06125380,-0.
 00034835,-0.00036135,0.00024398,0.00024253,0.00036380,-0.00009419,0.00
 037633,0.00042577,-0.00016510,0.00097465,-0.00045018,0.00029063,-0.001
 33574,0.00047196,-0.00053583,0.00010516,-0.00000685,0.00001615,0.00411
 885,0.00125780,0.00800668,0.08111019,-0.04043936,0.05425229\\-0.000013
 92,0.00001367,-0.00000823,0.00003318,-0.00018791,0.00010783,0.00000774
 ,0.00001771,-0.00000797,-0.00004126,0.00023804,-0.00014546,0.00000189,
 0.00001352,0.00001601,0.00000528,-0.00000775,-0.00001877,0.00004379,-0
 .00001167,0.00001144,-0.00000197,-0.00000827,-0.00001843,-0.00000660,0
 .00001180,0.00001699,-0.00003714,-0.00002599,0.00001088,0.00002756,-0.
 00002259,0.00001781,-0.00001856,-0.00003055,0.00001790\\\@


 HEAVEN'S NET CASTS WIDE.
 THOUGH ITS MESHES ARE COARSE, NOTHING SLIPS THROUGH.

                                          -- LAO-TSU
 Job cpu time:       0 days  0 hours  0 minutes  1.0 seconds.
 File lengths (MBytes):  RWF=     82 Int=      0 D2E=      0 Chk=      2 Scr=      2
 Normal termination of Gaussian 09 at Sat Apr 16 11:43:05 2022.
