 Entering Gaussian System, Link 0=g09
 Input=/scratch/mverot/1-4-butanediol-opt/1-4-butanediol-opt.com
 Output=/scratch/mverot/1-4-butanediol-opt/1-4-butanediol-opt.log
 Initial command:
 /opt/g09/l1.exe "/scratch/mverot/1-4-butanediol-opt/Gau-1469220.inp" -scrdir="/scratch/mverot/1-4-butanediol-opt/"
 Entering Link 1 = /opt/g09/l1.exe PID=   1469222.
  
 Copyright (c) 1988,1990,1992,1993,1995,1998,2003,2009,2013,
            Gaussian, Inc.  All Rights Reserved.
  
 This is part of the Gaussian(R) 09 program.  It is based on
 the Gaussian(R) 03 system (copyright 2003, Gaussian, Inc.),
 the Gaussian(R) 98 system (copyright 1998, Gaussian, Inc.),
 the Gaussian(R) 94 system (copyright 1995, Gaussian, Inc.),
 the Gaussian 92(TM) system (copyright 1992, Gaussian, Inc.),
 the Gaussian 90(TM) system (copyright 1990, Gaussian, Inc.),
 the Gaussian 88(TM) system (copyright 1988, Gaussian, Inc.),
 the Gaussian 86(TM) system (copyright 1986, Carnegie Mellon
 University), and the Gaussian 82(TM) system (copyright 1983,
 Carnegie Mellon University). Gaussian is a federally registered
 trademark of Gaussian, Inc.
  
 This software contains proprietary and confidential information,
 including trade secrets, belonging to Gaussian, Inc.
  
 This software is provided under written license and may be
 used, copied, transmitted, or stored only in accord with that
 written license.
  
 The following legend is applicable only to US Government
 contracts under FAR:
  
                    RESTRICTED RIGHTS LEGEND
  
 Use, reproduction and disclosure by the US Government is
 subject to restrictions as set forth in subparagraphs (a)
 and (c) of the Commercial Computer Software - Restricted
 Rights clause in FAR 52.227-19.
  
 Gaussian, Inc.
 340 Quinnipiac St., Bldg. 40, Wallingford CT 06492
  
  
 ---------------------------------------------------------------
 Warning -- This program may not be used in any manner that
 competes with the business of Gaussian, Inc. or will provide
 assistance to any competitor of Gaussian, Inc.  The licensee
 of this program is prohibited from giving any competitor of
 Gaussian, Inc. access to this program.  By using this program,
 the user acknowledges that Gaussian, Inc. is engaged in the
 business of creating and licensing software in the field of
 computational chemistry and represents and warrants to the
 licensee that it is not a competitor of Gaussian, Inc. and that
 it will not use this program in any manner prohibited above.
 ---------------------------------------------------------------
  

 Cite this work as:
 Gaussian 09, Revision D.01,
 M. J. Frisch, G. W. Trucks, H. B. Schlegel, G. E. Scuseria, 
 M. A. Robb, J. R. Cheeseman, G. Scalmani, V. Barone, B. Mennucci, 
 G. A. Petersson, H. Nakatsuji, M. Caricato, X. Li, H. P. Hratchian, 
 A. F. Izmaylov, J. Bloino, G. Zheng, J. L. Sonnenberg, M. Hada, 
 M. Ehara, K. Toyota, R. Fukuda, J. Hasegawa, M. Ishida, T. Nakajima, 
 Y. Honda, O. Kitao, H. Nakai, T. Vreven, J. A. Montgomery, Jr., 
 J. E. Peralta, F. Ogliaro, M. Bearpark, J. J. Heyd, E. Brothers, 
 K. N. Kudin, V. N. Staroverov, T. Keith, R. Kobayashi, J. Normand, 
 K. Raghavachari, A. Rendell, J. C. Burant, S. S. Iyengar, J. Tomasi, 
 M. Cossi, N. Rega, J. M. Millam, M. Klene, J. E. Knox, J. B. Cross, 
 V. Bakken, C. Adamo, J. Jaramillo, R. Gomperts, R. E. Stratmann, 
 O. Yazyev, A. J. Austin, R. Cammi, C. Pomelli, J. W. Ochterski, 
 R. L. Martin, K. Morokuma, V. G. Zakrzewski, G. A. Voth, 
 P. Salvador, J. J. Dannenberg, S. Dapprich, A. D. Daniels, 
 O. Farkas, J. B. Foresman, J. V. Ortiz, J. Cioslowski, 
 and D. J. Fox, Gaussian, Inc., Wallingford CT, 2013.
 
 ******************************************
 Gaussian 09:  AM64L-G09RevD.01 24-Apr-2013
                17-Apr-2022 
 ******************************************
 %chk=1-4-butanediol-opt
 ----------
 #n AM1 Opt
 ----------
 1/14=-1,18=20,19=15,26=1,38=1/1,3;
 2/9=110,12=2,17=6,18=5,40=1/2;
 3/5=2,16=1,25=1,41=700000,71=1/1,2,3;
 4/35=1/1;
 5/5=2,35=1,38=5/2;
 6/7=2,8=2,9=2,10=2,28=1/1;
 7//1,2,3,16;
 1/14=-1,18=20,19=15,26=1/3(2);
 2/9=110/2;
 99//99;
 2/9=110/2;
 3/5=2,16=1,25=1,41=700000,71=1,135=20/1,2,3;
 4/5=5,16=3,35=1/1;
 5/5=2,35=1,38=5/2;
 7//1,2,3,16;
 1/14=-1,18=20,19=15,26=1/3(-5);
 2/9=110/2;
 6/7=2,8=2,9=2,10=2,19=2,28=1/1;
 99/9=1/99;
 -------------------------
 Optimisation de geometrie
 -------------------------
 Symbolic Z-matrix:
 Charge =  0 Multiplicity = 1
 C                     1.6107    1.2545    1.9562 
 C                     1.1287    2.3802    1.0303 
 O                     1.4973    3.6767    1.461 
 C                     3.1202    0.9463    1.9456 
 C                     4.0514    2.0104    2.5215 
 O                     4.1945    3.0862    1.5783 
 H                     1.0825    0.3332    1.6712 
 H                     1.2915    1.4946    2.98 
 H                     0.0328    2.3688    1.0055 
 H                     1.4756    2.182     0.0004 
 H                     2.4724    3.7128    1.402 
 H                     3.4548    0.7229    0.923 
 H                     3.2871    0.0321    2.5311 
 H                     5.0392    1.5667    2.7112 
 H                     3.6576    2.3857    3.4778 
 H                     4.7634    3.7635    1.976 
 

 GradGradGradGradGradGradGradGradGradGradGradGradGradGradGradGradGradGrad
 Berny optimization.
 Initialization pass.
                           ----------------------------
                           !    Initial Parameters    !
                           ! (Angstroms and Degrees)  !
 --------------------------                            --------------------------
 ! Name  Definition              Value          Derivative Info.                !
 --------------------------------------------------------------------------------
 ! R1    R(1,2)                  1.5352         estimate D2E/DX2                !
 ! R2    R(1,4)                  1.5407         estimate D2E/DX2                !
 ! R3    R(1,7)                  1.0996         estimate D2E/DX2                !
 ! R4    R(1,8)                  1.099          estimate D2E/DX2                !
 ! R5    R(2,3)                  1.415          estimate D2E/DX2                !
 ! R6    R(2,9)                  1.0962         estimate D2E/DX2                !
 ! R7    R(2,10)                 1.1047         estimate D2E/DX2                !
 ! R8    R(3,11)                 0.9776         estimate D2E/DX2                !
 ! R9    R(4,5)                  1.5268         estimate D2E/DX2                !
 ! R10   R(4,12)                 1.0989         estimate D2E/DX2                !
 ! R11   R(4,13)                 1.0984         estimate D2E/DX2                !
 ! R12   R(5,6)                  1.4379         estimate D2E/DX2                !
 ! R13   R(5,14)                 1.0994         estimate D2E/DX2                !
 ! R14   R(5,15)                 1.1002         estimate D2E/DX2                !
 ! R15   R(6,16)                 0.9698         estimate D2E/DX2                !
 ! A1    A(2,1,4)              116.7531         estimate D2E/DX2                !
 ! A2    A(2,1,7)              107.8932         estimate D2E/DX2                !
 ! A3    A(2,1,8)              108.0877         estimate D2E/DX2                !
 ! A4    A(4,1,7)              107.5333         estimate D2E/DX2                !
 ! A5    A(4,1,8)              109.554          estimate D2E/DX2                !
 ! A6    A(7,1,8)              106.559          estimate D2E/DX2                !
 ! A7    A(1,2,3)              113.9843         estimate D2E/DX2                !
 ! A8    A(1,2,9)              108.6562         estimate D2E/DX2                !
 ! A9    A(1,2,10)             109.3984         estimate D2E/DX2                !
 ! A10   A(3,2,9)              106.0708         estimate D2E/DX2                !
 ! A11   A(3,2,10)             111.4914         estimate D2E/DX2                !
 ! A12   A(9,2,10)             106.9162         estimate D2E/DX2                !
 ! A13   A(2,3,11)             105.9801         estimate D2E/DX2                !
 ! A14   A(1,4,5)              117.1002         estimate D2E/DX2                !
 ! A15   A(1,4,12)             110.2059         estimate D2E/DX2                !
 ! A16   A(1,4,13)             108.1622         estimate D2E/DX2                !
 ! A17   A(5,4,12)             107.8776         estimate D2E/DX2                !
 ! A18   A(5,4,13)             106.6391         estimate D2E/DX2                !
 ! A19   A(12,4,13)            106.2946         estimate D2E/DX2                !
 ! A20   A(4,5,6)              109.5557         estimate D2E/DX2                !
 ! A21   A(4,5,14)             109.3787         estimate D2E/DX2                !
 ! A22   A(4,5,15)             110.3221         estimate D2E/DX2                !
 ! A23   A(6,5,14)             109.0102         estimate D2E/DX2                !
 ! A24   A(6,5,15)             110.5225         estimate D2E/DX2                !
 ! A25   A(14,5,15)            108.0171         estimate D2E/DX2                !
 ! A26   A(5,6,16)             108.174          estimate D2E/DX2                !
 ! D1    D(4,1,2,3)            -71.948          estimate D2E/DX2                !
 ! D2    D(4,1,2,9)            170.0178         estimate D2E/DX2                !
 ! D3    D(4,1,2,10)            53.6277         estimate D2E/DX2                !
 ! D4    D(7,1,2,3)            166.9021         estimate D2E/DX2                !
 ! D5    D(7,1,2,9)             48.8678         estimate D2E/DX2                !
 ! D6    D(7,1,2,10)           -67.5223         estimate D2E/DX2                !
 ! D7    D(8,1,2,3)             52.0354         estimate D2E/DX2                !
 ! D8    D(8,1,2,9)            -65.9989         estimate D2E/DX2                !
 ! D9    D(8,1,2,10)           177.611          estimate D2E/DX2                !
 ! D10   D(2,1,4,5)             68.0507         estimate D2E/DX2                !
 ! D11   D(2,1,4,12)           -55.715          estimate D2E/DX2                !
 ! D12   D(2,1,4,13)          -171.5252         estimate D2E/DX2                !
 ! D13   D(7,1,4,5)           -170.6099         estimate D2E/DX2                !
 ! D14   D(7,1,4,12)            65.6244         estimate D2E/DX2                !
 ! D15   D(7,1,4,13)           -50.1858         estimate D2E/DX2                !
 ! D16   D(8,1,4,5)            -55.1806         estimate D2E/DX2                !
 ! D17   D(8,1,4,12)          -178.9464         estimate D2E/DX2                !
 ! D18   D(8,1,4,13)            65.2435         estimate D2E/DX2                !
 ! D19   D(1,2,3,11)            65.689          estimate D2E/DX2                !
 ! D20   D(9,2,3,11)          -174.8043         estimate D2E/DX2                !
 ! D21   D(10,2,3,11)          -58.7729         estimate D2E/DX2                !
 ! D22   D(1,4,5,6)            -76.1976         estimate D2E/DX2                !
 ! D23   D(1,4,5,14)           164.3712         estimate D2E/DX2                !
 ! D24   D(1,4,5,15)            45.6919         estimate D2E/DX2                !
 ! D25   D(12,4,5,6)            48.744          estimate D2E/DX2                !
 ! D26   D(12,4,5,14)          -70.6872         estimate D2E/DX2                !
 ! D27   D(12,4,5,15)          170.6335         estimate D2E/DX2                !
 ! D28   D(13,4,5,6)           162.5783         estimate D2E/DX2                !
 ! D29   D(13,4,5,14)           43.1471         estimate D2E/DX2                !
 ! D30   D(13,4,5,15)          -75.5322         estimate D2E/DX2                !
 ! D31   D(4,5,6,16)           178.0428         estimate D2E/DX2                !
 ! D32   D(14,5,6,16)          -62.2996         estimate D2E/DX2                !
 ! D33   D(15,5,6,16)           56.2735         estimate D2E/DX2                !
 --------------------------------------------------------------------------------
 Trust Radius=3.00D-01 FncErr=1.00D-07 GrdErr=1.00D-07
 Number of steps in this run=     84 maximum allowed number of steps=    100.
 GradGradGradGradGradGradGradGradGradGradGradGradGradGradGradGradGradGrad

                          Input orientation:                          
 ---------------------------------------------------------------------
 Center     Atomic      Atomic             Coordinates (Angstroms)
 Number     Number       Type             X           Y           Z
 ---------------------------------------------------------------------
      1          6           0        1.610700    1.254500    1.956200
      2          6           0        1.128700    2.380200    1.030300
      3          8           0        1.497300    3.676700    1.461000
      4          6           0        3.120200    0.946300    1.945600
      5          6           0        4.051400    2.010400    2.521500
      6          8           0        4.194500    3.086200    1.578300
      7          1           0        1.082500    0.333200    1.671200
      8          1           0        1.291500    1.494600    2.980000
      9          1           0        0.032800    2.368800    1.005500
     10          1           0        1.475600    2.182000    0.000400
     11          1           0        2.472400    3.712800    1.402000
     12          1           0        3.454800    0.722900    0.923000
     13          1           0        3.287100    0.032100    2.531100
     14          1           0        5.039200    1.566700    2.711200
     15          1           0        3.657600    2.385700    3.477800
     16          1           0        4.763400    3.763500    1.976000
 ---------------------------------------------------------------------
                    Distance matrix (angstroms):
                    1          2          3          4          5
     1  C    0.000000
     2  C    1.535192   0.000000
     3  O    2.474901   1.415020   0.000000
     4  C    1.540678   2.619144   3.213056   0.000000
     5  C    2.616862   3.301909   3.228722   1.526795   0.000000
     6  O    3.189664   3.193410   2.763573   2.422437   1.437863
     7  H    1.099552   2.145483   3.375683   2.145555   3.514310
     8  H    1.098955   2.147585   2.666697   2.171350   2.844876
     9  H    2.152966   1.096240   2.015650   3.526944   4.309971
    10  H    2.168793   1.104680   2.089964   2.831160   3.608343
    11  H    2.663251   1.928604   0.977550   2.892865   2.577729
    12  H    2.179634   2.858128   3.584157   1.098897   2.137473
    13  H    2.152926   3.524864   4.199001   1.098375   2.120829
    14  H    3.524501   4.333499   4.308150   2.157221   1.099366
    15  H    2.790104   3.519321   3.225067   2.169864   1.100199
    16  H    4.029267   4.002363   3.307593   3.261540   1.969232
                    6          7          8          9         10
     6  O    0.000000
     7  H    4.155982   0.000000
     8  H    3.595186   1.762240   0.000000
     9  H    4.261750   2.385098   2.499440   0.000000
    10  H    3.271049   2.522729   3.063401   1.768274   0.000000
    11  H    1.841015   3.664149   2.967325   2.813396   2.302486
    12  H    2.561593   2.517832   3.083283   3.798141   2.626289
    13  H    3.325467   2.385446   2.514525   4.286968   3.782598
    14  H    2.075057   4.273008   3.758019   5.349469   4.519544
    15  H    2.094531   3.756022   2.576877   4.387679   4.110344
    16  H    0.969818   5.040723   4.267319   5.026493   4.148948
                   11         12         13         14         15
    11  H    0.000000
    12  H    3.183403   0.000000
    13  H    3.935245   1.758213   0.000000
    14  H    3.592800   2.533768   2.336084   0.000000
    15  H    2.734015   3.055002   2.563775   1.779678   0.000000
    16  H    2.362356   3.473686   4.051042   2.332920   2.318735
                   16
    16  H    0.000000
 Stoichiometry    C4H10O2
 Framework group  C1[X(C4H10O2)]
 Deg. of freedom    42
 Full point group                 C1      NOp   1
 Largest Abelian subgroup         C1      NOp   1
 Largest concise Abelian subgroup C1      NOp   1
                         Standard orientation:                         
 ---------------------------------------------------------------------
 Center     Atomic      Atomic             Coordinates (Angstroms)
 Number     Number       Type             X           Y           Z
 ---------------------------------------------------------------------
      1          6           0        0.830011    1.152271    0.212354
      2          6           0        1.646795   -0.045249   -0.293241
      3          8           0        1.303057   -1.274744    0.317060
      4          6           0       -0.644568    1.221794   -0.228637
      5          6           0       -1.588870    0.160941    0.331710
      6          8           0       -1.371828   -1.085645   -0.351200
      7          1           0        1.324059    2.070107   -0.137655
      8          1           0        0.886718    1.165023    1.309771
      9          1           0        2.703422    0.126014   -0.056702
     10          1           0        1.569165   -0.103974   -1.393623
     11          1           0        0.386969   -1.467934    0.035876
     12          1           0       -0.714763    1.190762   -1.324851
     13          1           0       -1.048228    2.196018    0.078564
     14          1           0       -2.629383    0.479027    0.174364
     15          1           0       -1.429669    0.040813    1.413682
     16          1           0       -1.958328   -1.751287    0.040574
 ---------------------------------------------------------------------
 Rotational constants (GHZ):      4.5593886      2.8857863      1.9677595
 Standard basis: VSTO-6G (5D, 7F)
 There are    34 symmetry adapted cartesian basis functions of A   symmetry.
 There are    34 symmetry adapted basis functions of A   symmetry.
    34 basis functions,   204 primitive gaussians,    34 cartesian basis functions
    19 alpha electrons       19 beta electrons
       nuclear repulsion energy       181.3179396057 Hartrees.
 Integral buffers will be    131072 words long.
 Regular integral format.
 Two-electron integral symmetry is turned off.
 Do NDO integrals.
 One-electron integrals computed using PRISM.
 NBasis=    34 RedAO= F EigKep=  0.00D+00  NBF=    34
 NBsUse=    34 1.00D-04 EigRej=  0.00D+00 NBFU=    34
 Simple Huckel Guess.
 Overlap will be assumed to be unity.
 Keep J ints in memory in canonical form, NReq=895124.
 Requested convergence on RMS density matrix=1.00D-08 within 128 cycles.
 Requested convergence on MAX density matrix=1.00D-06.
 Requested convergence on             energy=1.00D-06.
 No special actions if energy rises.
 SCF Done:  E(RAM1) = -0.186823177163     A.U. after   13 cycles
            NFock= 12  Conv=0.31D-08     -V/T= 0.9925

 **********************************************************************

            Population analysis using the SCF density.

 **********************************************************************

 Orbital symmetries:
       Occupied  (A) (A) (A) (A) (A) (A) (A) (A) (A) (A) (A) (A)
                 (A) (A) (A) (A) (A) (A) (A)
       Virtual   (A) (A) (A) (A) (A) (A) (A) (A) (A) (A) (A) (A)
                 (A) (A) (A)
 The electronic state is 1-A.
 Alpha  occ. eigenvalues --   -1.43184  -1.36601  -1.24806  -1.07067  -0.90619
 Alpha  occ. eigenvalues --   -0.78999  -0.69185  -0.65095  -0.60869  -0.57242
 Alpha  occ. eigenvalues --   -0.56529  -0.53692  -0.50444  -0.49088  -0.46651
 Alpha  occ. eigenvalues --   -0.43872  -0.42303  -0.41437  -0.39057
 Alpha virt. eigenvalues --    0.11121   0.13012   0.13758   0.14278   0.14990
 Alpha virt. eigenvalues --    0.15557   0.16102   0.16569   0.17311   0.17557
 Alpha virt. eigenvalues --    0.18026   0.18948   0.19119   0.21684   0.25165
          Condensed to atoms (all electrons):
               1          2          3          4          5          6
     1  C    4.190757   0.000000   0.000000   0.000000   0.000000   0.000000
     2  C    0.000000   4.007201   0.000000   0.000000   0.000000   0.000000
     3  O    0.000000   0.000000   6.344319   0.000000   0.000000   0.000000
     4  C    0.000000   0.000000   0.000000   4.158145   0.000000   0.000000
     5  C    0.000000   0.000000   0.000000   0.000000   4.016696   0.000000
     6  O    0.000000   0.000000   0.000000   0.000000   0.000000   6.345674
     7  H    0.000000   0.000000   0.000000   0.000000   0.000000   0.000000
     8  H    0.000000   0.000000   0.000000   0.000000   0.000000   0.000000
     9  H    0.000000   0.000000   0.000000   0.000000   0.000000   0.000000
    10  H    0.000000   0.000000   0.000000   0.000000   0.000000   0.000000
    11  H    0.000000   0.000000   0.000000   0.000000   0.000000   0.000000
    12  H    0.000000   0.000000   0.000000   0.000000   0.000000   0.000000
    13  H    0.000000   0.000000   0.000000   0.000000   0.000000   0.000000
    14  H    0.000000   0.000000   0.000000   0.000000   0.000000   0.000000
    15  H    0.000000   0.000000   0.000000   0.000000   0.000000   0.000000
    16  H    0.000000   0.000000   0.000000   0.000000   0.000000   0.000000
               7          8          9         10         11         12
     1  C    0.000000   0.000000   0.000000   0.000000   0.000000   0.000000
     2  C    0.000000   0.000000   0.000000   0.000000   0.000000   0.000000
     3  O    0.000000   0.000000   0.000000   0.000000   0.000000   0.000000
     4  C    0.000000   0.000000   0.000000   0.000000   0.000000   0.000000
     5  C    0.000000   0.000000   0.000000   0.000000   0.000000   0.000000
     6  O    0.000000   0.000000   0.000000   0.000000   0.000000   0.000000
     7  H    0.917370   0.000000   0.000000   0.000000   0.000000   0.000000
     8  H    0.000000   0.913121   0.000000   0.000000   0.000000   0.000000
     9  H    0.000000   0.000000   0.909125   0.000000   0.000000   0.000000
    10  H    0.000000   0.000000   0.000000   0.940525   0.000000   0.000000
    11  H    0.000000   0.000000   0.000000   0.000000   0.776945   0.000000
    12  H    0.000000   0.000000   0.000000   0.000000   0.000000   0.906387
    13  H    0.000000   0.000000   0.000000   0.000000   0.000000   0.000000
    14  H    0.000000   0.000000   0.000000   0.000000   0.000000   0.000000
    15  H    0.000000   0.000000   0.000000   0.000000   0.000000   0.000000
    16  H    0.000000   0.000000   0.000000   0.000000   0.000000   0.000000
              13         14         15         16
     1  C    0.000000   0.000000   0.000000   0.000000
     2  C    0.000000   0.000000   0.000000   0.000000
     3  O    0.000000   0.000000   0.000000   0.000000
     4  C    0.000000   0.000000   0.000000   0.000000
     5  C    0.000000   0.000000   0.000000   0.000000
     6  O    0.000000   0.000000   0.000000   0.000000
     7  H    0.000000   0.000000   0.000000   0.000000
     8  H    0.000000   0.000000   0.000000   0.000000
     9  H    0.000000   0.000000   0.000000   0.000000
    10  H    0.000000   0.000000   0.000000   0.000000
    11  H    0.000000   0.000000   0.000000   0.000000
    12  H    0.000000   0.000000   0.000000   0.000000
    13  H    0.916572   0.000000   0.000000   0.000000
    14  H    0.000000   0.935596   0.000000   0.000000
    15  H    0.000000   0.000000   0.930225   0.000000
    16  H    0.000000   0.000000   0.000000   0.791341
 Mulliken charges:
               1
     1  C   -0.190757
     2  C   -0.007201
     3  O   -0.344319
     4  C   -0.158145
     5  C   -0.016696
     6  O   -0.345674
     7  H    0.082630
     8  H    0.086879
     9  H    0.090875
    10  H    0.059475
    11  H    0.223055
    12  H    0.093613
    13  H    0.083428
    14  H    0.064404
    15  H    0.069775
    16  H    0.208659
 Sum of Mulliken charges =   0.00000
 Mulliken charges with hydrogens summed into heavy atoms:
               1
     1  C   -0.021248
     2  C    0.143149
     3  O   -0.121264
     4  C    0.018895
     5  C    0.117483
     6  O   -0.137015
 Charge=              0.0000 electrons
 Dipole moment (field-independent basis, Debye):
    X=             -2.1341    Y=              1.4988    Z=              0.2564  Tot=              2.6204
 N-N= 1.813179396057D+02 E-N=-3.108469995114D+02  KE=-2.502767836561D+01
 Calling FoFJK, ICntrl=      2127 FMM=F ISym2X=0 I1Cent= 0 IOpClX= 0 NMat=1 NMatS=1 NMatT=0.
 ***** Axes restored to original set *****
 -------------------------------------------------------------------
 Center     Atomic                   Forces (Hartrees/Bohr)
 Number     Number              X              Y              Z
 -------------------------------------------------------------------
      1        6           0.024978766    0.014898326   -0.005882678
      2        6           0.017422448   -0.006381957    0.011520058
      3        8           0.004936706   -0.009552938   -0.001967223
      4        6          -0.016055775    0.022507797   -0.002206406
      5        6          -0.011990953    0.008786823   -0.016258769
      6        8           0.009227516   -0.013478831    0.007468212
      7        1          -0.006164304   -0.012662669   -0.006304013
      8        1          -0.001386831    0.005009509    0.014775377
      9        1          -0.019294624    0.002878300    0.002831234
     10        1           0.008164086    0.000309225   -0.011213367
     11        1          -0.017043877    0.006052616   -0.000303426
     12        1           0.001366446   -0.000471817   -0.016403529
     13        1           0.000488848   -0.013113752    0.010991465
     14        1           0.015350878   -0.006452571    0.000647989
     15        1          -0.006956720    0.008074746    0.011072795
     16        1          -0.003042610   -0.006402808    0.001232282
 -------------------------------------------------------------------
 Cartesian Forces:  Max     0.024978766 RMS     0.010777827

 GradGradGradGradGradGradGradGradGradGradGradGradGradGradGradGradGradGrad
 Berny optimization.
 FormGI is forming the generalized inverse of G from B-inverse, IUseBI=4.
 Internal  Forces:  Max     0.030071057 RMS     0.009189603
 Search for a local minimum.
 Step number   1 out of a maximum of   84
 All quantities printed in internal units (Hartrees-Bohrs-Radians)
 Mixed Optimization -- RFO/linear search
 Second derivative matrix not updated -- first step.
 ITU=  0
     Eigenvalues ---    0.00230   0.00300   0.00412   0.01191   0.01493
     Eigenvalues ---    0.03094   0.03096   0.04594   0.04691   0.04711
     Eigenvalues ---    0.05131   0.05871   0.05894   0.08956   0.09056
     Eigenvalues ---    0.11250   0.11807   0.12656   0.12716   0.13729
     Eigenvalues ---    0.14096   0.16000   0.16000   0.21997   0.22001
     Eigenvalues ---    0.22010   0.22052   0.28459   0.28949   0.29721
     Eigenvalues ---    0.33170   0.33660   0.33732   0.33752   0.33798
     Eigenvalues ---    0.33804   0.33862   0.34101   0.39880   0.43219
     Eigenvalues ---    0.51864   0.53414
 RFO step:  Lambda=-3.08945137D-02 EMin= 2.30000000D-03
 Linear search not attempted -- first point.
 Iteration  1 RMS(Cart)=  0.24196745 RMS(Int)=  0.01712582
 Iteration  2 RMS(Cart)=  0.02500904 RMS(Int)=  0.00129437
 Iteration  3 RMS(Cart)=  0.00033312 RMS(Int)=  0.00127689
 Iteration  4 RMS(Cart)=  0.00000045 RMS(Int)=  0.00127689
 Variable       Old X    -DE/DX   Delta X   Delta X   Delta X     New X
                                 (Linear)    (Quad)   (Total)
    R1        2.90109  -0.00361   0.00000  -0.01126  -0.01126   2.88984
    R2        2.91146  -0.01124   0.00000  -0.03564  -0.03564   2.87582
    R3        2.07785   0.01521   0.00000   0.04129   0.04129   2.11915
    R4        2.07672   0.01526   0.00000   0.04138   0.04138   2.11810
    R5        2.67400  -0.00705   0.00000  -0.01523  -0.01523   2.65877
    R6        2.07159   0.01919   0.00000   0.05161   0.05161   2.12320
    R7        2.08754   0.01296   0.00000   0.03575   0.03575   2.12329
    R8        1.84730  -0.01676   0.00000  -0.03050  -0.03050   1.81680
    R9        2.88522  -0.00345   0.00000  -0.01053  -0.01053   2.87470
   R10        2.07662   0.01578   0.00000   0.04276   0.04276   2.11938
   R11        2.07563   0.01685   0.00000   0.04560   0.04560   2.12122
   R12        2.71717  -0.01997   0.00000  -0.04647  -0.04647   2.67070
   R13        2.07750   0.01651   0.00000   0.04481   0.04481   2.12231
   R14        2.07908   0.01487   0.00000   0.04046   0.04046   2.11954
   R15        1.83269  -0.00575   0.00000  -0.01018  -0.01018   1.82251
    A1        2.03773   0.03007   0.00000   0.12346   0.12249   2.16021
    A2        1.88309  -0.01015   0.00000  -0.06196  -0.05845   1.82464
    A3        1.88649  -0.00779   0.00000  -0.00172  -0.00577   1.88071
    A4        1.87681  -0.01247   0.00000  -0.07911  -0.07618   1.80063
    A5        1.91208  -0.00713   0.00000  -0.00131  -0.00559   1.90648
    A6        1.85981   0.00588   0.00000   0.01127   0.01029   1.87010
    A7        1.98940   0.01441   0.00000   0.05582   0.05473   2.04413
    A8        1.89641  -0.00456   0.00000  -0.03543  -0.03448   1.86193
    A9        1.90936  -0.00113   0.00000   0.02038   0.01878   1.92815
   A10        1.85128  -0.01008   0.00000  -0.07912  -0.07835   1.77293
   A11        1.94589  -0.00322   0.00000   0.01087   0.00858   1.95447
   A12        1.86604   0.00369   0.00000   0.02104   0.02131   1.88735
   A13        1.84970   0.01081   0.00000   0.05665   0.05665   1.90635
   A14        2.04378   0.02316   0.00000   0.09426   0.09335   2.13713
   A15        1.92346  -0.00578   0.00000  -0.00110  -0.00465   1.91881
   A16        1.88779  -0.01111   0.00000  -0.07839  -0.07656   1.81123
   A17        1.88282  -0.00529   0.00000   0.00985   0.00711   1.88993
   A18        1.86120  -0.00738   0.00000  -0.04779  -0.04505   1.81616
   A19        1.85519   0.00515   0.00000   0.01569   0.01522   1.87042
   A20        1.91211   0.00463   0.00000   0.01625   0.01564   1.92774
   A21        1.90902  -0.00202   0.00000  -0.02018  -0.02035   1.88867
   A22        1.92548   0.00060   0.00000   0.01978   0.01926   1.94475
   A23        1.90259  -0.00602   0.00000  -0.05444  -0.05457   1.84802
   A24        1.92898   0.00062   0.00000   0.02156   0.02092   1.94990
   A25        1.88525   0.00200   0.00000   0.01546   0.01577   1.90102
   A26        1.88799  -0.00792   0.00000  -0.04151  -0.04151   1.84648
    D1       -1.25573  -0.01062   0.00000  -0.19891  -0.20041  -1.45614
    D2        2.96737  -0.00376   0.00000  -0.10975  -0.11060   2.85677
    D3        0.93598  -0.00498   0.00000  -0.12627  -0.12661   0.80937
    D4        2.91299  -0.00681   0.00000  -0.13078  -0.13094   2.78205
    D5        0.85290   0.00006   0.00000  -0.04162  -0.04113   0.81178
    D6       -1.17849  -0.00117   0.00000  -0.05815  -0.05714  -1.23563
    D7        0.90819  -0.00455   0.00000  -0.11150  -0.11165   0.79654
    D8       -1.15190   0.00232   0.00000  -0.02234  -0.02184  -1.17374
    D9        3.09990   0.00109   0.00000  -0.03886  -0.03785   3.06204
   D10        1.18771   0.00668   0.00000   0.12365   0.12551   1.31322
   D11       -0.97241   0.00073   0.00000   0.03712   0.03823  -0.93418
   D12       -2.99368   0.00401   0.00000   0.06344   0.06381  -2.92987
   D13       -2.97770   0.00398   0.00000   0.06422   0.06411  -2.91359
   D14        1.14536  -0.00197   0.00000  -0.02230  -0.02317   1.12219
   D15       -0.87591   0.00132   0.00000   0.00401   0.00241  -0.87350
   D16       -0.96308   0.00045   0.00000   0.03387   0.03436  -0.92872
   D17       -3.12320  -0.00550   0.00000  -0.05266  -0.05292   3.10706
   D18        1.13871  -0.00222   0.00000  -0.02634  -0.02734   1.11137
   D19        1.14649   0.00579   0.00000   0.09312   0.09380   1.24029
   D20       -3.05091   0.00174   0.00000   0.02837   0.02791  -3.02300
   D21       -1.02578  -0.00136   0.00000   0.01320   0.01299  -1.01279
   D22       -1.32990  -0.00999   0.00000  -0.18603  -0.18691  -1.51681
   D23        2.86882  -0.00421   0.00000  -0.11712  -0.11796   2.75086
   D24        0.79747  -0.00578   0.00000  -0.13561  -0.13619   0.66129
   D25        0.85074  -0.00490   0.00000  -0.10836  -0.10784   0.74291
   D26       -1.23372   0.00088   0.00000  -0.03945  -0.03889  -1.27261
   D27        2.97812  -0.00069   0.00000  -0.05794  -0.05712   2.92100
   D28        2.83753  -0.00503   0.00000  -0.10884  -0.10883   2.72870
   D29        0.75306   0.00074   0.00000  -0.03993  -0.03988   0.71318
   D30       -1.31829  -0.00083   0.00000  -0.05842  -0.05811  -1.37639
   D31        3.10743   0.00248   0.00000   0.03160   0.03166   3.13909
   D32       -1.08733  -0.00085   0.00000  -0.01620  -0.01591  -1.10324
   D33        0.98216  -0.00173   0.00000  -0.01786  -0.01821   0.96395
         Item               Value     Threshold  Converged?
 Maximum Force            0.030071     0.000450     NO 
 RMS     Force            0.009190     0.000300     NO 
 Maximum Displacement     1.014133     0.001800     NO 
 RMS     Displacement     0.251450     0.001200     NO 
 Predicted change in Energy=-2.070987D-02
 GradGradGradGradGradGradGradGradGradGradGradGradGradGradGradGradGradGrad

                          Input orientation:                          
 ---------------------------------------------------------------------
 Center     Atomic      Atomic             Coordinates (Angstroms)
 Number     Number       Type             X           Y           Z
 ---------------------------------------------------------------------
      1          6           0        1.659177    1.337896    1.925315
      2          6           0        1.009062    2.359933    0.991852
      3          8           0        1.036453    3.707028    1.396977
      4          6           0        3.150415    1.034732    1.940662
      5          6           0        4.168786    1.978324    2.562499
      6          8           0        4.584206    2.946740    1.620725
      7          1           0        1.202092    0.357053    1.631095
      8          1           0        1.317207    1.562055    2.968921
      9          1           0       -0.093793    2.145328    0.996637
     10          1           0        1.386356    2.228810   -0.058352
     11          1           0        1.935744    4.040020    1.328393
     12          1           0        3.498223    0.773301    0.906977
     13          1           0        3.227351    0.102850    2.561701
     14          1           0        5.087114    1.384557    2.818271
     15          1           0        3.770333    2.452728    3.497477
     16          1           0        5.220974    3.505245    2.081951
 ---------------------------------------------------------------------
                    Distance matrix (angstroms):
                    1          2          3          4          5
     1  C    0.000000
     2  C    1.529236   0.000000
     3  O    2.505935   1.406961   0.000000
     4  C    1.521819   2.691057   3.450448   0.000000
     5  C    2.667262   3.549142   3.762761   1.521225   0.000000
     6  O    3.352156   3.677156   3.635196   2.411202   1.413273
     7  H    1.121404   2.111261   3.362229   2.085915   3.506752
     8  H    1.120850   2.154151   2.674087   2.167034   2.910320
     9  H    2.141797   1.123551   1.968917   3.556612   4.544160
    10  H    2.191595   1.123597   2.103697   2.921264   3.830603
    11  H    2.781057   1.947997   0.961411   3.298796   3.280257
    12  H    2.176664   2.953053   3.860979   1.121526   2.154643
    13  H    2.095112   3.532656   4.375696   1.122503   2.098500
    14  H    3.542640   4.573584   4.880758   2.154849   1.123078
    15  H    2.858587   3.729796   3.668714   2.195150   1.121610
    16  H    4.172329   4.498917   4.245011   3.226548   1.915597
                    6          7          8          9         10
     6  O    0.000000
     7  H    4.259728   0.000000
     8  H    3.795823   1.804179   0.000000
     9  H    4.787005   2.297778   2.494200   0.000000
    10  H    3.682522   2.528173   3.100600   1.819563   0.000000
    11  H    2.880116   3.767509   3.035495   2.796237   2.346353
    12  H    2.532318   2.443322   3.103317   3.846176   2.740501
    13  H    3.288496   2.243284   2.437982   4.201326   3.843650
    14  H    2.031613   4.190292   3.777088   5.544269   4.762702
    15  H    2.104432   3.804090   2.662798   4.613042   4.286887
    16  H    0.964432   5.125017   4.449955   5.592318   4.573235
                   11         12         13         14         15
    11  H    0.000000
    12  H    3.645598   0.000000
    13  H    4.323264   1.805820   0.000000
    14  H    4.382049   2.559541   2.273173   0.000000
    15  H    3.254249   3.099227   2.586974   1.826533   0.000000
    16  H    3.412707   3.436852   3.972528   2.248867   2.283827
                   16
    16  H    0.000000
 Stoichiometry    C4H10O2
 Framework group  C1[X(C4H10O2)]
 Deg. of freedom    42
 Full point group                 C1      NOp   1
 Largest Abelian subgroup         C1      NOp   1
 Largest concise Abelian subgroup C1      NOp   1
                         Standard orientation:                         
 ---------------------------------------------------------------------
 Center     Atomic      Atomic             Coordinates (Angstroms)
 Number     Number       Type             X           Y           Z
 ---------------------------------------------------------------------
      1          6           0        0.752412    1.090305    0.179735
      2          6           0        1.756111    0.064521   -0.348391
      3          8           0        1.826494   -1.169148    0.324400
      4          6           0       -0.723800    1.097350   -0.189971
      5          6           0       -1.715209    0.099872    0.389919
      6          8           0       -1.737675   -1.081593   -0.385308
      7          1           0        1.119593    2.073191   -0.216067
      8          1           0        0.853786    1.124673    1.295462
      9          1           0        2.779639    0.485647   -0.154975
     10          1           0        1.636161   -0.067627   -1.457724
     11          1           0        1.031055   -1.676464    0.139418
     12          1           0       -0.838679    1.099579   -1.305596
     13          1           0       -1.087909    2.091657    0.182575
     14          1           0       -2.744959    0.540634    0.308383
     15          1           0       -1.496177   -0.115560    1.468632
     16          1           0       -2.380156   -1.662085    0.039400
 ---------------------------------------------------------------------
 Rotational constants (GHZ):      4.9215829      2.1580059      1.6579194
 Standard basis: VSTO-6G (5D, 7F)
 There are    34 symmetry adapted cartesian basis functions of A   symmetry.
 There are    34 symmetry adapted basis functions of A   symmetry.
    34 basis functions,   204 primitive gaussians,    34 cartesian basis functions
    19 alpha electrons       19 beta electrons
       nuclear repulsion energy       176.5574557784 Hartrees.
 Integral buffers will be    131072 words long.
 Regular integral format.
 Two-electron integral symmetry is turned off.
 Do NDO integrals.
 One-electron integrals computed using PRISM.
 NBasis=    34 RedAO= F EigKep=  0.00D+00  NBF=    34
 NBsUse=    34 1.00D-04 EigRej=  0.00D+00 NBFU=    34
 Initial guess from the checkpoint file:  "1-4-butanediol-opt.chk"
 B after Tr=     0.000000   -0.000000   -0.000000
         Rot=    0.999534   -0.003917   -0.016117   -0.025629 Ang=  -3.50 deg.
 Overlap will be assumed to be unity.
 Keep J ints in memory in canonical form, NReq=895124.
 Requested convergence on RMS density matrix=1.00D-08 within 128 cycles.
 Requested convergence on MAX density matrix=1.00D-06.
 Requested convergence on             energy=1.00D-06.
 No special actions if energy rises.
 SCF Done:  E(RAM1) = -0.182825701097     A.U. after   12 cycles
            NFock= 11  Conv=0.68D-08     -V/T= 0.9927
 Calling FoFJK, ICntrl=      2127 FMM=F ISym2X=0 I1Cent= 0 IOpClX= 0 NMat=1 NMatS=1 NMatT=0.
 ***** Axes restored to original set *****
 -------------------------------------------------------------------
 Center     Atomic                   Forces (Hartrees/Bohr)
 Number     Number              X              Y              Z
 -------------------------------------------------------------------
      1        6           0.005010823    0.009356380    0.003959921
      2        6           0.006980772   -0.008605785   -0.001283982
      3        8           0.004523006    0.000066044    0.003967640
      4        6          -0.003106302    0.003674252   -0.005667400
      5        6          -0.006498072   -0.002933049    0.000692639
      6        8          -0.007033481    0.006766732   -0.004554413
      7        1          -0.004743989   -0.003598608   -0.000345003
      8        1           0.001756085    0.002397219    0.001226263
      9        1          -0.004875366   -0.003091213   -0.001639289
     10        1           0.003159451    0.002987030    0.002095184
     11        1           0.004334000   -0.002996577   -0.000227954
     12        1          -0.001313404    0.002978565   -0.001543682
     13        1           0.001887328   -0.004976949    0.000932546
     14        1           0.000958475   -0.005306955    0.005482743
     15        1          -0.001208842    0.001939537   -0.001909943
     16        1           0.000169514    0.001343378   -0.001185271
 -------------------------------------------------------------------
 Cartesian Forces:  Max     0.009356380 RMS     0.003973914

 GradGradGradGradGradGradGradGradGradGradGradGradGradGradGradGradGradGrad
 Berny optimization.
 Using GEDIIS/GDIIS optimizer.
 FormGI is forming the generalized inverse of G from B-inverse, IUseBI=4.
 Internal  Forces:  Max     0.030844815 RMS     0.007526817
 Search for a local minimum.
 Step number   2 out of a maximum of   84
 All quantities printed in internal units (Hartrees-Bohrs-Radians)
 Mixed Optimization -- RFO/linear search
 Update second derivatives using D2CorX and points    2    1
 DE=  4.00D-03 DEPred=-2.07D-02 R=-1.93D-01
 Trust test=-1.93D-01 RLast= 5.74D-01 DXMaxT set to 1.50D-01
 ITU= -1  0
 Use linear search instead of GDIIS.
 Energy rises -- skip Quadratic/GDIIS search.
 Quartic linear search produced a step of -0.69683.
 Iteration  1 RMS(Cart)=  0.16814093 RMS(Int)=  0.00810550
 Iteration  2 RMS(Cart)=  0.01286384 RMS(Int)=  0.00027347
 Iteration  3 RMS(Cart)=  0.00009836 RMS(Int)=  0.00026981
 Iteration  4 RMS(Cart)=  0.00000002 RMS(Int)=  0.00026981
 Variable       Old X    -DE/DX   Delta X   Delta X   Delta X     New X
                                 (Linear)    (Quad)   (Total)
    R1        2.88984  -0.01556   0.00784   0.00000   0.00784   2.89768
    R2        2.87582  -0.01659   0.02483   0.00000   0.02483   2.90066
    R3        2.11915   0.00517  -0.02878   0.00000  -0.02878   2.09037
    R4        2.11810   0.00109  -0.02883   0.00000  -0.02883   2.08927
    R5        2.65877  -0.00156   0.01061   0.00000   0.01061   2.66938
    R6        2.12320   0.00537  -0.03596   0.00000  -0.03596   2.08724
    R7        2.12329  -0.00125  -0.02491   0.00000  -0.02491   2.09838
    R8        1.81680   0.00303   0.02125   0.00000   0.02125   1.83806
    R9        2.87470  -0.00859   0.00733   0.00000   0.00733   2.88203
   R10        2.11938   0.00032  -0.02980   0.00000  -0.02980   2.08958
   R11        2.12122   0.00478  -0.03177   0.00000  -0.03177   2.08945
   R12        2.67070   0.00736   0.03238   0.00000   0.03238   2.70308
   R13        2.12231   0.00484  -0.03123   0.00000  -0.03123   2.09109
   R14        2.11954  -0.00034  -0.02819   0.00000  -0.02819   2.09134
   R15        1.82251   0.00032   0.00709   0.00000   0.00709   1.82961
    A1        2.16021  -0.03084  -0.08535   0.00000  -0.08521   2.07500
    A2        1.82464   0.00693   0.04073   0.00000   0.04000   1.86465
    A3        1.88071   0.01038   0.00402   0.00000   0.00488   1.88559
    A4        1.80063   0.01122   0.05309   0.00000   0.05249   1.85312
    A5        1.90648   0.00814   0.00390   0.00000   0.00481   1.91129
    A6        1.87010  -0.00363  -0.00717   0.00000  -0.00695   1.86314
    A7        2.04413  -0.01791  -0.03814   0.00000  -0.03793   2.00620
    A8        1.86193   0.00440   0.02403   0.00000   0.02383   1.88576
    A9        1.92815   0.00412  -0.01309   0.00000  -0.01276   1.91538
   A10        1.77293   0.00836   0.05460   0.00000   0.05444   1.82737
   A11        1.95447   0.00336  -0.00598   0.00000  -0.00549   1.94898
   A12        1.88735  -0.00083  -0.01485   0.00000  -0.01490   1.87245
   A13        1.90635  -0.00741  -0.03947   0.00000  -0.03947   1.86688
   A14        2.13713  -0.02757  -0.06505   0.00000  -0.06490   2.07223
   A15        1.91881   0.00686   0.00324   0.00000   0.00400   1.92281
   A16        1.81123   0.00927   0.05335   0.00000   0.05298   1.86421
   A17        1.88993   0.00928  -0.00495   0.00000  -0.00438   1.88555
   A18        1.81616   0.00742   0.03139   0.00000   0.03082   1.84698
   A19        1.87042  -0.00328  -0.01061   0.00000  -0.01050   1.85991
   A20        1.92774  -0.01038  -0.01090   0.00000  -0.01077   1.91697
   A21        1.88867   0.00079   0.01418   0.00000   0.01422   1.90289
   A22        1.94475   0.00180  -0.01342   0.00000  -0.01331   1.93143
   A23        1.84802   0.00889   0.03802   0.00000   0.03805   1.88607
   A24        1.94990   0.00034  -0.01458   0.00000  -0.01444   1.93546
   A25        1.90102  -0.00094  -0.01099   0.00000  -0.01105   1.88997
   A26        1.84648   0.00317   0.02892   0.00000   0.02892   1.87541
    D1       -1.45614   0.00650   0.13965   0.00000   0.13999  -1.31615
    D2        2.85677   0.00277   0.07707   0.00000   0.07727   2.93404
    D3        0.80937  -0.00096   0.08823   0.00000   0.08831   0.89768
    D4        2.78205   0.00469   0.09124   0.00000   0.09127   2.87333
    D5        0.81178   0.00096   0.02866   0.00000   0.02855   0.84033
    D6       -1.23563  -0.00277   0.03982   0.00000   0.03959  -1.19603
    D7        0.79654   0.00118   0.07780   0.00000   0.07783   0.87436
    D8       -1.17374  -0.00255   0.01522   0.00000   0.01510  -1.15864
    D9        3.06204  -0.00628   0.02638   0.00000   0.02614   3.08819
   D10        1.31322  -0.00378  -0.08746   0.00000  -0.08789   1.22534
   D11       -0.93418   0.00128  -0.02664   0.00000  -0.02688  -0.96106
   D12       -2.92987  -0.00264  -0.04446   0.00000  -0.04456  -2.97443
   D13       -2.91359  -0.00359  -0.04468   0.00000  -0.04466  -2.95825
   D14        1.12219   0.00147   0.01615   0.00000   0.01634   1.13853
   D15       -0.87350  -0.00245  -0.00168   0.00000  -0.00134  -0.87483
   D16       -0.92872   0.00105  -0.02395   0.00000  -0.02405  -0.95277
   D17        3.10706   0.00611   0.03688   0.00000   0.03696  -3.13916
   D18        1.11137   0.00219   0.01905   0.00000   0.01928   1.13065
   D19        1.24029  -0.00410  -0.06536   0.00000  -0.06551   1.17477
   D20       -3.02300  -0.00165  -0.01945   0.00000  -0.01935  -3.04235
   D21       -1.01279   0.00333  -0.00905   0.00000  -0.00900  -1.02179
   D22       -1.51681   0.00671   0.13024   0.00000   0.13044  -1.38637
   D23        2.75086   0.00125   0.08220   0.00000   0.08238   2.83324
   D24        0.66129   0.00081   0.09490   0.00000   0.09503   0.75632
   D25        0.74291   0.00108   0.07514   0.00000   0.07503   0.81793
   D26       -1.27261  -0.00438   0.02710   0.00000   0.02697  -1.24564
   D27        2.92100  -0.00482   0.03980   0.00000   0.03962   2.96062
   D28        2.72870   0.00474   0.07583   0.00000   0.07583   2.80453
   D29        0.71318  -0.00071   0.02779   0.00000   0.02777   0.74095
   D30       -1.37639  -0.00115   0.04049   0.00000   0.04042  -1.33597
   D31        3.13909  -0.00212  -0.02206   0.00000  -0.02208   3.11702
   D32       -1.10324  -0.00146   0.01109   0.00000   0.01103  -1.09222
   D33        0.96395   0.00299   0.01269   0.00000   0.01277   0.97671
         Item               Value     Threshold  Converged?
 Maximum Force            0.030845     0.000450     NO 
 RMS     Force            0.007527     0.000300     NO 
 Maximum Displacement     0.718642     0.001800     NO 
 RMS     Displacement     0.174193     0.001200     NO 
 Predicted change in Energy=-4.469908D-03
 GradGradGradGradGradGradGradGradGradGradGradGradGradGradGradGradGradGrad

                          Input orientation:                          
 ---------------------------------------------------------------------
 Center     Atomic      Atomic             Coordinates (Angstroms)
 Number     Number       Type             X           Y           Z
 ---------------------------------------------------------------------
      1          6           0        1.624489    1.276816    1.947740
      2          6           0        1.089482    2.372498    1.017942
      3          8           0        1.354054    3.694142    1.440590
      4          6           0        3.128590    0.970589    1.944369
      5          6           0        4.087452    1.999122    2.534837
      6          8           0        4.316179    3.048151    1.589698
      7          1           0        1.117927    0.336596    1.659630
      8          1           0        1.297908    1.512108    2.977458
      9          1           0       -0.012455    2.298921    1.001017
     10          1           0        1.448008    2.193691   -0.017677
     11          1           0        2.316033    3.824351    1.379732
     12          1           0        3.467598    0.735982    0.918341
     13          1           0        3.268898    0.050256    2.540902
     14          1           0        5.057151    1.509307    2.745139
     15          1           0        3.689504    2.403728    3.484940
     16          1           0        4.908881    3.690342    2.006443
 ---------------------------------------------------------------------
                    Distance matrix (angstroms):
                    1          2          3          4          5
     1  C    0.000000
     2  C    1.533386   0.000000
     3  O    2.484713   1.412577   0.000000
     4  C    1.534961   2.642267   3.289455   0.000000
     5  C    2.632982   3.380562   3.397342   1.525106   0.000000
     6  O    3.242069   3.345890   3.035412   2.419178   1.430408
     7  H    1.106177   2.134823   3.372959   2.127390   3.513980
     8  H    1.105593   2.150212   2.669530   2.170693   2.866121
     9  H    2.149551   1.104520   2.001802   3.538437   4.387678
    10  H    2.175929   1.110415   2.094451   2.858314   3.676935
    11  H    2.700148   1.934734   0.972657   3.020434   2.793502
    12  H    2.179269   2.888519   3.672945   1.105758   2.143083
    13  H    2.135503   3.530165   4.260894   1.105690   2.113798
    14  H    3.531723   4.412562   4.493138   2.156571   1.106555
    15  H    2.810196   3.584295   3.361379   2.177584   1.106690
    16  H    4.076246   4.159526   3.599584   3.251208   1.952991
                    6          7          8          9         10
     6  O    0.000000
     7  H    4.193594   0.000000
     8  H    3.659954   1.775075   0.000000
     9  H    4.432263   2.358443   2.498489   0.000000
    10  H    3.397081   2.524106   3.075373   1.783749   0.000000
    11  H    2.155726   3.698410   2.989276   2.809309   2.316306
    12  H    2.552829   2.495991   3.090289   3.815806   2.660787
    13  H    3.314960   2.342073   2.492467   4.265562   3.802142
    14  H    2.062068   4.251008   3.766416   5.419073   4.596460
    15  H    2.097605   3.770650   2.602356   4.459300   4.163742
    16  H    0.968186   5.073384   4.327436   5.212148   4.279565
                   11         12         13         14         15
    11  H    0.000000
    12  H    3.328214   0.000000
    13  H    4.062026   1.772683   0.000000
    14  H    3.838944   2.542027   2.316978   0.000000
    15  H    2.887299   3.068885   2.570398   1.793810   0.000000
    16  H    2.670878   3.462587   4.028079   2.307503   2.308292
                   16
    16  H    0.000000
 Stoichiometry    C4H10O2
 Framework group  C1[X(C4H10O2)]
 Deg. of freedom    42
 Full point group                 C1      NOp   1
 Largest Abelian subgroup         C1      NOp   1
 Largest concise Abelian subgroup C1      NOp   1
                         Standard orientation:                         
 ---------------------------------------------------------------------
 Center     Atomic      Atomic             Coordinates (Angstroms)
 Number     Number       Type             X           Y           Z
 ---------------------------------------------------------------------
      1          6           0        0.798776    1.142947    0.201830
      2          6           0        1.682753    0.000080   -0.311702
      3          8           0        1.474340   -1.245152    0.321806
      4          6           0       -0.677559    1.183891   -0.216334
      5          6           0       -1.629468    0.135959    0.350817
      6          8           0       -1.478779   -1.093991   -0.363733
      7          1           0        1.248801    2.085076   -0.163545
      8          1           0        0.870750    1.162248    1.304909
      9          1           0        2.734389    0.254809   -0.090027
     10          1           0        1.588349   -0.080396   -1.415166
     11          1           0        0.583757   -1.545460    0.071326
     12          1           0       -0.762322    1.162509   -1.318631
     13          1           0       -1.075792    2.161876    0.111547
     14          1           0       -2.671062    0.484886    0.217416
     15          1           0       -1.448442   -0.011335    1.432620
     16          1           0       -2.079930   -1.738331    0.037299
 ---------------------------------------------------------------------
 Rotational constants (GHZ):      4.6341822      2.6307579      1.8645105
 Standard basis: VSTO-6G (5D, 7F)
 There are    34 symmetry adapted cartesian basis functions of A   symmetry.
 There are    34 symmetry adapted basis functions of A   symmetry.
    34 basis functions,   204 primitive gaussians,    34 cartesian basis functions
    19 alpha electrons       19 beta electrons
       nuclear repulsion energy       179.6243902974 Hartrees.
 Integral buffers will be    131072 words long.
 Regular integral format.
 Two-electron integral symmetry is turned off.
 Do NDO integrals.
 One-electron integrals computed using PRISM.
 NBasis=    34 RedAO= F EigKep=  0.00D+00  NBF=    34
 NBsUse=    34 1.00D-04 EigRej=  0.00D+00 NBFU=    34
 Lowest energy guess from the checkpoint file:  "1-4-butanediol-opt.chk"
 B after Tr=     0.000000   -0.000000    0.000000
         Rot=    0.999925   -0.001270   -0.005443   -0.010903 Ang=  -1.40 deg.
 B after Tr=    -0.000000   -0.000000    0.000000
         Rot=    0.999830    0.002601    0.010699    0.014763 Ang=   2.11 deg.
 Overlap will be assumed to be unity.
 Keep J ints in memory in canonical form, NReq=895124.
 Requested convergence on RMS density matrix=1.00D-08 within 128 cycles.
 Requested convergence on MAX density matrix=1.00D-06.
 Requested convergence on             energy=1.00D-06.
 No special actions if energy rises.
 SCF Done:  E(RAM1) = -0.190161444533     A.U. after   10 cycles
            NFock=  9  Conv=0.73D-08     -V/T= 0.9924
 Calling FoFJK, ICntrl=      2127 FMM=F ISym2X=0 I1Cent= 0 IOpClX= 0 NMat=1 NMatS=1 NMatT=0.
 ***** Axes restored to original set *****
 -------------------------------------------------------------------
 Center     Atomic                   Forces (Hartrees/Bohr)
 Number     Number              X              Y              Z
 -------------------------------------------------------------------
      1        6           0.018999340    0.013314469   -0.003109933
      2        6           0.014089030   -0.007154200    0.007647637
      3        8           0.007635883   -0.005838025   -0.000191151
      4        6          -0.011907159    0.016844841   -0.003162996
      5        6          -0.009390830    0.006504842   -0.012149560
      6        8          -0.005342678   -0.004772255    0.003657875
      7        1          -0.005509808   -0.009814119   -0.004357971
      8        1          -0.000386391    0.004160920    0.010452998
      9        1          -0.014811817    0.000675417    0.001524326
     10        1           0.006701372    0.001371065   -0.007017237
     11        1          -0.004095113   -0.001007313    0.000977675
     12        1           0.000485458    0.000582968   -0.011671104
     13        1           0.000609422   -0.010472189    0.007761236
     14        1           0.010747786   -0.006504287    0.002295041
     15        1          -0.005145310    0.006360140    0.006876715
     16        1          -0.002679184   -0.004252274    0.000466449
 -------------------------------------------------------------------
 Cartesian Forces:  Max     0.018999340 RMS     0.007834275

 GradGradGradGradGradGradGradGradGradGradGradGradGradGradGradGradGradGrad
 Berny optimization.
 Using GEDIIS/GDIIS optimizer.
 FormGI is forming the generalized inverse of G from B-inverse, IUseBI=4.
 Internal  Forces:  Max     0.023010875 RMS     0.006742634
 Search for a local minimum.
 Step number   3 out of a maximum of   84
 All quantities printed in internal units (Hartrees-Bohrs-Radians)
 Mixed Optimization -- RFO/linear search
 Update second derivatives using D2CorX and points    2    1    3
 ITU=  0 -1  0
 Use linear search instead of GDIIS.
     Eigenvalues ---    0.00231   0.00328   0.00501   0.01191   0.01514
     Eigenvalues ---    0.02932   0.03379   0.04572   0.04693   0.04829
     Eigenvalues ---    0.05680   0.05868   0.06041   0.09267   0.09301
     Eigenvalues ---    0.11300   0.11918   0.12898   0.12921   0.13754
     Eigenvalues ---    0.14168   0.15577   0.16056   0.21484   0.22044
     Eigenvalues ---    0.22078   0.23145   0.28822   0.29537   0.30140
     Eigenvalues ---    0.33222   0.33673   0.33740   0.33771   0.33801
     Eigenvalues ---    0.33843   0.34041   0.39319   0.43133   0.50942
     Eigenvalues ---    0.53348   0.95898
 RFO step:  Lambda=-1.08882200D-02 EMin= 2.31127580D-03
 Quartic linear search produced a step of -0.13044.
 Maximum step size (   0.150) exceeded in Quadratic search.
    -- Step size scaled by   0.664
 Iteration  1 RMS(Cart)=  0.03787133 RMS(Int)=  0.00034792
 Iteration  2 RMS(Cart)=  0.00036677 RMS(Int)=  0.00006854
 Iteration  3 RMS(Cart)=  0.00000014 RMS(Int)=  0.00006854
 Variable       Old X    -DE/DX   Delta X   Delta X   Delta X     New X
                                 (Linear)    (Quad)   (Total)
    R1        2.89768  -0.01365   0.00045  -0.03037  -0.02993   2.86775
    R2        2.90066  -0.02301   0.00141  -0.05845  -0.05704   2.84361
    R3        2.09037   0.01200  -0.00163   0.03614   0.03451   2.12488
    R4        2.08927   0.01074  -0.00164   0.03404   0.03241   2.12167
    R5        2.66938  -0.00551   0.00060  -0.01322  -0.01261   2.65677
    R6        2.08724   0.01471  -0.00204   0.04445   0.04240   2.12965
    R7        2.09838   0.00849  -0.00141   0.02835   0.02694   2.12532
    R8        1.83806  -0.00425   0.00121  -0.01695  -0.01574   1.82231
    R9        2.88203  -0.00878   0.00042  -0.02042  -0.02000   2.86203
   R10        2.08958   0.01085  -0.00169   0.03478   0.03309   2.12267
   R11        2.08945   0.01298  -0.00180   0.03938   0.03758   2.12703
   R12        2.70308  -0.01063   0.00184  -0.03339  -0.03155   2.67153
   R13        2.09109   0.01273  -0.00177   0.03873   0.03696   2.12804
   R14        2.09134   0.01008  -0.00160   0.03266   0.03106   2.12240
   R15        1.82961  -0.00426   0.00040  -0.00857  -0.00817   1.82144
    A1        2.07500  -0.01825  -0.00486  -0.00250  -0.00741   2.06759
    A2        1.86465   0.00447   0.00241  -0.00795  -0.00566   1.85899
    A3        1.88559   0.00651   0.00012   0.00459   0.00473   1.89032
    A4        1.85312   0.00612   0.00309  -0.00772  -0.00473   1.84839
    A5        1.91129   0.00378   0.00010  -0.00586  -0.00570   1.90559
    A6        1.86314  -0.00138  -0.00044   0.02250   0.02209   1.88523
    A7        2.00620  -0.01028  -0.00219  -0.00867  -0.01089   1.99531
    A8        1.88576   0.00351   0.00139   0.00561   0.00682   1.89258
    A9        1.91538   0.00276  -0.00079   0.00777   0.00685   1.92223
   A10        1.82737   0.00271   0.00312  -0.01882  -0.01571   1.81166
   A11        1.94898   0.00114  -0.00040  -0.01168  -0.01205   1.93693
   A12        1.87245   0.00097  -0.00084   0.02823   0.02721   1.89966
   A13        1.86688  -0.00034  -0.00224   0.02050   0.01826   1.88513
   A14        2.07223  -0.01746  -0.00371  -0.01195  -0.01574   2.05649
   A15        1.92281   0.00287   0.00008  -0.00999  -0.00983   1.91298
   A16        1.86421   0.00482   0.00308  -0.01154  -0.00849   1.85572
   A17        1.88555   0.00683  -0.00036   0.01026   0.00977   1.89532
   A18        1.84698   0.00535   0.00186   0.00302   0.00467   1.85164
   A19        1.85991  -0.00107  -0.00062   0.02481   0.02411   1.88402
   A20        1.91697  -0.00878  -0.00063  -0.01843  -0.01911   1.89786
   A21        1.90289   0.00153   0.00080   0.00149   0.00221   1.90509
   A22        1.93143   0.00244  -0.00078   0.00791   0.00702   1.93846
   A23        1.88607   0.00423   0.00215  -0.00222  -0.00009   1.88598
   A24        1.93546   0.00053  -0.00084  -0.00535  -0.00620   1.92925
   A25        1.88997   0.00028  -0.00062   0.01702   0.01633   1.90631
   A26        1.87541  -0.00494   0.00164  -0.03224  -0.03060   1.84480
    D1       -1.31615   0.00241   0.00788  -0.00147   0.00645  -1.30970
    D2        2.93404   0.00275   0.00435   0.02346   0.02790   2.96194
    D3        0.89768  -0.00189   0.00500  -0.01766  -0.01271   0.88497
    D4        2.87333   0.00286   0.00517   0.01686   0.02203   2.89535
    D5        0.84033   0.00320   0.00164   0.04179   0.04348   0.88381
    D6       -1.19603  -0.00144   0.00229   0.00067   0.00287  -1.19316
    D7        0.87436  -0.00090   0.00441  -0.00743  -0.00303   0.87134
    D8       -1.15864  -0.00056   0.00088   0.01750   0.01843  -1.14021
    D9        3.08819  -0.00520   0.00153  -0.02362  -0.02218   3.06601
   D10        1.22534  -0.00085  -0.00491   0.01209   0.00716   1.23250
   D11       -0.96106   0.00144  -0.00148   0.01688   0.01533  -0.94573
   D12       -2.97443  -0.00141  -0.00251  -0.00099  -0.00345  -2.97788
   D13       -2.95825  -0.00202  -0.00254  -0.00628  -0.00879  -2.96704
   D14        1.13853   0.00027   0.00089  -0.00148  -0.00062   1.13791
   D15       -0.87483  -0.00257  -0.00014  -0.01935  -0.01940  -0.89424
   D16       -0.95277   0.00142  -0.00135   0.01307   0.01171  -0.94106
   D17       -3.13916   0.00371   0.00208   0.01786   0.01987  -3.11929
   D18        1.13065   0.00087   0.00105  -0.00001   0.00109   1.13174
   D19        1.17477  -0.00188  -0.00369  -0.00066  -0.00436   1.17041
   D20       -3.04235  -0.00139  -0.00112  -0.01112  -0.01215  -3.05450
   D21       -1.02179   0.00183  -0.00052   0.00585   0.00525  -1.01654
   D22       -1.38637   0.00267   0.00737  -0.00092   0.00648  -1.37988
   D23        2.83324   0.00177   0.00464   0.01167   0.01636   2.84960
   D24        0.75632  -0.00100   0.00537  -0.01491  -0.00955   0.74677
   D25        0.81793  -0.00113   0.00428  -0.01508  -0.01087   0.80706
   D26       -1.24564  -0.00203   0.00155  -0.00249  -0.00100  -1.24664
   D27        2.96062  -0.00480   0.00228  -0.02907  -0.02690   2.93372
   D28        2.80453   0.00332   0.00430   0.01944   0.02381   2.82834
   D29        0.74095   0.00241   0.00158   0.03204   0.03369   0.77464
   D30       -1.33597  -0.00036   0.00231   0.00545   0.00778  -1.32819
   D31        3.11702  -0.00074  -0.00125  -0.00142  -0.00263   3.11438
   D32       -1.09222  -0.00140   0.00064  -0.01146  -0.01079  -1.10300
   D33        0.97671   0.00183   0.00071   0.00479   0.00543   0.98214
         Item               Value     Threshold  Converged?
 Maximum Force            0.023011     0.000450     NO 
 RMS     Force            0.006743     0.000300     NO 
 Maximum Displacement     0.145041     0.001800     NO 
 RMS     Displacement     0.037924     0.001200     NO 
 Predicted change in Energy=-5.135179D-03
 GradGradGradGradGradGradGradGradGradGradGradGradGradGradGradGradGradGrad

                          Input orientation:                          
 ---------------------------------------------------------------------
 Center     Atomic      Atomic             Coordinates (Angstroms)
 Number     Number       Type             X           Y           Z
 ---------------------------------------------------------------------
      1          6           0        1.644918    1.279651    1.950339
      2          6           0        1.122544    2.363566    1.025563
      3          8           0        1.411987    3.673246    1.446894
      4          6           0        3.118472    0.974975    1.937780
      5          6           0        4.058653    2.005943    2.526796
      6          8           0        4.251138    3.038321    1.580367
      7          1           0        1.130594    0.326498    1.648130
      8          1           0        1.328418    1.527714    2.998595
      9          1           0       -0.003672    2.322766    1.029041
     10          1           0        1.489149    2.187659   -0.023027
     11          1           0        2.366178    3.800657    1.390232
     12          1           0        3.447584    0.748485    0.887961
     13          1           0        3.253874    0.041932    2.552612
     14          1           0        5.056955    1.524477    2.726074
     15          1           0        3.650779    2.422474    3.486770
     16          1           0        4.832129    3.678236    2.006972
 ---------------------------------------------------------------------
                    Distance matrix (angstroms):
                    1          2          3          4          5
     1  C    0.000000
     2  C    1.517550   0.000000
     3  O    2.457033   1.405902   0.000000
     4  C    1.504775   2.596932   3.230128   0.000000
     5  C    2.585715   3.316976   3.309218   1.514521   0.000000
     6  O    3.165783   3.248262   2.912340   2.380771   1.413711
     7  H    1.124437   2.130093   3.364580   2.110943   3.487996
     8  H    1.122742   2.152647   2.649164   2.152939   2.811669
     9  H    2.157481   1.126960   2.000622   3.519961   4.341213
    10  H    2.177824   1.124670   2.091314   2.823130   3.624496
    11  H    2.681307   1.935160   0.964326   2.974934   2.716109
    12  H    2.158793   2.834295   3.606977   1.123269   2.154155
    13  H    2.117408   3.502061   4.219194   1.125576   2.122658
    14  H    3.507663   4.367539   4.420328   2.163579   1.126112
    15  H    2.773110   3.528878   3.276845   2.185857   1.123125
    16  H    3.989327   4.056174   3.465701   3.201410   1.914430
                    6          7          8          9         10
     6  O    0.000000
     7  H    4.134776   0.000000
     8  H    3.582680   1.818189   0.000000
     9  H    4.349642   2.378006   2.507133   0.000000
    10  H    3.305009   2.526905   3.097025   1.831288   0.000000
    11  H    2.042152   3.696344   2.971540   2.816169   2.316948
    12  H    2.523583   2.474747   3.090767   3.795975   2.595493
    13  H    3.304261   2.325378   2.472616   4.258529   3.788445
    14  H    2.062452   4.244223   3.738484   5.396955   4.552648
    15  H    2.091428   3.758329   2.536192   4.405154   4.128735
    16  H    0.963864   5.006424   4.228954   5.116504   4.185479
                   11         12         13         14         15
    11  H    0.000000
    12  H    3.276807   0.000000
    13  H    4.033255   1.818737   0.000000
    14  H    3.769052   2.563376   2.340754   0.000000
    15  H    2.818698   3.097956   2.587887   1.833682   0.000000
    16  H    2.544852   3.428205   4.001414   2.281739   2.272076
                   16
    16  H    0.000000
 Stoichiometry    C4H10O2
 Framework group  C1[X(C4H10O2)]
 Deg. of freedom    42
 Full point group                 C1      NOp   1
 Largest Abelian subgroup         C1      NOp   1
 Largest concise Abelian subgroup C1      NOp   1
                         Standard orientation:                         
 ---------------------------------------------------------------------
 Center     Atomic      Atomic             Coordinates (Angstroms)
 Number     Number       Type             X           Y           Z
 ---------------------------------------------------------------------
      1          6           0        0.776062    1.135395    0.206280
      2          6           0        1.650079    0.005024   -0.304910
      3          8           0        1.416745   -1.234051    0.317029
      4          6           0       -0.666618    1.175367   -0.219658
      5          6           0       -1.600167    0.125482    0.346030
      6          8           0       -1.410473   -1.081532   -0.365104
      7          1           0        1.235248    2.090025   -0.170800
      8          1           0        0.829983    1.143412    1.327697
      9          1           0        2.721837    0.238162   -0.046030
     10          1           0        1.556873   -0.081467   -1.422370
     11          1           0        0.533977   -1.531354    0.067516
     12          1           0       -0.729629    1.144023   -1.340720
     13          1           0       -1.070182    2.168750    0.122757
     14          1           0       -2.665378    0.457153    0.192899
     15          1           0       -1.415382   -0.030189    1.442857
     16          1           0       -2.003658   -1.721468    0.044345
 ---------------------------------------------------------------------
 Rotational constants (GHZ):      4.6965397      2.7694322      1.9450322
 Standard basis: VSTO-6G (5D, 7F)
 There are    34 symmetry adapted cartesian basis functions of A   symmetry.
 There are    34 symmetry adapted basis functions of A   symmetry.
    34 basis functions,   204 primitive gaussians,    34 cartesian basis functions
    19 alpha electrons       19 beta electrons
       nuclear repulsion energy       180.9460588226 Hartrees.
 Integral buffers will be    131072 words long.
 Regular integral format.
 Two-electron integral symmetry is turned off.
 Do NDO integrals.
 One-electron integrals computed using PRISM.
 NBasis=    34 RedAO= F EigKep=  0.00D+00  NBF=    34
 NBsUse=    34 1.00D-04 EigRej=  0.00D+00 NBFU=    34
 Initial guess from the checkpoint file:  "1-4-butanediol-opt.chk"
 B after Tr=     0.000000   -0.000000    0.000000
         Rot=    0.999996   -0.000986    0.002405   -0.001019 Ang=  -0.32 deg.
 Overlap will be assumed to be unity.
 Keep J ints in memory in canonical form, NReq=895124.
 Requested convergence on RMS density matrix=1.00D-08 within 128 cycles.
 Requested convergence on MAX density matrix=1.00D-06.
 Requested convergence on             energy=1.00D-06.
 No special actions if energy rises.
 SCF Done:  E(RAM1) = -0.193613637920     A.U. after   11 cycles
            NFock= 10  Conv=0.44D-08     -V/T= 0.9923
 Calling FoFJK, ICntrl=      2127 FMM=F ISym2X=0 I1Cent= 0 IOpClX= 0 NMat=1 NMatS=1 NMatT=0.
 ***** Axes restored to original set *****
 -------------------------------------------------------------------
 Center     Atomic                   Forces (Hartrees/Bohr)
 Number     Number              X              Y              Z
 -------------------------------------------------------------------
      1        6          -0.003447892    0.001766893    0.005223560
      2        6           0.000728794   -0.004686462   -0.004178055
      3        8          -0.000338244    0.003094939    0.002259744
      4        6           0.003114756   -0.004057604   -0.004382711
      5        6          -0.001973830   -0.003508642    0.003761352
      6        8           0.001744333    0.005071785   -0.002485976
      7        1          -0.002574625   -0.000421764    0.001134418
      8        1           0.000077271    0.000374886    0.000133799
      9        1          -0.000191139    0.000121489   -0.000826182
     10        1           0.001006746    0.001248069    0.001057030
     11        1           0.000654381   -0.000314295   -0.000399269
     12        1          -0.000253010    0.000858650   -0.000001849
     13        1           0.001724448   -0.001248560   -0.001068021
     14        1          -0.000365459   -0.001025307    0.002164316
     15        1          -0.000359721    0.000519199   -0.000620196
     16        1           0.000453191    0.002206723   -0.001771959
 -------------------------------------------------------------------
 Cartesian Forces:  Max     0.005223560 RMS     0.002247351

 GradGradGradGradGradGradGradGradGradGradGradGradGradGradGradGradGradGrad
 Berny optimization.
 Using GEDIIS/GDIIS optimizer.
 FormGI is forming the generalized inverse of G from B-inverse, IUseBI=4.
 Internal  Forces:  Max     0.008464943 RMS     0.001930393
 Search for a local minimum.
 Step number   4 out of a maximum of   84
 All quantities printed in internal units (Hartrees-Bohrs-Radians)
 Mixed Optimization -- RFO/linear search
 Update second derivatives using D2CorX and points    2    1    3    4
 DE= -3.45D-03 DEPred=-5.14D-03 R= 6.72D-01
 TightC=F SS=  1.41D+00  RLast= 1.72D-01 DXNew= 2.5227D-01 5.1590D-01
 Trust test= 6.72D-01 RLast= 1.72D-01 DXMaxT set to 2.52D-01
 ITU=  1  0 -1  0
 Use linear search instead of GDIIS.
     Eigenvalues ---    0.00231   0.00326   0.00477   0.01191   0.01508
     Eigenvalues ---    0.03023   0.03422   0.04716   0.04770   0.04979
     Eigenvalues ---    0.05782   0.05972   0.06133   0.09132   0.09237
     Eigenvalues ---    0.11213   0.11893   0.12778   0.12835   0.13665
     Eigenvalues ---    0.14107   0.16001   0.16604   0.22022   0.22089
     Eigenvalues ---    0.22147   0.27238   0.28845   0.29580   0.30241
     Eigenvalues ---    0.33277   0.33699   0.33746   0.33796   0.33824
     Eigenvalues ---    0.33948   0.34031   0.42513   0.44380   0.50923
     Eigenvalues ---    0.53507   0.62114
 RFO step:  Lambda=-2.64536230D-03 EMin= 2.30938500D-03
 Quartic linear search produced a step of -0.07849.
 Iteration  1 RMS(Cart)=  0.06558515 RMS(Int)=  0.00209792
 Iteration  2 RMS(Cart)=  0.00339061 RMS(Int)=  0.00008209
 Iteration  3 RMS(Cart)=  0.00000572 RMS(Int)=  0.00008204
 Iteration  4 RMS(Cart)=  0.00000000 RMS(Int)=  0.00008204
 Variable       Old X    -DE/DX   Delta X   Delta X   Delta X     New X
                                 (Linear)    (Quad)   (Total)
    R1        2.86775   0.00025   0.00235  -0.00377  -0.00142   2.86634
    R2        2.84361   0.00428   0.00448   0.00472   0.00920   2.85281
    R3        2.12488   0.00123  -0.00271   0.00684   0.00413   2.12901
    R4        2.12167   0.00019  -0.00254   0.00409   0.00155   2.12322
    R5        2.65677   0.00321   0.00099   0.00574   0.00673   2.66350
    R6        2.12965   0.00018  -0.00333   0.00473   0.00140   2.13105
    R7        2.12532  -0.00085  -0.00211   0.00079  -0.00133   2.12399
    R8        1.82231   0.00063   0.00124   0.00101   0.00224   1.82455
    R9        2.86203   0.00232   0.00157   0.00437   0.00594   2.86797
   R10        2.12267  -0.00025  -0.00260   0.00304   0.00045   2.12312
   R11        2.12703   0.00066  -0.00295   0.00561   0.00266   2.12969
   R12        2.67153   0.00846   0.00248   0.01625   0.01873   2.69025
   R13        2.12804   0.00050  -0.00290   0.00507   0.00217   2.13021
   R14        2.12240  -0.00021  -0.00244   0.00301   0.00058   2.12297
   R15        1.82144   0.00095   0.00064   0.00067   0.00131   1.82275
    A1        2.06759  -0.00679   0.00058  -0.04420  -0.04357   2.02402
    A2        1.85899   0.00118   0.00044   0.00585   0.00654   1.86553
    A3        1.89032   0.00209  -0.00037   0.00943   0.00900   1.89932
    A4        1.84839   0.00289   0.00037   0.02197   0.02231   1.87070
    A5        1.90559   0.00227   0.00045   0.01039   0.01065   1.91625
    A6        1.88523  -0.00144  -0.00173  -0.00064  -0.00260   1.88264
    A7        1.99531  -0.00180   0.00085  -0.01716  -0.01633   1.97898
    A8        1.89258   0.00110  -0.00053   0.01347   0.01294   1.90551
    A9        1.92223   0.00066  -0.00054   0.00341   0.00274   1.92497
   A10        1.81166   0.00014   0.00123   0.00056   0.00188   1.81354
   A11        1.93693   0.00009   0.00095  -0.00755  -0.00668   1.93025
   A12        1.89966  -0.00013  -0.00214   0.00904   0.00684   1.90650
   A13        1.88513  -0.00091  -0.00143  -0.00563  -0.00706   1.87807
   A14        2.05649  -0.00604   0.00124  -0.04025  -0.03900   2.01749
   A15        1.91298   0.00197   0.00077   0.00616   0.00672   1.91969
   A16        1.85572   0.00237   0.00067   0.01863   0.01935   1.87506
   A17        1.89532   0.00179  -0.00077   0.00710   0.00620   1.90151
   A18        1.85164   0.00129  -0.00037   0.00908   0.00894   1.86058
   A19        1.88402  -0.00118  -0.00189   0.00242   0.00037   1.88439
   A20        1.89786   0.00069   0.00150  -0.00202  -0.00054   1.89732
   A21        1.90509  -0.00040  -0.00017   0.00204   0.00185   1.90694
   A22        1.93846  -0.00038  -0.00055  -0.00433  -0.00489   1.93357
   A23        1.88598   0.00078   0.00001   0.01409   0.01408   1.90006
   A24        1.92925  -0.00043   0.00049  -0.00663  -0.00616   1.92310
   A25        1.90631  -0.00023  -0.00128  -0.00253  -0.00379   1.90251
   A26        1.84480   0.00492   0.00240   0.02380   0.02620   1.87101
    D1       -1.30970  -0.00019  -0.00051  -0.10764  -0.10818  -1.41787
    D2        2.96194  -0.00003  -0.00219  -0.10721  -0.10936   2.85258
    D3        0.88497  -0.00092   0.00100  -0.12832  -0.12733   0.75764
    D4        2.89535  -0.00054  -0.00173  -0.11260  -0.11438   2.78097
    D5        0.88381  -0.00038  -0.00341  -0.11217  -0.11557   0.76824
    D6       -1.19316  -0.00127  -0.00023  -0.13328  -0.13354  -1.32671
    D7        0.87134  -0.00050   0.00024  -0.11948  -0.11925   0.75208
    D8       -1.14021  -0.00034  -0.00145  -0.11905  -0.12043  -1.26065
    D9        3.06601  -0.00123   0.00174  -0.14016  -0.13841   2.92760
   D10        1.23250   0.00015  -0.00056   0.04590   0.04550   1.27800
   D11       -0.94573   0.00075  -0.00120   0.06281   0.06171  -0.88402
   D12       -2.97788  -0.00014   0.00027   0.04674   0.04699  -2.93089
   D13       -2.96704  -0.00035   0.00069   0.04276   0.04338  -2.92366
   D14        1.13791   0.00025   0.00005   0.05966   0.05960   1.19751
   D15       -0.89424  -0.00064   0.00152   0.04359   0.04487  -0.84937
   D16       -0.94106   0.00061  -0.00092   0.05865   0.05787  -0.88319
   D17       -3.11929   0.00121  -0.00156   0.07556   0.07408  -3.04521
   D18        1.13174   0.00031  -0.00009   0.05949   0.05936   1.19110
   D19        1.17041  -0.00019   0.00034  -0.00249  -0.00209   1.16832
   D20       -3.05450   0.00029   0.00095   0.00534   0.00631  -3.04819
   D21       -1.01654   0.00026  -0.00041   0.01268   0.01220  -1.00433
   D22       -1.37988   0.00007  -0.00051  -0.09015  -0.09069  -1.47057
   D23        2.84960  -0.00104  -0.00128  -0.10706  -0.10837   2.74123
   D24        0.74677  -0.00026   0.00075  -0.10252  -0.10179   0.64498
   D25        0.80706  -0.00038   0.00085  -0.10702  -0.10614   0.70092
   D26       -1.24664  -0.00149   0.00008  -0.12392  -0.12382  -1.37046
   D27        2.93372  -0.00071   0.00211  -0.11939  -0.11725   2.81647
   D28        2.82834  -0.00022  -0.00187  -0.09612  -0.09800   2.73035
   D29        0.77464  -0.00133  -0.00264  -0.11303  -0.11568   0.65896
[...]
   D25        0.49066   0.00000   0.00070  -0.00049   0.00022   0.49087
   D26       -1.58526   0.00000   0.00076  -0.00048   0.00028  -1.58498
   D27        2.58774  -0.00000   0.00079  -0.00051   0.00028   2.58802
   D28        2.52402   0.00000   0.00068  -0.00052   0.00016   2.52417
   D29        0.44810   0.00000   0.00074  -0.00052   0.00022   0.44832
   D30       -1.66209  -0.00000   0.00076  -0.00054   0.00022  -1.66187
   D31        3.13814  -0.00000  -0.00039  -0.00031  -0.00070   3.13744
   D32       -1.05774   0.00000  -0.00043  -0.00028  -0.00071  -1.05845
   D33        1.02303  -0.00001  -0.00045  -0.00034  -0.00079   1.02224
         Item               Value     Threshold  Converged?
 Maximum Force            0.000036     0.000450     YES
 RMS     Force            0.000010     0.000300     YES
 Maximum Displacement     0.001560     0.001800     YES
 RMS     Displacement     0.000572     0.001200     YES
 Predicted change in Energy=-2.741147D-08
 Optimization completed.
    -- Stationary point found.
                           ----------------------------
                           !   Optimized Parameters   !
                           ! (Angstroms and Degrees)  !
 --------------------------                            --------------------------
 ! Name  Definition              Value          Derivative Info.                !
 --------------------------------------------------------------------------------
 ! R1    R(1,2)                  1.5206         -DE/DX =    0.0                 !
 ! R2    R(1,4)                  1.5131         -DE/DX =    0.0                 !
 ! R3    R(1,7)                  1.1226         -DE/DX =    0.0                 !
 ! R4    R(1,8)                  1.1216         -DE/DX =    0.0                 !
 ! R5    R(2,3)                  1.4124         -DE/DX =    0.0                 !
 ! R6    R(2,9)                  1.1245         -DE/DX =    0.0                 !
 ! R7    R(2,10)                 1.1232         -DE/DX =    0.0                 !
 ! R8    R(3,11)                 0.9667         -DE/DX =    0.0                 !
 ! R9    R(4,5)                  1.5211         -DE/DX =    0.0                 !
 ! R10   R(4,12)                 1.1225         -DE/DX =    0.0                 !
 ! R11   R(4,13)                 1.1222         -DE/DX =    0.0                 !
 ! R12   R(5,6)                  1.4219         -DE/DX =    0.0                 !
 ! R13   R(5,14)                 1.1237         -DE/DX =    0.0                 !
 ! R14   R(5,15)                 1.1232         -DE/DX =    0.0                 !
 ! R15   R(6,16)                 0.9638         -DE/DX =    0.0                 !
 ! A1    A(2,1,4)              113.7249         -DE/DX =    0.0                 !
 ! A2    A(2,1,7)              107.8385         -DE/DX =    0.0                 !
 ! A3    A(2,1,8)              108.9691         -DE/DX =    0.0                 !
 ! A4    A(4,1,7)              108.5185         -DE/DX =    0.0                 !
 ! A5    A(4,1,8)              110.062          -DE/DX =    0.0                 !
 ! A6    A(7,1,8)              107.5241         -DE/DX =    0.0                 !
 ! A7    A(1,2,3)              112.6319         -DE/DX =    0.0                 !
 ! A8    A(1,2,9)              109.9173         -DE/DX =    0.0                 !
 ! A9    A(1,2,10)             110.3872         -DE/DX =    0.0                 !
 ! A10   A(3,2,9)              104.2474         -DE/DX =    0.0                 !
 ! A11   A(3,2,10)             110.2636         -DE/DX =    0.0                 !
 ! A12   A(9,2,10)             109.191          -DE/DX =    0.0                 !
 ! A13   A(2,3,11)             107.2206         -DE/DX =    0.0                 !
 ! A14   A(1,4,5)              113.6509         -DE/DX =    0.0                 !
 ! A15   A(1,4,12)             109.9191         -DE/DX =    0.0                 !
 ! A16   A(1,4,13)             108.7431         -DE/DX =    0.0                 !
 ! A17   A(5,4,12)             108.9399         -DE/DX =    0.0                 !
 ! A18   A(5,4,13)             107.7639         -DE/DX =    0.0                 !
 ! A19   A(12,4,13)            107.6339         -DE/DX =    0.0                 !
 ! A20   A(4,5,6)              107.5941         -DE/DX =    0.0                 !
 ! A21   A(4,5,14)             110.2009         -DE/DX =    0.0                 !
 ! A22   A(4,5,15)             111.2954         -DE/DX =    0.0                 !
 ! A23   A(6,5,14)             109.1792         -DE/DX =    0.0                 !
 ! A24   A(6,5,15)             109.6551         -DE/DX =    0.0                 !
 ! A25   A(14,5,15)            108.8867         -DE/DX =    0.0                 !
 ! A26   A(5,6,16)             106.8256         -DE/DX =    0.0                 !
 ! D1    D(4,1,2,3)            -77.6505         -DE/DX =    0.0                 !
 ! D2    D(4,1,2,9)            166.5853         -DE/DX =    0.0                 !
 ! D3    D(4,1,2,10)            46.0775         -DE/DX =    0.0                 !
 ! D4    D(7,1,2,3)            161.9595         -DE/DX =    0.0                 !
 ! D5    D(7,1,2,9)             46.1953         -DE/DX =    0.0                 !
 ! D6    D(7,1,2,10)           -74.3125         -DE/DX =    0.0                 !
 ! D7    D(8,1,2,3)             45.5304         -DE/DX =    0.0                 !
 ! D8    D(8,1,2,9)            -70.2338         -DE/DX =    0.0                 !
 ! D9    D(8,1,2,10)           169.2584         -DE/DX =    0.0                 !
 ! D10   D(2,1,4,5)             81.7655         -DE/DX =    0.0                 !
 ! D11   D(2,1,4,12)           -40.6181         -DE/DX =    0.0                 !
 ! D12   D(2,1,4,13)          -158.2128         -DE/DX =    0.0                 !
 ! D13   D(7,1,4,5)           -158.2282         -DE/DX =    0.0                 !
 ! D14   D(7,1,4,12)            79.3882         -DE/DX =    0.0                 !
 ! D15   D(7,1,4,13)           -38.2065         -DE/DX =    0.0                 !
 ! D16   D(8,1,4,5)            -40.8162         -DE/DX =    0.0                 !
 ! D17   D(8,1,4,12)          -163.1998         -DE/DX =    0.0                 !
 ! D18   D(8,1,4,13)            79.2055         -DE/DX =    0.0                 !
 ! D19   D(1,2,3,11)            65.8028         -DE/DX =    0.0                 !
 ! D20   D(9,2,3,11)          -175.0759         -DE/DX =    0.0                 !
 ! D21   D(10,2,3,11)          -57.9937         -DE/DX =    0.0                 !
 ! D22   D(1,4,5,6)            -94.8101         -DE/DX =    0.0                 !
 ! D23   D(1,4,5,14)           146.2487         -DE/DX =    0.0                 !
 ! D24   D(1,4,5,15)            25.3439         -DE/DX =    0.0                 !
 ! D25   D(12,4,5,6)            28.1125         -DE/DX =    0.0                 !
 ! D26   D(12,4,5,14)          -90.8287         -DE/DX =    0.0                 !
 ! D27   D(12,4,5,15)          148.2666         -DE/DX =    0.0                 !
 ! D28   D(13,4,5,6)           144.6155         -DE/DX =    0.0                 !
 ! D29   D(13,4,5,14)           25.6743         -DE/DX =    0.0                 !
 ! D30   D(13,4,5,15)          -95.2305         -DE/DX =    0.0                 !
 ! D31   D(4,5,6,16)           179.8024         -DE/DX =    0.0                 !
 ! D32   D(14,5,6,16)          -60.604          -DE/DX =    0.0                 !
 ! D33   D(15,5,6,16)           58.6155         -DE/DX =    0.0                 !
 --------------------------------------------------------------------------------
 GradGradGradGradGradGradGradGradGradGradGradGradGradGradGradGradGradGrad

                          Input orientation:                          
 ---------------------------------------------------------------------
 Center     Atomic      Atomic             Coordinates (Angstroms)
 Number     Number       Type             X           Y           Z
 ---------------------------------------------------------------------
      1          6           0        1.643738    1.275308    2.008549
      2          6           0        1.108804    2.315380    1.036721
      3          8           0        1.433967    3.635379    1.419967
      4          6           0        3.122967    0.998641    1.850826
      5          6           0        4.011942    2.016404    2.549025
      6          8           0        4.376250    2.999459    1.588495
      7          1           0        1.081585    0.319592    1.833231
      8          1           0        1.424311    1.608771    3.056665
      9          1           0       -0.015531    2.296444    1.035928
     10          1           0        1.482286    2.108769   -0.002226
     11          1           0        2.394752    3.722687    1.358817
     12          1           0        3.391993    0.966441    0.761488
     13          1           0        3.349622   -0.010162    2.286917
     14          1           0        4.941027    1.518060    2.937855
     15          1           0        3.476129    2.506035    3.406150
     16          1           0        4.935857    3.639391    2.042691
 ---------------------------------------------------------------------
                    Distance matrix (angstroms):
                    1          2          3          4          5
     1  C    0.000000
     2  C    1.520643   0.000000
     3  O    2.441386   1.412447   0.000000
     4  C    1.513122   2.540359   3.160814   0.000000
     5  C    2.539632   3.287045   3.246814   1.521053   0.000000
     6  O    3.258184   3.383581   3.014933   2.375460   1.421877
     7  H    1.122562   2.149033   3.359971   2.151431   3.461000
     8  H    1.121558   2.163103   2.604997   2.170653   2.668276
     9  H    2.177586   1.124494   2.010293   3.492638   4.311429
    10  H    2.182646   1.123204   2.086984   2.712568   3.593964
    11  H    2.641182   1.933371   0.966680   2.862307   2.635014
    12  H    2.169552   2.666148   3.375010   1.122528   2.163804
    13  H    2.154057   3.463005   4.208480   1.122154   2.148101
    14  H    3.434335   4.351548   4.368809   2.181002   1.123715
    15  H    2.612592   3.354814   3.064436   2.194537   1.123164
    16  H    4.053160   4.172687   3.556829   3.208885   1.934962
                    6          7          8          9         10
     6  O    0.000000
     7  H    4.253986   0.000000
     8  H    3.578194   1.810037   0.000000
     9  H    4.481885   2.397353   2.574765   0.000000
    10  H    3.420343   2.594344   3.100028   1.832059   0.000000
    11  H    2.121825   3.678388   2.879772   2.819201   2.299949
    12  H    2.405382   2.627743   3.090663   3.668167   2.352692
    13  H    3.255699   2.336356   2.630642   4.267277   3.635518
    14  H    2.081895   4.189488   3.519892   5.365694   4.577762
    15  H    2.087475   3.603949   2.266535   4.225348   3.968660
    16  H    0.963830   5.091203   4.181210   5.228128   4.295538
                   11         12         13         14         15
    11  H    0.000000
    12  H    2.991352   0.000000
    13  H    3.963245   1.811762   0.000000
    14  H    3.719847   2.727702   2.300381   0.000000
    15  H    2.615568   3.061317   2.756797   1.827928   0.000000
    16  H    2.632838   3.342104   3.986857   2.302475   2.296589
                   16
    16  H    0.000000
 Stoichiometry    C4H10O2
 Framework group  C1[X(C4H10O2)]
 Deg. of freedom    42
 Full point group                 C1      NOp   1
 Largest Abelian subgroup         C1      NOp   1
 Largest concise Abelian subgroup C1      NOp   1
                         Standard orientation:                         
 ---------------------------------------------------------------------
 Center     Atomic      Atomic             Coordinates (Angstroms)
 Number     Number       Type             X           Y           Z
 ---------------------------------------------------------------------
      1          6           0        0.843322    1.097063    0.251075
      2          6           0        1.667450   -0.053624   -0.304881
      3          8           0        1.342488   -1.292419    0.290762
      4          6           0       -0.565372    1.157938   -0.297939
      5          6           0       -1.532670    0.212205    0.397419
      6          8           0       -1.584339   -0.986825   -0.365071
      7          1           0        1.369181    2.054006   -0.009458
      8          1           0        0.817287    1.019755    1.369662
      9          1           0        2.753411    0.097189   -0.055017
     10          1           0        1.550377   -0.115666   -1.420243
     11          1           0        0.434340   -1.503325    0.035308
     12          1           0       -0.557853    0.928352   -1.396713
     13          1           0       -0.956849    2.201960   -0.171476
     14          1           0       -2.558950    0.668048    0.438556
     15          1           0       -1.195583   -0.019517    1.443447
     16          1           0       -2.196933   -1.578348    0.086367
 ---------------------------------------------------------------------
 Rotational constants (GHZ):      4.7689144      2.7104849      1.9475955

 **********************************************************************

            Population analysis using the SCF density.

 **********************************************************************

 Orbital symmetries:
       Occupied  (A) (A) (A) (A) (A) (A) (A) (A) (A) (A) (A) (A)
                 (A) (A) (A) (A) (A) (A) (A)
       Virtual   (A) (A) (A) (A) (A) (A) (A) (A) (A) (A) (A) (A)
                 (A) (A) (A)
 The electronic state is 1-A.
 Alpha  occ. eigenvalues --   -1.43865  -1.37753  -1.25037  -1.06011  -0.89465
 Alpha  occ. eigenvalues --   -0.79172  -0.69115  -0.65488  -0.61042  -0.57017
 Alpha  occ. eigenvalues --   -0.56462  -0.54048  -0.50510  -0.48899  -0.46154
 Alpha  occ. eigenvalues --   -0.43758  -0.42585  -0.41016  -0.39452
 Alpha virt. eigenvalues --    0.11895   0.12936   0.13598   0.14072   0.14662
 Alpha virt. eigenvalues --    0.15296   0.15828   0.15942   0.17209   0.17381
 Alpha virt. eigenvalues --    0.17679   0.18282   0.18507   0.22119   0.24731
          Condensed to atoms (all electrons):
               1          2          3          4          5          6
     1  C    4.197738   0.000000   0.000000   0.000000   0.000000   0.000000
     2  C    0.000000   4.014112   0.000000   0.000000   0.000000   0.000000
     3  O    0.000000   0.000000   6.338914   0.000000   0.000000   0.000000
     4  C    0.000000   0.000000   0.000000   4.165066   0.000000   0.000000
     5  C    0.000000   0.000000   0.000000   0.000000   4.024094   0.000000
     6  O    0.000000   0.000000   0.000000   0.000000   0.000000   6.341733
     7  H    0.000000   0.000000   0.000000   0.000000   0.000000   0.000000
     8  H    0.000000   0.000000   0.000000   0.000000   0.000000   0.000000
     9  H    0.000000   0.000000   0.000000   0.000000   0.000000   0.000000
    10  H    0.000000   0.000000   0.000000   0.000000   0.000000   0.000000
    11  H    0.000000   0.000000   0.000000   0.000000   0.000000   0.000000
    12  H    0.000000   0.000000   0.000000   0.000000   0.000000   0.000000
    13  H    0.000000   0.000000   0.000000   0.000000   0.000000   0.000000
    14  H    0.000000   0.000000   0.000000   0.000000   0.000000   0.000000
    15  H    0.000000   0.000000   0.000000   0.000000   0.000000   0.000000
    16  H    0.000000   0.000000   0.000000   0.000000   0.000000   0.000000
               7          8          9         10         11         12
     1  C    0.000000   0.000000   0.000000   0.000000   0.000000   0.000000
     2  C    0.000000   0.000000   0.000000   0.000000   0.000000   0.000000
     3  O    0.000000   0.000000   0.000000   0.000000   0.000000   0.000000
     4  C    0.000000   0.000000   0.000000   0.000000   0.000000   0.000000
     5  C    0.000000   0.000000   0.000000   0.000000   0.000000   0.000000
     6  O    0.000000   0.000000   0.000000   0.000000   0.000000   0.000000
     7  H    0.914664   0.000000   0.000000   0.000000   0.000000   0.000000
     8  H    0.000000   0.906428   0.000000   0.000000   0.000000   0.000000
     9  H    0.000000   0.000000   0.902872   0.000000   0.000000   0.000000
    10  H    0.000000   0.000000   0.000000   0.935606   0.000000   0.000000
    11  H    0.000000   0.000000   0.000000   0.000000   0.785916   0.000000
    12  H    0.000000   0.000000   0.000000   0.000000   0.000000   0.895378
    13  H    0.000000   0.000000   0.000000   0.000000   0.000000   0.000000
    14  H    0.000000   0.000000   0.000000   0.000000   0.000000   0.000000
    15  H    0.000000   0.000000   0.000000   0.000000   0.000000   0.000000
    16  H    0.000000   0.000000   0.000000   0.000000   0.000000   0.000000
              13         14         15         16
     1  C    0.000000   0.000000   0.000000   0.000000
     2  C    0.000000   0.000000   0.000000   0.000000
     3  O    0.000000   0.000000   0.000000   0.000000
     4  C    0.000000   0.000000   0.000000   0.000000
     5  C    0.000000   0.000000   0.000000   0.000000
     6  O    0.000000   0.000000   0.000000   0.000000
     7  H    0.000000   0.000000   0.000000   0.000000
     8  H    0.000000   0.000000   0.000000   0.000000
     9  H    0.000000   0.000000   0.000000   0.000000
    10  H    0.000000   0.000000   0.000000   0.000000
    11  H    0.000000   0.000000   0.000000   0.000000
    12  H    0.000000   0.000000   0.000000   0.000000
    13  H    0.914563   0.000000   0.000000   0.000000
    14  H    0.000000   0.936977   0.000000   0.000000
    15  H    0.000000   0.000000   0.929197   0.000000
    16  H    0.000000   0.000000   0.000000   0.796743
 Mulliken charges:
               1
     1  C   -0.197738
     2  C   -0.014112
     3  O   -0.338914
     4  C   -0.165066
     5  C   -0.024094
     6  O   -0.341733
     7  H    0.085336
     8  H    0.093572
     9  H    0.097128
    10  H    0.064394
    11  H    0.214084
    12  H    0.104622
    13  H    0.085437
    14  H    0.063023
    15  H    0.070803
    16  H    0.203257
 Sum of Mulliken charges =  -0.00000
 Mulliken charges with hydrogens summed into heavy atoms:
               1
     1  C   -0.018830
     2  C    0.147409
     3  O   -0.124830
     4  C    0.024994
     5  C    0.109733
     6  O   -0.138476
 Charge=             -0.0000 electrons
 Dipole moment (field-independent basis, Debye):
    X=             -1.7228    Y=              1.5156    Z=              0.4038  Tot=              2.3299
 N-N= 1.809638231769D+02 E-N=-3.101880495058D+02  KE=-2.499489541460D+01
 1\1\GINC-GTX1080DELTA\FOpt\RAM1\ZDO\C4H10O2\MVEROT\17-Apr-2022\0\\#n A
 M1 Opt\\Optimisation de geometrie\\0,1\C,1.6437379028,1.2753080015,2.0
 085493792\C,1.108803515,2.3153801264,1.036720501\O,1.4339670288,3.6353
 785767,1.4199671752\C,3.1229668767,0.998640803,1.8508262812\C,4.011941
 9726,2.0164044573,2.5490249532\O,4.3762496022,2.9994589382,1.588495077
 \H,1.0815854555,0.3195918384,1.8332314466\H,1.4243112677,1.608771147,3
 .0566647168\H,-0.0155306967,2.2964436989,1.0359282189\H,1.4822855271,2
 .1087694826,-0.00222596\H,2.3947523677,3.7226874158,1.3588166736\H,3.3
 919934795,0.9664407751,0.7614883408\H,3.3496220118,-0.0101617929,2.286
 9171412\H,4.9410274743,1.5180603918,2.9378546106\H,3.4761293094,2.5060
 348042,3.4061500434\H,4.9358569056,3.6393913361,2.0426914012\\Version=
 AM64L-G09RevD.01\State=1-A\HF=-0.1961401\RMSD=9.786e-09\RMSF=1.182e-05
 \Dipole=0.548929,-0.5850247,0.4434454\PG=C01 [X(C4H10O2)]\\@


 SEEN ON A WALL AT THE UNIVERSITY OF ILLINOIS AT CHICAGO CIRCLE:

 TO DO IS TO BE  -- SOCRATES
 TO BE IS TO DO  -- SARTRE
 OO BE DO BE DO  -- SINATRA
 Job cpu time:       0 days  0 hours  0 minutes 10.1 seconds.
 File lengths (MBytes):  RWF=     72 Int=      0 D2E=      0 Chk=      3 Scr=      2
 Normal termination of Gaussian 09 at Sun Apr 17 23:11:22 2022.
